 Gaussian 16, Revision B.01,
 Gaussian 16:  ES64L-G16RevB.01 20-Dec-2017

 -------------------------
 #P B3LYP/6-311+g(d) force
 -------------------------

 -----
 DPGEN
 -----
 Symbolic Z-matrix:
 Charge =  0 Multiplicity = 2

                         Standard orientation:
 ---------------------------------------------------------------------
 Center     Atomic      Atomic             Coordinates (Angstroms)
 Number     Number       Type             X           Y           Z
 ---------------------------------------------------------------------
      1         11           0       -0.135831   -0.359766    2.114301
      2         11           0       -2.939733    0.723034   -0.057607
      3         11           0        2.733748    1.231939   -0.223024
      4         11           0       -0.078331    2.936560    0.125905
      5         11           0        0.140868    0.075433   -1.577385
      6         11           0        2.142341   -2.410557    0.061804
      7         11           0       -1.863062   -2.196642   -0.443995
 ---------------------------------------------------------------------

 SCF Done:  E(UB3LYP) =  -1136.13768198     A.U. after   19 cycles

 The electronic state is 2-A.
 Alpha  occ. eigenvalues --  -38.43824 -38.43748 -38.43725 -38.43686 -38.43651
 Alpha  occ. eigenvalues --  -38.43243 -38.43126  -2.19689  -2.19595  -2.19558
 Alpha  occ. eigenvalues --   -2.19546  -2.19535  -2.19134  -2.19104  -1.13408
 Alpha  occ. eigenvalues --   -1.13348  -1.13337  -1.13311  -1.13258  -1.13251
 Alpha  occ. eigenvalues --   -1.13228  -1.13223  -1.13216  -1.13202  -1.13198
 Alpha  occ. eigenvalues --   -1.13190  -1.13165  -1.13161  -1.13128  -1.12836
 Alpha  occ. eigenvalues --   -1.12794  -1.12770  -1.12763  -1.12740  -1.12723
 Alpha  occ. eigenvalues --   -0.18722  -0.13125  -0.12420  -0.10809
 Alpha virt. eigenvalues --   -0.05394  -0.05281  -0.04742  -0.03197  -0.02911
 Alpha virt. eigenvalues --   -0.02614  -0.01407  -0.01194  -0.00335  -0.00280
 Alpha virt. eigenvalues --   -0.00012   0.00358   0.00810   0.00877   0.00894

  Beta  occ. eigenvalues --  -38.43819 -38.43747 -38.43721 -38.43637 -38.43588
  Beta  occ. eigenvalues --  -38.43239 -38.43066  -2.19682  -2.19591  -2.19548
  Beta  occ. eigenvalues --   -2.19515  -2.19376  -2.19100  -2.19026  -1.13396
  Beta  occ. eigenvalues --   -1.13332  -1.13330  -1.13308  -1.13251  -1.13223
  Beta  occ. eigenvalues --   -1.13210  -1.13203  -1.13198  -1.13192  -1.13150
  Beta  occ. eigenvalues --   -1.13119  -1.13096  -1.13059  -1.13036  -1.12803
  Beta  occ. eigenvalues --   -1.12754  -1.12731  -1.12727  -1.12691  -1.12662
  Beta  occ. eigenvalues --   -0.17996  -0.12872  -0.12206
  Beta virt. eigenvalues --   -0.06867  -0.05397  -0.05228  -0.04697  -0.02410
  Beta virt. eigenvalues --   -0.02151  -0.01551  -0.01309  -0.01113  -0.00381
  Beta virt. eigenvalues --   -0.00326   0.00136   0.00387   0.00865   0.00887

 Mulliken charges and spin densities:
               1          2
     1  Na  -0.635328   0.790575
     2  Na   0.182018   0.028880
     3  Na   0.231938  -0.025713
     4  Na   0.088896   0.007927
     5  Na  -0.275958   0.286521
     6  Na   0.078077  -0.080351
     7  Na   0.330357  -0.007838
 Sum of Mulliken charges =  -0.00000   1.00000

 Dipole moment (field-independent basis, Debye):
    X=              0.0882    Y=             -0.1373    Z=              0.1879  Tot=              0.2488
 Quadrupole moment (field-independent basis, Debye-Ang):
   XX=            -57.9451   YY=            -61.6049   ZZ=            -74.1921
   XY=             -0.7575   XZ=              0.3611   YZ=              0.9883

 Normal termination of Gaussian 16 at Thu Dec  7 07:40:51 2023.
