 Gaussian 16, Revision B.01,
 Gaussian 16:  ES64L-G16RevB.01 20-Dec-2017

 -------------------------
 #P B3LYP/6-311+g(d) force
 -------------------------

 -----
 DPGEN
 -----
 Symbolic Z-matrix:
 Charge =  0 Multiplicity = 2

                         Standard orientation:
 ---------------------------------------------------------------------
 Center     Atomic      Atomic             Coordinates (Angstroms)
 Number     Number       Type             X           Y           Z
 ---------------------------------------------------------------------
      1         11           0        2.859437    1.247735    0.310219
      2         11           0       -1.635849   -2.315908    0.502009
      3         11           0       -0.318067    2.867680   -0.378478
      4         11           0        1.963525   -2.263268   -0.243195
      5         11           0       -2.954889    0.589929   -0.495293
      6         11           0        0.346139   -0.477982   -1.802195
      7         11           0       -0.260297    0.351813    2.106933
 ---------------------------------------------------------------------

 SCF Done:  E(UB3LYP) =  -1136.13697726     A.U. after   18 cycles

 The electronic state is 2-A.
 Alpha  occ. eigenvalues --  -38.43922 -38.43907 -38.43705 -38.43642 -38.43600
 Alpha  occ. eigenvalues --  -38.43409 -38.43382  -2.19800  -2.19716  -2.19599
 Alpha  occ. eigenvalues --   -2.19550  -2.19473  -2.19276  -2.19219  -1.13469
 Alpha  occ. eigenvalues --   -1.13459  -1.13436  -1.13426  -1.13391  -1.13373
 Alpha  occ. eigenvalues --   -1.13352  -1.13252  -1.13220  -1.13210  -1.13201
 Alpha  occ. eigenvalues --   -1.13199  -1.13107  -1.13073  -1.13068  -1.12954
 Alpha  occ. eigenvalues --   -1.12934  -1.12899  -1.12894  -1.12887  -1.12849
 Alpha  occ. eigenvalues --   -0.18564  -0.12866  -0.12504  -0.11149
 Alpha virt. eigenvalues --   -0.05406  -0.05035  -0.04678  -0.03375  -0.03235
 Alpha virt. eigenvalues --   -0.02804  -0.01319  -0.01018  -0.00281  -0.00190
 Alpha virt. eigenvalues --   -0.00016   0.00375   0.00826   0.00899   0.00926

  Beta  occ. eigenvalues --  -38.43902 -38.43834 -38.43695 -38.43595 -38.43578
  Beta  occ. eigenvalues --  -38.43396 -38.43375  -2.19709  -2.19638  -2.19534
  Beta  occ. eigenvalues --   -2.19492  -2.19457  -2.19255  -2.19208  -1.13408
  Beta  occ. eigenvalues --   -1.13379  -1.13373  -1.13358  -1.13347  -1.13322
  Beta  occ. eigenvalues --   -1.13298  -1.13215  -1.13195  -1.13179  -1.13165
  Beta  occ. eigenvalues --   -1.13130  -1.13086  -1.13067  -1.13022  -1.12934
  Beta  occ. eigenvalues --   -1.12907  -1.12884  -1.12883  -1.12871  -1.12835
  Beta  occ. eigenvalues --   -0.17831  -0.12631  -0.12266
  Beta virt. eigenvalues --   -0.07251  -0.05369  -0.04984  -0.04565  -0.02622
  Beta virt. eigenvalues --   -0.02478  -0.01796  -0.01224  -0.00934  -0.00268
  Beta virt. eigenvalues --   -0.00227   0.00102   0.00407   0.00884   0.00919

 Mulliken charges and spin densities:
               1          2
     1  Na   0.015525  -0.048523
     2  Na   0.183877   0.061826
     3  Na   0.020810  -0.037395
     4  Na   0.313079  -0.034060
     5  Na   0.075251  -0.013578
     6  Na  -0.217123   0.455008
     7  Na  -0.391420   0.616722
 Sum of Mulliken charges =  -0.00000   1.00000

 Dipole moment (field-independent basis, Debye):
    X=              0.1075    Y=              0.0861    Z=              0.1598  Tot=              0.2110
 Quadrupole moment (field-independent basis, Debye-Ang):
   XX=            -59.4408   YY=            -64.0065   ZZ=            -71.6832
   XY=              0.2628   XZ=              1.6507   YZ=             -1.7462

 Normal termination of Gaussian 16 at Tue Dec  5 11:22:50 2023.
