 Gaussian 16, Revision B.01,
 Gaussian 16:  ES64L-G16RevB.01 20-Dec-2017

 -------------------------
 #P B3LYP/6-311+g(d) force
 -------------------------

 -----
 DPGEN
 -----
 Symbolic Z-matrix:
 Charge =  0 Multiplicity = 2

                         Standard orientation:
 ---------------------------------------------------------------------
 Center     Atomic      Atomic             Coordinates (Angstroms)
 Number     Number       Type             X           Y           Z
 ---------------------------------------------------------------------
      1         11           0       -3.908377   -1.406590   -0.404528
      2         11           0        1.482520   -1.655277    0.422361
      3         11           0        2.139746    1.778514    0.688839
      4         11           0        0.197320    0.089078   -1.152263
      5         11           0       -2.857075    1.871833   -0.459385
      6         11           0       -1.546838   -0.252567    1.462374
      7         11           0        4.492703   -0.424991   -0.557398
 ---------------------------------------------------------------------

 SCF Done:  E(UB3LYP) =  -1136.10061722     A.U. after   39 cycles

 The electronic state is 2-A.
 Alpha  occ. eigenvalues --  -38.45107 -38.44390 -38.44346 -38.44024 -38.43994
 Alpha  occ. eigenvalues --  -38.43933 -38.43540  -2.21140  -2.20360  -2.20186
 Alpha  occ. eigenvalues --   -2.19885  -2.19854  -2.19764  -2.19523  -1.14987
 Alpha  occ. eigenvalues --   -1.14763  -1.14731  -1.14065  -1.14048  -1.13968
 Alpha  occ. eigenvalues --   -1.13840  -1.13826  -1.13805  -1.13577  -1.13551
 Alpha  occ. eigenvalues --   -1.13545  -1.13534  -1.13486  -1.13457  -1.13434
 Alpha  occ. eigenvalues --   -1.13403  -1.13391  -1.13272  -1.13145  -1.13075
 Alpha  occ. eigenvalues --   -0.18737  -0.15097  -0.11196  -0.10277
 Alpha virt. eigenvalues --   -0.06987  -0.05844  -0.04557  -0.03489  -0.02652
 Alpha virt. eigenvalues --   -0.02187  -0.01673  -0.01244  -0.00958  -0.00508
 Alpha virt. eigenvalues --   -0.00323   0.00132   0.00369   0.00503   0.00534

  Beta  occ. eigenvalues --  -38.45081 -38.44363 -38.44264 -38.44000 -38.43980
  Beta  occ. eigenvalues --  -38.43909 -38.43503  -2.21099  -2.20318  -2.20034
  Beta  occ. eigenvalues --   -2.19841  -2.19831  -2.19720  -2.19464  -1.14932
  Beta  occ. eigenvalues --   -1.14740  -1.14704  -1.14047  -1.13966  -1.13946
  Beta  occ. eigenvalues --   -1.13735  -1.13716  -1.13710  -1.13549  -1.13534
  Beta  occ. eigenvalues --   -1.13526  -1.13512  -1.13440  -1.13419  -1.13407
  Beta  occ. eigenvalues --   -1.13378  -1.13348  -1.13228  -1.13098  -1.13006
  Beta  occ. eigenvalues --   -0.18024  -0.14458  -0.10113
  Beta virt. eigenvalues --   -0.07462  -0.06820  -0.05613  -0.03986  -0.03205
  Beta virt. eigenvalues --   -0.02504  -0.01659  -0.01367  -0.00988  -0.00713
  Beta virt. eigenvalues --   -0.00227  -0.00098   0.00203   0.00476   0.00545

 Mulliken charges and spin densities:
               1          2
     1  Na   0.016804   0.197692
     2  Na  -0.190275   0.013488
     3  Na  -0.124319   0.161760
     4  Na  -0.426446  -0.103824
     5  Na  -0.009739   0.324616
     6  Na   0.347877  -0.029542
     7  Na   0.386097   0.435811
 Sum of Mulliken charges =  -0.00000   1.00000

 Dipole moment (field-independent basis, Debye):
    X=             -0.0819    Y=              0.4821    Z=              0.0022  Tot=              0.4890
 Quadrupole moment (field-independent basis, Debye-Ang):
   XX=            -61.7366   YY=            -78.3926   ZZ=            -61.7980
   XY=             -0.0295   XZ=              1.4565   YZ=              2.5443

 Normal termination of Gaussian 16 at Thu Dec  7 21:51:39 2023.
