 Gaussian 16, Revision B.01,
 Gaussian 16:  ES64L-G16RevB.01 20-Dec-2017

 -------------------------
 #P B3LYP/6-311+g(d) force
 -------------------------

 -----
 DPGEN
 -----
 Symbolic Z-matrix:
 Charge =  0 Multiplicity = 2

                         Standard orientation:
 ---------------------------------------------------------------------
 Center     Atomic      Atomic             Coordinates (Angstroms)
 Number     Number       Type             X           Y           Z
 ---------------------------------------------------------------------
      1         11           0       -1.304149    0.110711    1.734436
      2         11           0        1.811281   -1.518451    0.548621
      3         11           0       -3.914835   -0.715822   -0.143394
      4         11           0        1.541858    1.374538   -0.718499
      5         11           0       -2.003958    2.586714   -0.300719
      6         11           0       -1.048713   -2.043734   -1.126656
      7         11           0        4.918516    0.206044    0.006211
 ---------------------------------------------------------------------

 SCF Done:  E(UB3LYP) =  -1136.12147455     A.U. after   23 cycles

 The electronic state is 2-A.
 Alpha  occ. eigenvalues --  -38.45221 -38.44162 -38.44111 -38.43848 -38.43550
 Alpha  occ. eigenvalues --  -38.43534 -38.43116  -2.21101  -2.19992  -2.19928
 Alpha  occ. eigenvalues --   -2.19717  -2.19431  -2.19399  -2.18933  -1.14790
 Alpha  occ. eigenvalues --   -1.14771  -1.14721  -1.13706  -1.13691  -1.13599
 Alpha  occ. eigenvalues --   -1.13575  -1.13570  -1.13525  -1.13386  -1.13368
 Alpha  occ. eigenvalues --   -1.13321  -1.13139  -1.13115  -1.13076  -1.13070
 Alpha  occ. eigenvalues --   -1.13046  -1.13001  -1.12615  -1.12601  -1.12565
 Alpha  occ. eigenvalues --   -0.17983  -0.14361  -0.11476  -0.10733
 Alpha virt. eigenvalues --   -0.07192  -0.05089  -0.04380  -0.03424  -0.03226
 Alpha virt. eigenvalues --   -0.02202  -0.01653  -0.01376  -0.01102  -0.00782
 Alpha virt. eigenvalues --   -0.00409   0.00058   0.00343   0.00619   0.00768

  Beta  occ. eigenvalues --  -38.45206 -38.44159 -38.44020 -38.43777 -38.43546
  Beta  occ. eigenvalues --  -38.43514 -38.43115  -2.21078  -2.19990  -2.19756
  Beta  occ. eigenvalues --   -2.19584  -2.19401  -2.19396  -2.18933  -1.14773
  Beta  occ. eigenvalues --   -1.14725  -1.14709  -1.13701  -1.13692  -1.13573
  Beta  occ. eigenvalues --   -1.13458  -1.13453  -1.13419  -1.13295  -1.13287
  Beta  occ. eigenvalues --   -1.13229  -1.13116  -1.13091  -1.13076  -1.13054
  Beta  occ. eigenvalues --   -1.13031  -1.12956  -1.12617  -1.12603  -1.12549
  Beta  occ. eigenvalues --   -0.17405  -0.13622  -0.11244
  Beta virt. eigenvalues --   -0.07247  -0.07002  -0.04969  -0.03569  -0.03195
  Beta virt. eigenvalues --   -0.03003  -0.02142  -0.01249  -0.01130  -0.00555
  Beta virt. eigenvalues --   -0.00361  -0.00225   0.00143   0.00442   0.00701

 Mulliken charges and spin densities:
               1          2
     1  Na  -0.186192   0.103845
     2  Na  -0.011326   0.033881
     3  Na   0.334831   0.430642
     4  Na  -0.494906   0.014778
     5  Na   0.062307  -0.043294
     6  Na  -0.165782  -0.022254
     7  Na   0.461069   0.482402
 Sum of Mulliken charges =  -0.00000   1.00000

 Dipole moment (field-independent basis, Debye):
    X=             -0.1181    Y=             -0.1763    Z=              0.3519  Tot=              0.4110
 Quadrupole moment (field-independent basis, Debye-Ang):
   XX=            -66.1051   YY=            -76.5384   ZZ=            -61.3449
   XY=             -2.1630   XZ=              0.5929   YZ=             -2.5779

 Normal termination of Gaussian 16 at Tue Nov 28 19:02:41 2023.
