 Gaussian 16, Revision B.01,
 Gaussian 16:  ES64L-G16RevB.01 20-Dec-2017

 -------------------------
 #P B3LYP/6-311+g(d) force
 -------------------------

 -----
 DPGEN
 -----
 Symbolic Z-matrix:
 Charge =  0 Multiplicity = 2

                         Standard orientation:
 ---------------------------------------------------------------------
 Center     Atomic      Atomic             Coordinates (Angstroms)
 Number     Number       Type             X           Y           Z
 ---------------------------------------------------------------------
      1         11           0       -0.008940   -0.435628   -1.735823
      2         11           0        2.399378    1.589244    0.098653
      3         11           0       -0.601438    0.241427    1.845767
      4         11           0       -0.985125   -2.651350    0.223331
      5         11           0       -0.775639    2.623038   -0.259370
      6         11           0        3.010041   -1.389110    0.058271
      7         11           0       -3.038277    0.022379   -0.230829
 ---------------------------------------------------------------------

 SCF Done:  E(UB3LYP) =  -1136.13391689     A.U. after   19 cycles

 The electronic state is 2-A.
 Alpha  occ. eigenvalues --  -38.44300 -38.44204 -38.43619 -38.43366 -38.43363
 Alpha  occ. eigenvalues --  -38.43257 -38.42880  -2.20200  -2.20027  -2.19506
 Alpha  occ. eigenvalues --   -2.19334  -2.19254  -2.19229  -2.18790  -1.13889
 Alpha  occ. eigenvalues --   -1.13868  -1.13826  -1.13749  -1.13683  -1.13654
 Alpha  occ. eigenvalues --   -1.13172  -1.13167  -1.13149  -1.13041  -1.13005
 Alpha  occ. eigenvalues --   -1.12987  -1.12959  -1.12900  -1.12888  -1.12869
 Alpha  occ. eigenvalues --   -1.12835  -1.12824  -1.12470  -1.12446  -1.12424
 Alpha  occ. eigenvalues --   -0.19062  -0.13495  -0.12343  -0.10772
 Alpha virt. eigenvalues --   -0.06003  -0.05036  -0.04391  -0.03335  -0.02848
 Alpha virt. eigenvalues --   -0.02401  -0.01682  -0.00929  -0.00371  -0.00101
 Alpha virt. eigenvalues --   -0.00014   0.00359   0.00847   0.00874   0.00923

  Beta  occ. eigenvalues --  -38.44290 -38.44205 -38.43616 -38.43356 -38.43282
  Beta  occ. eigenvalues --  -38.43184 -38.42870  -2.20185  -2.20032  -2.19503
  Beta  occ. eigenvalues --   -2.19240  -2.19186  -2.19095  -2.18777  -1.13880
  Beta  occ. eigenvalues --   -1.13825  -1.13818  -1.13754  -1.13673  -1.13659
  Beta  occ. eigenvalues --   -1.13170  -1.13160  -1.13134  -1.12999  -1.12920
  Beta  occ. eigenvalues --   -1.12904  -1.12866  -1.12853  -1.12826  -1.12807
  Beta  occ. eigenvalues --   -1.12747  -1.12735  -1.12462  -1.12422  -1.12400
  Beta  occ. eigenvalues --   -0.18314  -0.13273  -0.12097
  Beta virt. eigenvalues --   -0.06820  -0.05933  -0.05036  -0.04368  -0.02561
  Beta virt. eigenvalues --   -0.02066  -0.01621  -0.01327  -0.00871  -0.00410
  Beta virt. eigenvalues --   -0.00143   0.00136   0.00385   0.00873   0.00898

 Mulliken charges and spin densities:
               1          2
     1  Na  -0.320373   0.595398
     2  Na  -0.005835  -0.054736
     3  Na  -0.358084   0.684528
     4  Na   0.051543  -0.144709
     5  Na   0.109779  -0.004994
     6  Na   0.015883  -0.097456
     7  Na   0.507086   0.021970
 Sum of Mulliken charges =  -0.00000   1.00000

 Dipole moment (field-independent basis, Debye):
    X=             -0.0849    Y=             -0.2666    Z=              0.0208  Tot=              0.2806
 Quadrupole moment (field-independent basis, Debye-Ang):
   XX=            -55.1147   YY=            -64.7463   ZZ=            -74.1532
   XY=             -0.9069   XZ=              1.3142   YZ=             -1.4167

 Normal termination of Gaussian 16 at Tue Dec  5 16:10:35 2023.
