 Gaussian 16, Revision B.01,
 Gaussian 16:  ES64L-G16RevB.01 20-Dec-2017

 -------------------------
 #P B3LYP/6-311+g(d) force
 -------------------------

 -----
 DPGEN
 -----
 Symbolic Z-matrix:
 Charge =  0 Multiplicity = 2

                         Standard orientation:
 ---------------------------------------------------------------------
 Center     Atomic      Atomic             Coordinates (Angstroms)
 Number     Number       Type             X           Y           Z
 ---------------------------------------------------------------------
      1         11           0       -3.257553    2.193542   -0.243717
      2         11           0       -0.320944    3.586242    0.194668
      3         11           0        1.330696   -2.682626   -0.271508
      4         11           0       -3.784208   -1.159157   -0.833590
      5         11           0       -1.976354   -2.831214    1.257176
      6         11           0        3.452947    1.981564    0.517624
      7         11           0        4.555417   -1.088350   -0.620653
 ---------------------------------------------------------------------

 SCF Done:  E(UB3LYP) =  -1136.10776697     A.U. after   31 cycles

 The electronic state is 2-A.
 Alpha  occ. eigenvalues --  -38.46146 -38.45520 -38.44357 -38.44263 -38.44225
 Alpha  occ. eigenvalues --  -38.43965 -38.43434  -2.21879  -2.21273  -2.20178
 Alpha  occ. eigenvalues --   -2.20060  -2.20018  -2.19770  -2.19221  -1.15567
 Alpha  occ. eigenvalues --   -1.15545  -1.15501  -1.14959  -1.14948  -1.14875
 Alpha  occ. eigenvalues --   -1.13867  -1.13837  -1.13827  -1.13726  -1.13705
 Alpha  occ. eigenvalues --   -1.13699  -1.13693  -1.13692  -1.13657  -1.13426
 Alpha  occ. eigenvalues --   -1.13423  -1.13405  -1.12886  -1.12881  -1.12851
 Alpha  occ. eigenvalues --   -0.15640  -0.14106  -0.13030  -0.10454
 Alpha virt. eigenvalues --   -0.07871  -0.05061  -0.04511  -0.03435  -0.03379
 Alpha virt. eigenvalues --   -0.02549  -0.02185  -0.01928  -0.01110  -0.00873
 Alpha virt. eigenvalues --   -0.00522  -0.00077   0.00009   0.00424   0.00610

  Beta  occ. eigenvalues --  -38.46124 -38.45480 -38.44317 -38.44254 -38.44224
  Beta  occ. eigenvalues --  -38.43925 -38.43400  -2.21843  -2.21201  -2.20106
  Beta  occ. eigenvalues --   -2.20046  -2.20020  -2.19696  -2.19156  -1.15547
  Beta  occ. eigenvalues --   -1.15525  -1.15442  -1.14912  -1.14902  -1.14804
  Beta  occ. eigenvalues --   -1.13834  -1.13790  -1.13770  -1.13717  -1.13704
  Beta  occ. eigenvalues --   -1.13697  -1.13690  -1.13660  -1.13631  -1.13375
  Beta  occ. eigenvalues --   -1.13368  -1.13358  -1.12841  -1.12840  -1.12810
  Beta  occ. eigenvalues --   -0.15135  -0.13577  -0.12549
  Beta virt. eigenvalues --   -0.07952  -0.07117  -0.04624  -0.04037  -0.03183
  Beta virt. eigenvalues --   -0.03004  -0.02328  -0.02091  -0.01731  -0.00960
  Beta virt. eigenvalues --   -0.00595  -0.00313   0.00053   0.00266   0.00451

 Mulliken charges and spin densities:
               1          2
     1  Na  -0.114446   0.056354
     2  Na   0.081421   0.192335
     3  Na  -0.452273   0.264132
     4  Na   0.060957   0.186747
     5  Na   0.114004  -0.044716
     6  Na  -0.025984   0.118912
     7  Na   0.336320   0.226238
 Sum of Mulliken charges =  -0.00000   1.00000

 Dipole moment (field-independent basis, Debye):
    X=              0.8777    Y=             -0.7961    Z=              0.0812  Tot=              1.1877
 Quadrupole moment (field-independent basis, Debye-Ang):
   XX=            -61.7209   YY=            -69.0673   ZZ=            -69.9562
   XY=              3.1750   XZ=             -0.3240   YZ=              1.9487

 Normal termination of Gaussian 16 at Sun Dec  3 12:41:20 2023.
