 Gaussian 16, Revision B.01,
 Gaussian 16:  ES64L-G16RevB.01 20-Dec-2017

 -------------------------
 #P B3LYP/6-311+g(d) force
 -------------------------

 -----
 DPGEN
 -----
 Symbolic Z-matrix:
 Charge =  0 Multiplicity = 2

                         Standard orientation:
 ---------------------------------------------------------------------
 Center     Atomic      Atomic             Coordinates (Angstroms)
 Number     Number       Type             X           Y           Z
 ---------------------------------------------------------------------
      1         11           0       -2.482940    1.812942    0.555747
      2         11           0        1.540974   -2.043799   -0.860392
      3         11           0        3.990828    0.311684    0.685917
      4         11           0       -3.685595   -1.238762    0.255630
      5         11           0        0.304042   -0.603996    1.862831
      6         11           0       -0.829058    0.010985   -1.631592
      7         11           0        1.161750    1.750946   -0.868141
 ---------------------------------------------------------------------

 SCF Done:  E(UB3LYP) =  -1136.11158021     A.U. after   34 cycles

 The electronic state is 2-A.
 Alpha  occ. eigenvalues --  -38.45300 -38.45221 -38.44483 -38.44136 -38.43865
 Alpha  occ. eigenvalues --  -38.43230 -38.42348  -2.21091  -2.21016  -2.20280
 Alpha  occ. eigenvalues --   -2.19997  -2.19750  -2.19278  -2.18286  -1.14755
 Alpha  occ. eigenvalues --   -1.14741  -1.14733  -1.14700  -1.14698  -1.14619
 Alpha  occ. eigenvalues --   -1.13952  -1.13951  -1.13908  -1.13679  -1.13666
 Alpha  occ. eigenvalues --   -1.13597  -1.13456  -1.13386  -1.13360  -1.13091
 Alpha  occ. eigenvalues --   -1.12888  -1.12887  -1.12003  -1.11932  -1.11863
 Alpha  occ. eigenvalues --   -0.18564  -0.14133  -0.11381  -0.10636
 Alpha virt. eigenvalues --   -0.07410  -0.05262  -0.04245  -0.03101  -0.02973
 Alpha virt. eigenvalues --   -0.02383  -0.02293  -0.01209  -0.00922  -0.00367
 Alpha virt. eigenvalues --   -0.00020   0.00156   0.00323   0.00611   0.00701

  Beta  occ. eigenvalues --  -38.45246 -38.45232 -38.44468 -38.44113 -38.43809
  Beta  occ. eigenvalues --  -38.43167 -38.42339  -2.21036  -2.20990  -2.20253
  Beta  occ. eigenvalues --   -2.19954  -2.19649  -2.19170  -2.18275  -1.14741
  Beta  occ. eigenvalues --   -1.14704  -1.14681  -1.14671  -1.14642  -1.14627
  Beta  occ. eigenvalues --   -1.13937  -1.13922  -1.13892  -1.13651  -1.13640
  Beta  occ. eigenvalues --   -1.13556  -1.13377  -1.13315  -1.13282  -1.13017
  Beta  occ. eigenvalues --   -1.12822  -1.12777  -1.11973  -1.11910  -1.11859
  Beta  occ. eigenvalues --   -0.17897  -0.13710  -0.10560
  Beta virt. eigenvalues --   -0.07545  -0.07098  -0.04937  -0.03841  -0.02890
  Beta virt. eigenvalues --   -0.02748  -0.01940  -0.01584  -0.01034  -0.00604
  Beta virt. eigenvalues --   -0.00184   0.00069   0.00229   0.00410   0.00672

 Mulliken charges and spin densities:
               1          2
     1  Na   0.024777   0.173788
     2  Na  -0.137149  -0.108207
     3  Na   0.189021   0.322612
     4  Na   0.002195   0.006091
     5  Na  -0.229065   0.156213
     6  Na   0.770444   0.470473
     7  Na  -0.620222  -0.020970
 Sum of Mulliken charges =  -0.00000   1.00000

 Dipole moment (field-independent basis, Debye):
    X=              0.2518    Y=             -0.0815    Z=              0.5112  Tot=              0.5757
 Quadrupole moment (field-independent basis, Debye-Ang):
   XX=            -50.3299   YY=            -74.1145   ZZ=            -70.7439
   XY=              0.0190   XZ=             -0.1133   YZ=              6.9926

 Normal termination of Gaussian 16 at Thu Dec  7 08:30:08 2023.
