 Gaussian 16, Revision B.01,
 Gaussian 16:  ES64L-G16RevB.01 20-Dec-2017

 -------------------------
 #P B3LYP/6-311+g(d) force
 -------------------------

 -----
 DPGEN
 -----
 Symbolic Z-matrix:
 Charge =  0 Multiplicity = 2

                         Standard orientation:
 ---------------------------------------------------------------------
 Center     Atomic      Atomic             Coordinates (Angstroms)
 Number     Number       Type             X           Y           Z
 ---------------------------------------------------------------------
      1         11           0        0.064270    1.740546    0.473352
      2         11           0        2.703748    3.927693    0.109117
      3         11           0        2.703577    0.205372   -1.004121
      4         11           0        0.938320   -2.109493    1.371421
      5         11           0       -2.387758   -0.916978    0.517892
      6         11           0        2.753786   -3.230816   -0.798108
      7         11           0       -6.775943    0.383675   -0.669554
 ---------------------------------------------------------------------

 SCF Done:  E(UB3LYP) =  -1136.11552569     A.U. after   20 cycles

 The electronic state is 2-A.
 Alpha  occ. eigenvalues --  -38.45206 -38.44708 -38.44506 -38.44453 -38.43816
 Alpha  occ. eigenvalues --  -38.43694 -38.43096  -2.20984  -2.20523  -2.20305
 Alpha  occ. eigenvalues --   -2.20277  -2.19651  -2.19545  -2.18866  -1.14605
 Alpha  occ. eigenvalues --   -1.14605  -1.14586  -1.14242  -1.14225  -1.14096
 Alpha  occ. eigenvalues --   -1.14013  -1.13976  -1.13950  -1.13948  -1.13925
 Alpha  occ. eigenvalues --   -1.13896  -1.13373  -1.13351  -1.13218  -1.13218
 Alpha  occ. eigenvalues --   -1.13190  -1.13172  -1.12551  -1.12542  -1.12500
 Alpha  occ. eigenvalues --   -0.16727  -0.13011  -0.12829  -0.11231
 Alpha virt. eigenvalues --   -0.06446  -0.05380  -0.04866  -0.03565  -0.02566
 Alpha virt. eigenvalues --   -0.02301  -0.02193  -0.01768  -0.01488  -0.01087
 Alpha virt. eigenvalues --   -0.00390  -0.00218   0.00113   0.00330   0.00452

  Beta  occ. eigenvalues --  -38.45042 -38.44699 -38.44504 -38.44444 -38.43809
  Beta  occ. eigenvalues --  -38.43686 -38.43106  -2.20678  -2.20508  -2.20289
  Beta  occ. eigenvalues --   -2.20274  -2.19638  -2.19529  -2.18887  -1.14398
  Beta  occ. eigenvalues --   -1.14398  -1.14379  -1.14229  -1.14217  -1.14084
  Beta  occ. eigenvalues --   -1.14002  -1.13966  -1.13947  -1.13945  -1.13905
  Beta  occ. eigenvalues --   -1.13894  -1.13364  -1.13342  -1.13208  -1.13205
  Beta  occ. eigenvalues --   -1.13179  -1.13159  -1.12568  -1.12560  -1.12493
  Beta  occ. eigenvalues --   -0.16546  -0.12986  -0.11770
  Beta virt. eigenvalues --   -0.07176  -0.06383  -0.05010  -0.04750  -0.03406
  Beta virt. eigenvalues --   -0.02490  -0.02022  -0.01846  -0.01329  -0.00852
  Beta virt. eigenvalues --   -0.00566  -0.00093   0.00064   0.00258   0.00465

 Mulliken charges and spin densities:
               1          2
     1  Na  -0.788420  -0.010969
     2  Na   0.792144   0.032928
     3  Na  -0.538205   0.082300
     4  Na   0.584744  -0.027289
     5  Na  -0.656257   0.096056
     6  Na   0.704347   0.036405
     7  Na  -0.098353   0.790569
 Sum of Mulliken charges =  -0.00000   1.00000

 Dipole moment (field-independent basis, Debye):
    X=              1.7455    Y=              0.3640    Z=             -0.0738  Tot=              1.7846
 Quadrupole moment (field-independent basis, Debye-Ang):
   XX=            -72.2804   YY=            -57.2602   ZZ=            -69.6323
   XY=              2.7744   XZ=              0.4459   YZ=              0.9613

 Normal termination of Gaussian 16 at Wed Nov 29 02:50:49 2023.
