 Gaussian 16, Revision B.01,
 Gaussian 16:  ES64L-G16RevB.01 20-Dec-2017

 -------------------------
 #P B3LYP/6-311+g(d) force
 -------------------------

 -----
 DPGEN
 -----
 Symbolic Z-matrix:
 Charge =  0 Multiplicity = 2

                         Standard orientation:
 ---------------------------------------------------------------------
 Center     Atomic      Atomic             Coordinates (Angstroms)
 Number     Number       Type             X           Y           Z
 ---------------------------------------------------------------------
      1         11           0        0.836872    2.921600    0.427754
      2         11           0       -0.397856    0.050256   -1.523618
      3         11           0       -2.316068   -2.009647    0.051329
      4         11           0        0.184120   -0.525140    1.811022
      5         11           0       -3.730359    0.944333   -0.142730
      6         11           0        2.629198   -2.423760   -0.192146
      7         11           0        2.794093    1.042359   -0.431612
 ---------------------------------------------------------------------

 SCF Done:  E(UB3LYP) =  -1136.12185349     A.U. after   24 cycles

 The electronic state is 2-A.
 Alpha  occ. eigenvalues --  -38.45302 -38.44401 -38.44265 -38.43864 -38.43622
 Alpha  occ. eigenvalues --  -38.43165 -38.43021  -2.21082  -2.20270  -2.20162
 Alpha  occ. eigenvalues --   -2.19790  -2.19410  -2.19066  -2.18901  -1.14752
 Alpha  occ. eigenvalues --   -1.14740  -1.14719  -1.13997  -1.13936  -1.13884
 Alpha  occ. eigenvalues --   -1.13866  -1.13805  -1.13765  -1.13540  -1.13446
 Alpha  occ. eigenvalues --   -1.13416  -1.13085  -1.13071  -1.13043  -1.12755
 Alpha  occ. eigenvalues --   -1.12693  -1.12668  -1.12586  -1.12528  -1.12525
 Alpha  occ. eigenvalues --   -0.18251  -0.13939  -0.11707  -0.10231
 Alpha virt. eigenvalues --   -0.06729  -0.05595  -0.04247  -0.03454  -0.02619
 Alpha virt. eigenvalues --   -0.02327  -0.01989  -0.01471  -0.00601  -0.00393
 Alpha virt. eigenvalues --   -0.00111   0.00184   0.00574   0.00683   0.00717

  Beta  occ. eigenvalues --  -38.45296 -38.44391 -38.44227 -38.43851 -38.43615
  Beta  occ. eigenvalues --  -38.43076 -38.43012  -2.21072  -2.20255  -2.20093
  Beta  occ. eigenvalues --   -2.19769  -2.19399  -2.18901  -2.18887  -1.14746
  Beta  occ. eigenvalues --   -1.14723  -1.14712  -1.13983  -1.13910  -1.13861
  Beta  occ. eigenvalues --   -1.13808  -1.13762  -1.13712  -1.13520  -1.13414
  Beta  occ. eigenvalues --   -1.13408  -1.13080  -1.13048  -1.13038  -1.12646
  Beta  occ. eigenvalues --   -1.12582  -1.12573  -1.12551  -1.12519  -1.12496
  Beta  occ. eigenvalues --   -0.17590  -0.13670  -0.11496
  Beta virt. eigenvalues --   -0.06678  -0.06370  -0.05521  -0.04183  -0.02771
  Beta virt. eigenvalues --   -0.02311  -0.01810  -0.01432  -0.01151  -0.00559
  Beta virt. eigenvalues --   -0.00365   0.00061   0.00251   0.00650   0.00726

 Mulliken charges and spin densities:
               1          2
     1  Na  -0.230660   0.065886
     2  Na  -0.010109   0.301523
     3  Na   0.180751  -0.017180
     4  Na  -0.030834   0.486462
     5  Na  -0.012858   0.032508
     6  Na  -0.111841   0.006437
     7  Na   0.215551   0.124363
 Sum of Mulliken charges =  -0.00000   1.00000

 Dipole moment (field-independent basis, Debye):
    X=             -1.3909    Y=             -0.1009    Z=              0.0834  Tot=              1.3970
 Quadrupole moment (field-independent basis, Debye-Ang):
   XX=            -52.7312   YY=            -65.2233   ZZ=            -75.9579
   XY=             -1.9470   XZ=             -1.2086   YZ=              1.6157

 Normal termination of Gaussian 16 at Tue Dec  5 16:04:28 2023.
