 Gaussian 16, Revision B.01,
 Gaussian 16:  ES64L-G16RevB.01 20-Dec-2017

 -------------------------
 #P B3LYP/6-311+g(d) force
 -------------------------

 -----
 DPGEN
 -----
 Symbolic Z-matrix:
 Charge =  0 Multiplicity = 2

                         Standard orientation:
 ---------------------------------------------------------------------
 Center     Atomic      Atomic             Coordinates (Angstroms)
 Number     Number       Type             X           Y           Z
 ---------------------------------------------------------------------
      1         11           0        2.884905   -0.533583    0.062476
      2         11           0        0.048541   -0.067557    2.087376
      3         11           0       -2.351059    1.917964    0.240593
      4         11           0        0.797901   -2.744355   -0.235190
      5         11           0       -2.639558   -1.461897   -0.108706
      6         11           0        1.635868    2.718544   -0.291143
      7         11           0       -0.376598    0.170884   -1.755406
 ---------------------------------------------------------------------

 SCF Done:  E(UB3LYP) =  -1136.13788969     A.U. after   19 cycles

 The electronic state is 2-A.
 Alpha  occ. eigenvalues --  -38.43958 -38.43799 -38.43769 -38.43691 -38.43555
 Alpha  occ. eigenvalues --  -38.43373 -38.43180  -2.19799  -2.19681  -2.19630
 Alpha  occ. eigenvalues --   -2.19570  -2.19356  -2.19327  -2.19065  -1.13490
 Alpha  occ. eigenvalues --   -1.13471  -1.13432  -1.13351  -1.13328  -1.13317
 Alpha  occ. eigenvalues --   -1.13305  -1.13280  -1.13276  -1.13255  -1.13226
 Alpha  occ. eigenvalues --   -1.13211  -1.13036  -1.13013  -1.13002  -1.12997
 Alpha  occ. eigenvalues --   -1.12963  -1.12939  -1.12739  -1.12714  -1.12700
 Alpha  occ. eigenvalues --   -0.18685  -0.13156  -0.12312  -0.10949
 Alpha virt. eigenvalues --   -0.05517  -0.05233  -0.04629  -0.03378  -0.02882
 Alpha virt. eigenvalues --   -0.02740  -0.01357  -0.01158  -0.00360  -0.00210
 Alpha virt. eigenvalues --   -0.00032   0.00376   0.00815   0.00869   0.00915

  Beta  occ. eigenvalues --  -38.43952 -38.43763 -38.43705 -38.43688 -38.43553
  Beta  occ. eigenvalues --  -38.43306 -38.43174  -2.19790  -2.19623  -2.19568
  Beta  occ. eigenvalues --   -2.19506  -2.19353  -2.19203  -2.19058  -1.13484
  Beta  occ. eigenvalues --   -1.13439  -1.13430  -1.13315  -1.13288  -1.13269
  Beta  occ. eigenvalues --   -1.13251  -1.13239  -1.13214  -1.13200  -1.13181
  Beta  occ. eigenvalues --   -1.13165  -1.13020  -1.13006  -1.12999  -1.12921
  Beta  occ. eigenvalues --   -1.12876  -1.12850  -1.12735  -1.12701  -1.12680
  Beta  occ. eigenvalues --   -0.17936  -0.12932  -0.12078
  Beta virt. eigenvalues --   -0.07025  -0.05514  -0.05154  -0.04596  -0.02554
  Beta virt. eigenvalues --   -0.02141  -0.01684  -0.01268  -0.01076  -0.00409
  Beta virt. eigenvalues --   -0.00264   0.00111   0.00398   0.00857   0.00908

 Mulliken charges and spin densities:
               1          2
     1  Na   0.136559  -0.003021
     2  Na  -0.434982   0.680849
     3  Na   0.118335  -0.057562
     4  Na   0.115823  -0.047774
     5  Na   0.277008  -0.036011
     6  Na   0.014290  -0.095127
     7  Na  -0.227033   0.558646
 Sum of Mulliken charges =  -0.00000   1.00000

 Dipole moment (field-independent basis, Debye):
    X=             -0.3220    Y=              0.1838    Z=              0.1591  Tot=              0.4035
 Quadrupole moment (field-independent basis, Debye-Ang):
   XX=            -58.7484   YY=            -62.6040   ZZ=            -73.2019
   XY=              0.1277   XZ=             -0.7320   YZ=              0.5614

 Normal termination of Gaussian 16 at Wed Nov 29 16:35:27 2023.
