 Gaussian 16, Revision B.01,
 Gaussian 16:  ES64L-G16RevB.01 20-Dec-2017

 -------------------------
 #P B3LYP/6-311+g(d) force
 -------------------------

 -----
 DPGEN
 -----
 Symbolic Z-matrix:
 Charge =  0 Multiplicity = 2

                         Standard orientation:
 ---------------------------------------------------------------------
 Center     Atomic      Atomic             Coordinates (Angstroms)
 Number     Number       Type             X           Y           Z
 ---------------------------------------------------------------------
      1         11           0        2.743104    1.310349   -0.340653
      2         11           0       -3.326969    0.105987    0.299142
      3         11           0        2.498038   -2.266467    0.042979
      4         11           0       -0.335458    0.287660   -1.348451
      5         11           0       -1.442333   -2.529308   -0.595245
      6         11           0       -0.354835    3.152165   -0.151999
      7         11           0        0.218454   -0.060384    2.094227
 ---------------------------------------------------------------------

 SCF Done:  E(UB3LYP) =  -1136.13347081     A.U. after   21 cycles

 The electronic state is 2-A.
 Alpha  occ. eigenvalues --  -38.44374 -38.44079 -38.43817 -38.43661 -38.43586
 Alpha  occ. eigenvalues --  -38.43582 -38.42959  -2.20186  -2.19908  -2.19596
 Alpha  occ. eigenvalues --   -2.19517  -2.19444  -2.19415  -2.18978  -1.13855
 Alpha  occ. eigenvalues --   -1.13846  -1.13831  -1.13601  -1.13576  -1.13526
 Alpha  occ. eigenvalues --   -1.13270  -1.13253  -1.13249  -1.13241  -1.13165
 Alpha  occ. eigenvalues --   -1.13138  -1.13127  -1.13118  -1.13074  -1.13062
 Alpha  occ. eigenvalues --   -1.13048  -1.13039  -1.12663  -1.12623  -1.12595
 Alpha  occ. eigenvalues --   -0.18300  -0.13067  -0.12295  -0.10402
 Alpha virt. eigenvalues --   -0.05798  -0.05350  -0.04880  -0.03113  -0.02688
 Alpha virt. eigenvalues --   -0.02341  -0.01712  -0.01342  -0.00574  -0.00531
 Alpha virt. eigenvalues --   -0.00009   0.00318   0.00766   0.00795   0.00841

  Beta  occ. eigenvalues --  -38.44370 -38.44071 -38.43818 -38.43644 -38.43579
  Beta  occ. eigenvalues --  -38.43486 -38.42913  -2.20181  -2.19896  -2.19601
  Beta  occ. eigenvalues --   -2.19488  -2.19413  -2.19260  -2.18897  -1.13848
  Beta  occ. eigenvalues --   -1.13842  -1.13817  -1.13586  -1.13557  -1.13519
  Beta  occ. eigenvalues --   -1.13264  -1.13251  -1.13249  -1.13218  -1.13132
  Beta  occ. eigenvalues --   -1.13129  -1.13110  -1.13055  -1.13033  -1.12995
  Beta  occ. eigenvalues --   -1.12944  -1.12914  -1.12595  -1.12562  -1.12537
  Beta  occ. eigenvalues --   -0.17606  -0.12848  -0.12085
  Beta virt. eigenvalues --   -0.06526  -0.05713  -0.05339  -0.04809  -0.02392
  Beta virt. eigenvalues --   -0.02004  -0.01605  -0.01321  -0.01259  -0.00598
  Beta virt. eigenvalues --   -0.00530   0.00146   0.00364   0.00794   0.00830

 Mulliken charges and spin densities:
               1          2
     1  Na   0.130109  -0.020328
     2  Na   0.128499   0.078954
     3  Na   0.009424  -0.034615
     4  Na  -0.156415   0.149348
     5  Na   0.174292   0.017893
     6  Na   0.194529   0.008670
     7  Na  -0.480439   0.800079
 Sum of Mulliken charges =  -0.00000   1.00000

 Dipole moment (field-independent basis, Debye):
    X=             -0.1825    Y=              0.1174    Z=              0.2108  Tot=              0.3025
 Quadrupole moment (field-independent basis, Debye-Ang):
   XX=            -54.8980   YY=            -60.6326   ZZ=            -76.4509
   XY=             -0.8793   XZ=             -1.5920   YZ=              0.9440

 Normal termination of Gaussian 16 at Thu Dec  7 15:27:38 2023.
