 Gaussian 16, Revision B.01,
 Gaussian 16:  ES64L-G16RevB.01 20-Dec-2017

 -------------------------
 #P B3LYP/6-311+g(d) force
 -------------------------

 -----
 DPGEN
 -----
 Symbolic Z-matrix:
 Charge =  0 Multiplicity = 2

                         Standard orientation:
 ---------------------------------------------------------------------
 Center     Atomic      Atomic             Coordinates (Angstroms)
 Number     Number       Type             X           Y           Z
 ---------------------------------------------------------------------
      1         11           0        2.562073    1.550586    0.121992
      2         11           0       -0.519793    0.433911    1.910953
      3         11           0       -2.881518   -1.812023    0.245307
      4         11           0        0.670522   -2.362473    0.568558
      5         11           0        3.658054   -1.290190   -1.141120
      6         11           0       -3.032318    0.417180   -1.708973
      7         11           0       -0.457019    3.063009    0.003281
 ---------------------------------------------------------------------

 SCF Done:  E(UB3LYP) =  -1136.12548227     A.U. after   20 cycles

 The electronic state is 2-A.
 Alpha  occ. eigenvalues --  -38.44563 -38.44201 -38.44155 -38.44024 -38.43925
 Alpha  occ. eigenvalues --  -38.43741 -38.43380  -2.20404  -2.20095  -2.19983
 Alpha  occ. eigenvalues --   -2.19881  -2.19745  -2.19556  -2.19210  -1.14123
 Alpha  occ. eigenvalues --   -1.14038  -1.14005  -1.13787  -1.13752  -1.13704
 Alpha  occ. eigenvalues --   -1.13678  -1.13652  -1.13617  -1.13557  -1.13538
 Alpha  occ. eigenvalues --   -1.13510  -1.13441  -1.13420  -1.13346  -1.13212
 Alpha  occ. eigenvalues --   -1.13208  -1.13177  -1.12887  -1.12873  -1.12843
 Alpha  occ. eigenvalues --   -0.17491  -0.13834  -0.12370  -0.11168
 Alpha virt. eigenvalues --   -0.05909  -0.05301  -0.04752  -0.03845  -0.03231
 Alpha virt. eigenvalues --   -0.02269  -0.01582  -0.00894  -0.00750  -0.00629
 Alpha virt. eigenvalues --   -0.00242   0.00282   0.00391   0.00528   0.00655

  Beta  occ. eigenvalues --  -38.44484 -38.44146 -38.44134 -38.44020 -38.43904
  Beta  occ. eigenvalues --  -38.43702 -38.43379  -2.20256  -2.19974  -2.19968
  Beta  occ. eigenvalues --   -2.19879  -2.19710  -2.19484  -2.19211  -1.14030
  Beta  occ. eigenvalues --   -1.13938  -1.13903  -1.13704  -1.13672  -1.13667
  Beta  occ. eigenvalues --   -1.13647  -1.13611  -1.13586  -1.13546  -1.13542
  Beta  occ. eigenvalues --   -1.13470  -1.13407  -1.13397  -1.13313  -1.13160
  Beta  occ. eigenvalues --   -1.13158  -1.13135  -1.12883  -1.12876  -1.12838
  Beta  occ. eigenvalues --   -0.16866  -0.13170  -0.12180
  Beta virt. eigenvalues --   -0.07653  -0.05784  -0.05013  -0.04341  -0.03504
  Beta virt. eigenvalues --   -0.02590  -0.01789  -0.01438  -0.00855  -0.00689
  Beta virt. eigenvalues --   -0.00415   0.00038   0.00430   0.00585   0.00654

 Mulliken charges and spin densities:
               1          2
     1  Na  -0.433790  -0.025918
     2  Na   0.471827   0.186291
     3  Na   0.263713   0.178528
     4  Na  -0.590340  -0.093015
     5  Na   0.585107   0.300519
     6  Na  -0.275155   0.313932
     7  Na  -0.021362   0.139664
 Sum of Mulliken charges =  -0.00000   1.00000

 Dipole moment (field-independent basis, Debye):
    X=             -0.1827    Y=              0.0276    Z=             -0.1300  Tot=              0.2259
 Quadrupole moment (field-independent basis, Debye-Ang):
   XX=            -65.6877   YY=            -65.9759   ZZ=            -68.1952
   XY=              0.5207   XZ=             -1.8182   YZ=             -1.1184

 Normal termination of Gaussian 16 at Tue Nov 28 19:31:59 2023.
