 Gaussian 16, Revision B.01,
 Gaussian 16:  ES64L-G16RevB.01 20-Dec-2017

 -------------------------
 #P B3LYP/6-311+g(d) force
 -------------------------

 -----
 DPGEN
 -----
 Symbolic Z-matrix:
 Charge =  0 Multiplicity = 2

                         Standard orientation:
 ---------------------------------------------------------------------
 Center     Atomic      Atomic             Coordinates (Angstroms)
 Number     Number       Type             X           Y           Z
 ---------------------------------------------------------------------
      1         11           0       -2.275363   -1.850160   -0.406229
      2         11           0        2.974671   -0.036450    0.021154
      3         11           0        0.874205    2.786511   -0.173058
      4         11           0        0.033054    0.086410   -1.865704
      5         11           0        0.946834   -2.570553    0.140264
      6         11           0       -0.116959   -0.106227    2.007645
      7         11           0       -2.436444    1.690470    0.275928
 ---------------------------------------------------------------------

 SCF Done:  E(UB3LYP) =  -1136.14134625     A.U. after   18 cycles

 The electronic state is 2-A.
 Alpha  occ. eigenvalues --  -38.43713 -38.43569 -38.43485 -38.43464 -38.43431
 Alpha  occ. eigenvalues --  -38.43428 -38.43194  -2.19639  -2.19446  -2.19416
 Alpha  occ. eigenvalues --   -2.19330  -2.19298  -2.19284  -2.19112  -1.13314
 Alpha  occ. eigenvalues --   -1.13285  -1.13258  -1.13134  -1.13116  -1.13098
 Alpha  occ. eigenvalues --   -1.13091  -1.13059  -1.13055  -1.13011  -1.12994
 Alpha  occ. eigenvalues --   -1.12985  -1.12968  -1.12958  -1.12950  -1.12936
 Alpha  occ. eigenvalues --   -1.12931  -1.12901  -1.12787  -1.12769  -1.12729
 Alpha  occ. eigenvalues --   -0.18989  -0.12806  -0.12724  -0.11190
 Alpha virt. eigenvalues --   -0.05157  -0.04945  -0.04759  -0.03231  -0.03168
 Alpha virt. eigenvalues --   -0.02863  -0.01189  -0.01062  -0.00169  -0.00060
 Alpha virt. eigenvalues --    0.00011   0.00383   0.00885   0.00939   0.00948

  Beta  occ. eigenvalues --  -38.43624 -38.43562 -38.43461 -38.43424 -38.43421
  Beta  occ. eigenvalues --  -38.43406 -38.43186  -2.19475  -2.19407  -2.19329
  Beta  occ. eigenvalues --   -2.19302  -2.19284  -2.19279  -2.19102  -1.13210
  Beta  occ. eigenvalues --   -1.13171  -1.13146  -1.13081  -1.13057  -1.13054
  Beta  occ. eigenvalues --   -1.13049  -1.13031  -1.13019  -1.12988  -1.12975
  Beta  occ. eigenvalues --   -1.12958  -1.12947  -1.12931  -1.12926  -1.12919
  Beta  occ. eigenvalues --   -1.12905  -1.12897  -1.12778  -1.12740  -1.12718
  Beta  occ. eigenvalues --   -0.18225  -0.12551  -0.12462
  Beta virt. eigenvalues --   -0.07245  -0.05158  -0.04919  -0.04711  -0.02407
  Beta virt. eigenvalues --   -0.02363  -0.01798  -0.01108  -0.00981  -0.00199
  Beta virt. eigenvalues --   -0.00100   0.00101   0.00394   0.00912   0.00937

 Mulliken charges and spin densities:
               1          2
     1  Na   0.188862  -0.029464
     2  Na   0.078021  -0.094813
     3  Na   0.119008  -0.097474
     4  Na  -0.346432   0.616121
     5  Na   0.304454  -0.004595
     6  Na  -0.445986   0.668096
     7  Na   0.102073  -0.057871
 Sum of Mulliken charges =  -0.00000   1.00000

 Dipole moment (field-independent basis, Debye):
    X=             -0.0871    Y=              0.1406    Z=              0.0703  Tot=              0.1797
 Quadrupole moment (field-independent basis, Debye-Ang):
   XX=            -60.2587   YY=            -62.6121   ZZ=            -71.8566
   XY=              0.2619   XZ=              0.3473   YZ=              0.4898

 Normal termination of Gaussian 16 at Wed Dec  6 00:38:46 2023.
