 Gaussian 16, Revision B.01,
 Gaussian 16:  ES64L-G16RevB.01 20-Dec-2017

 -------------------------
 #P B3LYP/6-311+g(d) force
 -------------------------

 -----
 DPGEN
 -----
 Symbolic Z-matrix:
 Charge =  0 Multiplicity = 2

                         Standard orientation:
 ---------------------------------------------------------------------
 Center     Atomic      Atomic             Coordinates (Angstroms)
 Number     Number       Type             X           Y           Z
 ---------------------------------------------------------------------
      1         11           0       -1.989475   -0.938948    1.490058
      2         11           0       -3.506516    2.143197   -0.324049
      3         11           0        3.184882    0.658729    0.247107
      4         11           0       -4.299219   -2.312435   -0.515302
      5         11           0        6.238897   -0.740977   -0.108058
      6         11           0       -0.372427    2.378545   -0.078274
      7         11           0        0.743857   -1.188111   -0.711482
 ---------------------------------------------------------------------

 SCF Done:  E(UB3LYP) =  -1136.11384208     A.U. after   22 cycles

 The electronic state is 2-A.
 Alpha  occ. eigenvalues --  -38.45229 -38.44743 -38.44604 -38.44134 -38.44050
 Alpha  occ. eigenvalues --  -38.43987 -38.42989  -2.21062  -2.20541  -2.20418
 Alpha  occ. eigenvalues --   -2.19958  -2.19816  -2.19809  -2.18821  -1.14731
 Alpha  occ. eigenvalues --   -1.14694  -1.14687  -1.14177  -1.14176  -1.14158
 Alpha  occ. eigenvalues --   -1.14109  -1.14077  -1.14041  -1.13618  -1.13610
 Alpha  occ. eigenvalues --   -1.13572  -1.13514  -1.13497  -1.13481  -1.13472
 Alpha  occ. eigenvalues --   -1.13449  -1.13444  -1.12510  -1.12495  -1.12457
 Alpha  occ. eigenvalues --   -0.16912  -0.14071  -0.11558  -0.11434
 Alpha virt. eigenvalues --   -0.06342  -0.05759  -0.04737  -0.03342  -0.02974
 Alpha virt. eigenvalues --   -0.02752  -0.01783  -0.01609  -0.01182  -0.00831
 Alpha virt. eigenvalues --   -0.00587  -0.00034   0.00075   0.00365   0.00557

  Beta  occ. eigenvalues --  -38.45167 -38.44644 -38.44594 -38.44077 -38.44057
  Beta  occ. eigenvalues --  -38.43991 -38.42991  -2.20948  -2.20402  -2.20357
  Beta  occ. eigenvalues --   -2.19851  -2.19829  -2.19822  -2.18829  -1.14649
  Beta  occ. eigenvalues --   -1.14625  -1.14604  -1.14088  -1.14053  -1.14051
  Beta  occ. eigenvalues --   -1.14050  -1.14039  -1.14038  -1.13549  -1.13539
  Beta  occ. eigenvalues --   -1.13524  -1.13512  -1.13496  -1.13490  -1.13477
  Beta  occ. eigenvalues --   -1.13458  -1.13409  -1.12519  -1.12507  -1.12434
  Beta  occ. eigenvalues --   -0.16318  -0.13377  -0.11199
  Beta virt. eigenvalues --   -0.08118  -0.06072  -0.05457  -0.04223  -0.03079
  Beta virt. eigenvalues --   -0.02804  -0.02388  -0.01447  -0.01315  -0.00806
  Beta virt. eigenvalues --   -0.00584  -0.00483   0.00058   0.00247   0.00439

 Mulliken charges and spin densities:
               1          2
     1  Na  -0.018999   0.046147
     2  Na   0.175273   0.284825
     3  Na  -0.426399   0.333534
     4  Na   0.127552  -0.069594
     5  Na   0.244618   0.225567
     6  Na   0.068317   0.034194
     7  Na  -0.170362   0.145327
 Sum of Mulliken charges =  -0.00000   1.00000

 Dipole moment (field-independent basis, Debye):
    X=             -0.0134    Y=             -0.6278    Z=             -0.4151  Tot=              0.7527
 Quadrupole moment (field-independent basis, Debye-Ang):
   XX=            -59.2202   YY=            -74.4785   ZZ=            -67.0894
   XY=             -1.5973   XZ=              2.9344   YZ=              3.5148

 Normal termination of Gaussian 16 at Tue Nov 28 19:46:26 2023.
