 Gaussian 16, Revision B.01,
 Gaussian 16:  ES64L-G16RevB.01 20-Dec-2017

 -------------------------
 #P B3LYP/6-311+g(d) force
 -------------------------

 -----
 DPGEN
 -----
 Symbolic Z-matrix:
 Charge =  0 Multiplicity = 2

                         Standard orientation:
 ---------------------------------------------------------------------
 Center     Atomic      Atomic             Coordinates (Angstroms)
 Number     Number       Type             X           Y           Z
 ---------------------------------------------------------------------
      1         11           0       -2.721889   -2.269182   -0.310847
      2         11           0        0.088795    2.880447   -0.345618
      3         11           0        2.793445    1.229710    0.229391
      4         11           0        0.078667   -0.505524    1.910657
      5         11           0        2.852481   -2.372913   -0.256046
      6         11           0       -2.964128    1.031727    0.363966
      7         11           0       -0.127371    0.005733   -1.591502
 ---------------------------------------------------------------------

 SCF Done:  E(UB3LYP) =  -1136.12921733     A.U. after   21 cycles

 The electronic state is 2-A.
 Alpha  occ. eigenvalues --  -38.44455 -38.44368 -38.44287 -38.44208 -38.43697
 Alpha  occ. eigenvalues --  -38.43444 -38.42739  -2.20286  -2.20159  -2.20134
 Alpha  occ. eigenvalues --   -2.19963  -2.19547  -2.19371  -2.18627  -1.13956
 Alpha  occ. eigenvalues --   -1.13954  -1.13934  -1.13823  -1.13816  -1.13815
 Alpha  occ. eigenvalues --   -1.13806  -1.13793  -1.13765  -1.13634  -1.13629
 Alpha  occ. eigenvalues --   -1.13598  -1.13239  -1.13181  -1.13152  -1.13073
 Alpha  occ. eigenvalues --   -1.13022  -1.12981  -1.12315  -1.12283  -1.12261
 Alpha  occ. eigenvalues --   -0.18204  -0.13409  -0.11905  -0.10269
 Alpha virt. eigenvalues --   -0.06245  -0.05954  -0.04330  -0.03341  -0.02593
 Alpha virt. eigenvalues --   -0.02194  -0.01957  -0.01530  -0.00890  -0.00357
 Alpha virt. eigenvalues --   -0.00011   0.00301   0.00651   0.00695   0.00766

  Beta  occ. eigenvalues --  -38.44446 -38.44363 -38.44282 -38.44210 -38.43613
  Beta  occ. eigenvalues --  -38.43380 -38.42732  -2.20272  -2.20152  -2.20128
  Beta  occ. eigenvalues --   -2.19969  -2.19394  -2.19257  -2.18618  -1.13948
  Beta  occ. eigenvalues --   -1.13931  -1.13919  -1.13814  -1.13813  -1.13802
  Beta  occ. eigenvalues --   -1.13788  -1.13779  -1.13766  -1.13636  -1.13627
  Beta  occ. eigenvalues --   -1.13603  -1.13136  -1.13070  -1.13040  -1.12989
  Beta  occ. eigenvalues --   -1.12935  -1.12899  -1.12304  -1.12278  -1.12236
  Beta  occ. eigenvalues --   -0.17490  -0.13227  -0.11710
  Beta virt. eigenvalues --   -0.06438  -0.06207  -0.05812  -0.04320  -0.02617
  Beta virt. eigenvalues --   -0.01921  -0.01848  -0.01519  -0.01129  -0.00935
  Beta virt. eigenvalues --   -0.00338   0.00137   0.00333   0.00677   0.00754

 Mulliken charges and spin densities:
               1          2
     1  Na  -0.037937  -0.054829
     2  Na   0.073028   0.014758
     3  Na   0.217350   0.039851
     4  Na  -0.264336   0.506372
     5  Na  -0.092589  -0.079498
     6  Na   0.210700   0.114512
     7  Na  -0.106216   0.458834
 Sum of Mulliken charges =  -0.00000   1.00000

 Dipole moment (field-independent basis, Debye):
    X=             -0.2625    Y=             -0.4053    Z=              0.1343  Tot=              0.5012
 Quadrupole moment (field-independent basis, Debye-Ang):
   XX=            -53.4063   YY=            -62.0230   ZZ=            -77.0015
   XY=              0.3280   XZ=             -0.4471   YZ=              1.7390

 Normal termination of Gaussian 16 at Tue Dec  5 13:24:32 2023.
