 Gaussian 16, Revision B.01,
 Gaussian 16:  ES64L-G16RevB.01 20-Dec-2017

 -------------------------
 #P B3LYP/6-311+g(d) force
 -------------------------

 -----
 DPGEN
 -----
 Symbolic Z-matrix:
 Charge =  0 Multiplicity = 2

                         Standard orientation:
 ---------------------------------------------------------------------
 Center     Atomic      Atomic             Coordinates (Angstroms)
 Number     Number       Type             X           Y           Z
 ---------------------------------------------------------------------
      1         11           0        0.677722    0.256208    1.117745
      2         11           0        2.027453    3.298197    0.134607
      3         11           0       -1.100364    2.572030   -0.460228
      4         11           0       -4.544096    0.109248   -0.253730
      5         11           0       -1.933874   -2.100121    0.144238
      6         11           0        1.220819   -3.088245   -0.033854
      7         11           0        3.652341   -1.047316   -0.648777
 ---------------------------------------------------------------------

 SCF Done:  E(UB3LYP) =  -1136.12439095     A.U. after   20 cycles

 The electronic state is 2-A.
 Alpha  occ. eigenvalues --  -38.45062 -38.44936 -38.44690 -38.43770 -38.43429
 Alpha  occ. eigenvalues --  -38.43270 -38.43231  -2.20872  -2.20744  -2.20562
 Alpha  occ. eigenvalues --   -2.19639  -2.19277  -2.19113  -2.19033  -1.14583
 Alpha  occ. eigenvalues --   -1.14557  -1.14500  -1.14416  -1.14396  -1.14357
 Alpha  occ. eigenvalues --   -1.14276  -1.14229  -1.14160  -1.13316  -1.13311
 Alpha  occ. eigenvalues --   -1.13293  -1.12960  -1.12947  -1.12909  -1.12759
 Alpha  occ. eigenvalues --   -1.12748  -1.12737  -1.12684  -1.12679  -1.12648
 Alpha  occ. eigenvalues --   -0.17258  -0.13754  -0.13149  -0.09997
 Alpha virt. eigenvalues --   -0.06277  -0.06182  -0.04541  -0.03406  -0.02787
 Alpha virt. eigenvalues --   -0.02105  -0.02052  -0.01726  -0.01217  -0.00715
 Alpha virt. eigenvalues --   -0.00155   0.00182   0.00495   0.00579   0.00624

  Beta  occ. eigenvalues --  -38.45061 -38.44939 -38.44678 -38.43754 -38.43403
  Beta  occ. eigenvalues --  -38.43190 -38.43161  -2.20872  -2.20751  -2.20541
  Beta  occ. eigenvalues --   -2.19616  -2.19236  -2.18963  -2.18900  -1.14580
  Beta  occ. eigenvalues --   -1.14559  -1.14495  -1.14421  -1.14399  -1.14354
  Beta  occ. eigenvalues --   -1.14264  -1.14211  -1.14142  -1.13305  -1.13289
  Beta  occ. eigenvalues --   -1.13238  -1.12939  -1.12923  -1.12840  -1.12657
  Beta  occ. eigenvalues --   -1.12647  -1.12638  -1.12593  -1.12589  -1.12562
  Beta  occ. eigenvalues --   -0.16910  -0.13366  -0.12389
  Beta virt. eigenvalues --   -0.06576  -0.06213  -0.06093  -0.04305  -0.02697
  Beta virt. eigenvalues --   -0.02542  -0.02015  -0.01763  -0.01384  -0.01104
  Beta virt. eigenvalues --   -0.00434   0.00148   0.00359   0.00512   0.00710

 Mulliken charges and spin densities:
               1          2
     1  Na  -0.390645   0.082874
     2  Na   0.579909  -0.009629
     3  Na  -0.263919  -0.051393
     4  Na   0.219348   0.527584
     5  Na  -0.201579   0.039133
     6  Na   0.155030  -0.049590
     7  Na  -0.098143   0.461021
 Sum of Mulliken charges =  -0.00000   1.00000

 Dipole moment (field-independent basis, Debye):
    X=              1.0802    Y=              1.5270    Z=              0.0716  Tot=              1.8718
 Quadrupole moment (field-independent basis, Debye-Ang):
   XX=            -74.9199   YY=            -56.5735   ZZ=            -70.8928
   XY=              5.9241   XZ=              0.7117   YZ=             -0.5502

 Normal termination of Gaussian 16 at Mon Dec  4 05:21:25 2023.
