 Gaussian 16, Revision B.01,
 Gaussian 16:  ES64L-G16RevB.01 20-Dec-2017

 -------------------------
 #P B3LYP/6-311+g(d) force
 -------------------------

 -----
 DPGEN
 -----
 Symbolic Z-matrix:
 Charge =  0 Multiplicity = 2

                         Standard orientation:
 ---------------------------------------------------------------------
 Center     Atomic      Atomic             Coordinates (Angstroms)
 Number     Number       Type             X           Y           Z
 ---------------------------------------------------------------------
      1         11           0        3.317117    0.028253    0.014092
      2         11           0        1.061459   -2.547231   -0.338941
      3         11           0       -0.024362    0.146883    1.972023
      4         11           0       -0.269991   -0.056588   -1.739326
      5         11           0        0.885535    2.694454    0.008903
      6         11           0       -2.358301   -1.902882    0.398904
      7         11           0       -2.611456    1.637110   -0.315654
 ---------------------------------------------------------------------

 SCF Done:  E(UB3LYP) =  -1136.13917595     A.U. after   19 cycles

 The electronic state is 2-A.
 Alpha  occ. eigenvalues --  -38.44141 -38.43814 -38.43629 -38.43591 -38.43311
 Alpha  occ. eigenvalues --  -38.43307 -38.43173  -2.19943  -2.19662  -2.19500
 Alpha  occ. eigenvalues --   -2.19478  -2.19286  -2.19165  -2.19051  -1.13616
 Alpha  occ. eigenvalues --   -1.13601  -1.13589  -1.13368  -1.13316  -1.13291
 Alpha  occ. eigenvalues --   -1.13186  -1.13166  -1.13140  -1.13127  -1.13114
 Alpha  occ. eigenvalues --   -1.13103  -1.12981  -1.12946  -1.12904  -1.12845
 Alpha  occ. eigenvalues --   -1.12832  -1.12779  -1.12730  -1.12706  -1.12665
 Alpha  occ. eigenvalues --   -0.18729  -0.12964  -0.12455  -0.10876
 Alpha virt. eigenvalues --   -0.05694  -0.05134  -0.04484  -0.03188  -0.02958
 Alpha virt. eigenvalues --   -0.02623  -0.01601  -0.01106  -0.00284  -0.00220
 Alpha virt. eigenvalues --   -0.00001   0.00351   0.00800   0.00884   0.00914

  Beta  occ. eigenvalues --  -38.44143 -38.43805 -38.43618 -38.43503 -38.43306
  Beta  occ. eigenvalues --  -38.43235 -38.43164  -2.19948  -2.19649  -2.19461
  Beta  occ. eigenvalues --   -2.19339  -2.19160  -2.19154  -2.19038  -1.13616
  Beta  occ. eigenvalues --   -1.13599  -1.13591  -1.13348  -1.13292  -1.13286
  Beta  occ. eigenvalues --   -1.13145  -1.13110  -1.13108  -1.13069  -1.13020
  Beta  occ. eigenvalues --   -1.12996  -1.12897  -1.12872  -1.12831  -1.12819
  Beta  occ. eigenvalues --   -1.12794  -1.12774  -1.12703  -1.12678  -1.12657
  Beta  occ. eigenvalues --   -0.17994  -0.12737  -0.12184
  Beta virt. eigenvalues --   -0.06957  -0.05652  -0.05119  -0.04453  -0.02431
  Beta virt. eigenvalues --   -0.02163  -0.01576  -0.01504  -0.01023  -0.00332
  Beta virt. eigenvalues --   -0.00244   0.00115   0.00372   0.00862   0.00877

 Mulliken charges and spin densities:
               1          2
     1  Na  -0.062697  -0.096651
     2  Na   0.175948  -0.050038
     3  Na  -0.367210   0.741111
     4  Na  -0.148625   0.578823
     5  Na   0.081766  -0.115277
     6  Na   0.108445   0.010452
     7  Na   0.212374  -0.068420
 Sum of Mulliken charges =  -0.00000   1.00000

 Dipole moment (field-independent basis, Debye):
    X=             -0.0056    Y=              0.1115    Z=              0.1386  Tot=              0.1780
 Quadrupole moment (field-independent basis, Debye-Ang):
   XX=            -55.1953   YY=            -64.3332   ZZ=            -73.7847
   XY=              0.2207   XZ=             -0.4271   YZ=             -0.6759

 Normal termination of Gaussian 16 at Thu Dec  7 01:51:22 2023.
