 Gaussian 16, Revision B.01,
 Gaussian 16:  ES64L-G16RevB.01 20-Dec-2017

 -------------------------
 #P B3LYP/6-311+g(d) force
 -------------------------

 -----
 DPGEN
 -----
 Symbolic Z-matrix:
 Charge =  0 Multiplicity = 2

                         Standard orientation:
 ---------------------------------------------------------------------
 Center     Atomic      Atomic             Coordinates (Angstroms)
 Number     Number       Type             X           Y           Z
 ---------------------------------------------------------------------
      1         11           0        0.174396   -0.231051    1.905500
      2         11           0       -0.151926    0.141138   -1.771784
      3         11           0       -1.547154   -2.760349   -0.423164
      4         11           0        3.129862   -1.627750    0.398659
      5         11           0        2.701559    1.511276   -0.615236
      6         11           0       -3.215767   -0.018592    0.136384
      7         11           0       -1.090970    2.985328    0.369640
 ---------------------------------------------------------------------

 SCF Done:  E(UB3LYP) =  -1136.13267592     A.U. after   20 cycles

 The electronic state is 2-A.
 Alpha  occ. eigenvalues --  -38.44486 -38.44246 -38.44132 -38.43954 -38.43675
 Alpha  occ. eigenvalues --  -38.43353 -38.43072  -2.20321  -2.20040  -2.19962
 Alpha  occ. eigenvalues --   -2.19804  -2.19572  -2.19185  -2.18868  -1.14001
 Alpha  occ. eigenvalues --   -1.13988  -1.13952  -1.13721  -1.13706  -1.13690
 Alpha  occ. eigenvalues --   -1.13649  -1.13610  -1.13574  -1.13487  -1.13440
 Alpha  occ. eigenvalues --   -1.13416  -1.13255  -1.13205  -1.13195  -1.12852
 Alpha  occ. eigenvalues --   -1.12843  -1.12829  -1.12542  -1.12527  -1.12516
 Alpha  occ. eigenvalues --   -0.18042  -0.13422  -0.11800  -0.10702
 Alpha virt. eigenvalues --   -0.06081  -0.05365  -0.04618  -0.03414  -0.02777
 Alpha virt. eigenvalues --   -0.02454  -0.01884  -0.01274  -0.00645  -0.00399
 Alpha virt. eigenvalues --   -0.00069   0.00320   0.00686   0.00725   0.00801

  Beta  occ. eigenvalues --  -38.44483 -38.44240 -38.44114 -38.43876 -38.43606
  Beta  occ. eigenvalues --  -38.43346 -38.43069  -2.20318  -2.20031  -2.19931
  Beta  occ. eigenvalues --   -2.19662  -2.19445  -2.19175  -2.18866  -1.13989
  Beta  occ. eigenvalues --   -1.13986  -1.13944  -1.13717  -1.13685  -1.13682
  Beta  occ. eigenvalues --   -1.13615  -1.13584  -1.13557  -1.13390  -1.13344
  Beta  occ. eigenvalues --   -1.13307  -1.13169  -1.13117  -1.13099  -1.12840
  Beta  occ. eigenvalues --   -1.12838  -1.12811  -1.12536  -1.12526  -1.12505
  Beta  occ. eigenvalues --   -0.17345  -0.13201  -0.11555
  Beta virt. eigenvalues --   -0.06921  -0.05965  -0.05221  -0.04572  -0.02730
  Beta virt. eigenvalues --   -0.02071  -0.01780  -0.01529  -0.01142  -0.00675
  Beta virt. eigenvalues --   -0.00404   0.00076   0.00359   0.00780   0.00811

 Mulliken charges and spin densities:
               1          2
     1  Na  -0.159275   0.652265
     2  Na   0.149865   0.383716
     3  Na   0.011324  -0.023660
     4  Na  -0.026973  -0.021815
     5  Na   0.098462   0.034135
     6  Na   0.141139  -0.003694
     7  Na  -0.214542  -0.020946
 Sum of Mulliken charges =  -0.00000   1.00000

 Dipole moment (field-independent basis, Debye):
    X=              0.1252    Y=             -0.1930    Z=              0.0603  Tot=              0.2378
 Quadrupole moment (field-independent basis, Debye-Ang):
   XX=            -54.7972   YY=            -64.6077   ZZ=            -74.6803
   XY=             -0.6729   XZ=             -0.9796   YZ=              0.2793

 Normal termination of Gaussian 16 at Fri Dec  8 02:40:04 2023.
