 Gaussian 16, Revision B.01,
 Gaussian 16:  ES64L-G16RevB.01 20-Dec-2017

 -------------------------
 #P B3LYP/6-311+g(d) force
 -------------------------

 -----
 DPGEN
 -----
 Symbolic Z-matrix:
 Charge =  0 Multiplicity = 2

                         Standard orientation:
 ---------------------------------------------------------------------
 Center     Atomic      Atomic             Coordinates (Angstroms)
 Number     Number       Type             X           Y           Z
 ---------------------------------------------------------------------
      1         11           0        3.849731   -0.585692   -0.634117
      2         11           0       -3.312750    1.089010   -0.637178
      3         11           0       -0.104958   -0.091442   -1.623570
      4         11           0        1.463908    2.770090    0.231620
      5         11           0        1.451209   -1.466828    1.127442
      6         11           0       -2.072613   -2.180597   -0.178127
      7         11           0       -1.274527    0.465459    1.713931
 ---------------------------------------------------------------------

 SCF Done:  E(UB3LYP) =  -1136.12087238     A.U. after   25 cycles

 The electronic state is 2-A.
 Alpha  occ. eigenvalues --  -38.45077 -38.44873 -38.44378 -38.43496 -38.43472
 Alpha  occ. eigenvalues --  -38.43337 -38.43181  -2.20870  -2.20714  -2.20282
 Alpha  occ. eigenvalues --   -2.19354  -2.19290  -2.19248  -2.19082  -1.14567
 Alpha  occ. eigenvalues --   -1.14517  -1.14488  -1.14406  -1.14362  -1.14334
 Alpha  occ. eigenvalues --   -1.13998  -1.13926  -1.13899  -1.13049  -1.13037
 Alpha  occ. eigenvalues --   -1.12986  -1.12970  -1.12939  -1.12932  -1.12914
 Alpha  occ. eigenvalues --   -1.12888  -1.12870  -1.12768  -1.12746  -1.12702
 Alpha  occ. eigenvalues --   -0.18518  -0.13826  -0.11114  -0.10875
 Alpha virt. eigenvalues --   -0.07079  -0.05257  -0.04251  -0.03129  -0.02674
 Alpha virt. eigenvalues --   -0.02445  -0.02255  -0.01107  -0.00869  -0.00367
 Alpha virt. eigenvalues --    0.00116   0.00180   0.00303   0.00666   0.00738

  Beta  occ. eigenvalues --  -38.45063 -38.44850 -38.44336 -38.43502 -38.43461
  Beta  occ. eigenvalues --  -38.43263 -38.43152  -2.20844  -2.20673  -2.20206
  Beta  occ. eigenvalues --   -2.19338  -2.19260  -2.19157  -2.19033  -1.14552
  Beta  occ. eigenvalues --   -1.14496  -1.14471  -1.14374  -1.14330  -1.14301
  Beta  occ. eigenvalues --   -1.13940  -1.13871  -1.13839  -1.13038  -1.13010
  Beta  occ. eigenvalues --   -1.12942  -1.12935  -1.12921  -1.12895  -1.12884
  Beta  occ. eigenvalues --   -1.12850  -1.12778  -1.12737  -1.12676  -1.12672
  Beta  occ. eigenvalues --   -0.17768  -0.13597  -0.10902
  Beta virt. eigenvalues --   -0.07096  -0.06812  -0.05214  -0.03775  -0.02952
  Beta virt. eigenvalues --   -0.02424  -0.01719  -0.01491  -0.01067  -0.00657
  Beta virt. eigenvalues --   -0.00181   0.00126   0.00202   0.00430   0.00745

 Mulliken charges and spin densities:
               1          2
     1  Na   0.230495   0.095381
     2  Na   0.254143   0.102733
     3  Na  -0.329410   0.291305
     4  Na  -0.310167  -0.050800
     5  Na  -0.183619   0.031882
     6  Na   0.210416   0.185853
     7  Na   0.128142   0.343646
 Sum of Mulliken charges =  -0.00000   1.00000

 Dipole moment (field-independent basis, Debye):
    X=             -0.0440    Y=             -0.0338    Z=             -0.4373  Tot=              0.4408
 Quadrupole moment (field-independent basis, Debye-Ang):
   XX=            -47.5936   YY=            -73.2529   ZZ=            -71.4323
   XY=             -0.2843   XZ=             -0.8524   YZ=             -0.4808

 Normal termination of Gaussian 16 at Thu Dec  7 03:27:23 2023.
