 Gaussian 16, Revision B.01,
 Gaussian 16:  ES64L-G16RevB.01 20-Dec-2017

 -------------------------
 #P B3LYP/6-311+g(d) force
 -------------------------

 -----
 DPGEN
 -----
 Symbolic Z-matrix:
 Charge =  0 Multiplicity = 2

                         Standard orientation:
 ---------------------------------------------------------------------
 Center     Atomic      Atomic             Coordinates (Angstroms)
 Number     Number       Type             X           Y           Z
 ---------------------------------------------------------------------
      1         11           0       -3.797367   -1.566545   -0.802509
      2         11           0       -0.294120    0.062758   -1.604109
      3         11           0        3.341821   -2.401273    0.224559
      4         11           0        2.796233    1.228253   -0.197850
      5         11           0       -2.443256    0.646995    1.601990
      6         11           0        0.238292   -1.012392    0.931617
      7         11           0        0.158397    3.042205   -0.153697
 ---------------------------------------------------------------------

 SCF Done:  E(UB3LYP) =  -1136.11908425     A.U. after   23 cycles

 The electronic state is 2-A.
 Alpha  occ. eigenvalues --  -38.44748 -38.44707 -38.44451 -38.44050 -38.43694
 Alpha  occ. eigenvalues --  -38.43674 -38.43078  -2.20669  -2.20481  -2.20308
 Alpha  occ. eigenvalues --   -2.19999  -2.19562  -2.19459  -2.18934  -1.14536
 Alpha  occ. eigenvalues --   -1.14292  -1.14223  -1.14150  -1.14138  -1.14093
 Alpha  occ. eigenvalues --   -1.14005  -1.13983  -1.13916  -1.13734  -1.13632
 Alpha  occ. eigenvalues --   -1.13574  -1.13242  -1.13196  -1.13167  -1.13130
 Alpha  occ. eigenvalues --   -1.13126  -1.13087  -1.12615  -1.12595  -1.12571
 Alpha  occ. eigenvalues --   -0.18248  -0.13602  -0.11882  -0.10446
 Alpha virt. eigenvalues --   -0.06862  -0.05405  -0.04392  -0.03313  -0.02645
 Alpha virt. eigenvalues --   -0.02373  -0.01999  -0.01653  -0.00703  -0.00396
 Alpha virt. eigenvalues --    0.00055   0.00116   0.00526   0.00582   0.00695

  Beta  occ. eigenvalues --  -38.44700 -38.44669 -38.44450 -38.44020 -38.43676
  Beta  occ. eigenvalues --  -38.43629 -38.43077  -2.20582  -2.20410  -2.20307
  Beta  occ. eigenvalues --   -2.19949  -2.19463  -2.19445  -2.18935  -1.14474
  Beta  occ. eigenvalues --   -1.14232  -1.14155  -1.14102  -1.14079  -1.14049
  Beta  occ. eigenvalues --   -1.14003  -1.13976  -1.13917  -1.13683  -1.13585
  Beta  occ. eigenvalues --   -1.13536  -1.13156  -1.13132  -1.13126  -1.13117
  Beta  occ. eigenvalues --   -1.13089  -1.13080  -1.12620  -1.12595  -1.12551
  Beta  occ. eigenvalues --   -0.17664  -0.13288  -0.11737
  Beta virt. eigenvalues --   -0.06710  -0.06629  -0.05244  -0.04079  -0.02957
  Beta virt. eigenvalues --   -0.02457  -0.01789  -0.01563  -0.01227  -0.00674
  Beta virt. eigenvalues --   -0.00120   0.00120   0.00239   0.00620   0.00707

 Mulliken charges and spin densities:
               1          2
     1  Na  -0.227312   0.149664
     2  Na   0.037534   0.419679
     3  Na   0.342794  -0.012704
     4  Na   0.423111  -0.025080
     5  Na   1.295108   0.029682
     6  Na  -1.523313   0.377720
     7  Na  -0.347921   0.061038
 Sum of Mulliken charges =  -0.00000   1.00000

 Dipole moment (field-independent basis, Debye):
    X=             -0.0111    Y=              0.1625    Z=             -0.1643  Tot=              0.2314
 Quadrupole moment (field-independent basis, Debye-Ang):
   XX=            -51.6475   YY=            -66.2043   ZZ=            -74.8469
   XY=              0.7479   XZ=             -0.8378   YZ=              2.0236

 Normal termination of Gaussian 16 at Fri Dec  8 06:20:59 2023.
