 Gaussian 16, Revision B.01,
 Gaussian 16:  ES64L-G16RevB.01 20-Dec-2017

 -------------------------
 #P B3LYP/6-311+g(d) force
 -------------------------

 -----
 DPGEN
 -----
 Symbolic Z-matrix:
 Charge =  0 Multiplicity = 2

                         Standard orientation:
 ---------------------------------------------------------------------
 Center     Atomic      Atomic             Coordinates (Angstroms)
 Number     Number       Type             X           Y           Z
 ---------------------------------------------------------------------
      1         11           0       -2.059321    1.698652   -0.415824
      2         11           0        3.884979    0.314950   -0.636071
      3         11           0       -4.069023   -0.522063    1.505239
      4         11           0        3.362709   -2.225982    0.945088
      5         11           0       -2.704626   -1.536367   -1.525097
      6         11           0        1.257235    2.943763    0.425353
      7         11           0        0.328046   -0.672952   -0.298688
 ---------------------------------------------------------------------

 SCF Done:  E(UB3LYP) =  -1136.12061155     A.U. after   21 cycles

 The electronic state is 2-A.
 Alpha  occ. eigenvalues --  -38.45056 -38.44252 -38.44116 -38.44086 -38.43885
 Alpha  occ. eigenvalues --  -38.43826 -38.42765  -2.20889  -2.20101  -2.19944
 Alpha  occ. eigenvalues --   -2.19940  -2.19720  -2.19717  -2.18551  -1.14573
 Alpha  occ. eigenvalues --   -1.14553  -1.14513  -1.13810  -1.13800  -1.13699
 Alpha  occ. eigenvalues --   -1.13613  -1.13612  -1.13607  -1.13596  -1.13584
 Alpha  occ. eigenvalues --   -1.13568  -1.13425  -1.13366  -1.13362  -1.13356
 Alpha  occ. eigenvalues --   -1.13332  -1.13322  -1.12230  -1.12210  -1.12194
 Alpha  occ. eigenvalues --   -0.17281  -0.14676  -0.11446  -0.10451
 Alpha virt. eigenvalues --   -0.06563  -0.05765  -0.04768  -0.03459  -0.02926
 Alpha virt. eigenvalues --   -0.02042  -0.01800  -0.01647  -0.00932  -0.00688
 Alpha virt. eigenvalues --   -0.00204  -0.00042   0.00303   0.00442   0.00540

  Beta  occ. eigenvalues --  -38.45042 -38.44242 -38.44117 -38.44055 -38.43790
  Beta  occ. eigenvalues --  -38.43776 -38.42767  -2.20862  -2.20087  -2.19947
  Beta  occ. eigenvalues --   -2.19889  -2.19630  -2.19540  -2.18555  -1.14554
  Beta  occ. eigenvalues --   -1.14535  -1.14495  -1.13804  -1.13761  -1.13688
  Beta  occ. eigenvalues --   -1.13608  -1.13600  -1.13586  -1.13581  -1.13557
  Beta  occ. eigenvalues --   -1.13511  -1.13365  -1.13298  -1.13255  -1.13243
  Beta  occ. eigenvalues --   -1.13235  -1.13208  -1.12234  -1.12213  -1.12195
  Beta  occ. eigenvalues --   -0.16706  -0.14300  -0.11311
  Beta virt. eigenvalues --   -0.06690  -0.06325  -0.05437  -0.04609  -0.03168
  Beta virt. eigenvalues --   -0.02692  -0.01760  -0.01441  -0.01129  -0.00755
  Beta virt. eigenvalues --   -0.00466   0.00119   0.00123   0.00416   0.00480

 Mulliken charges and spin densities:
               1          2
     1  Na   0.004294   0.200223
     2  Na   0.128401   0.102018
     3  Na   0.211060   0.496457
     4  Na   0.699169   0.011575
     5  Na   0.644548   0.084490
     6  Na   0.221128  -0.048894
     7  Na  -1.908599   0.154130
 Sum of Mulliken charges =  -0.00000   1.00000

 Dipole moment (field-independent basis, Debye):
    X=              0.9982    Y=             -0.6689    Z=             -0.4212  Tot=              1.2732
 Quadrupole moment (field-independent basis, Debye-Ang):
   XX=            -62.4739   YY=            -69.4558   ZZ=            -67.3027
   XY=              2.9686   XZ=              3.3644   YZ=             -3.3139

 Normal termination of Gaussian 16 at Tue Dec  5 10:43:46 2023.
