 Gaussian 16, Revision B.01,
 Gaussian 16:  ES64L-G16RevB.01 20-Dec-2017

 -------------------------
 #P B3LYP/6-311+g(d) force
 -------------------------

 -----
 DPGEN
 -----
 Symbolic Z-matrix:
 Charge =  0 Multiplicity = 2

                         Standard orientation:
 ---------------------------------------------------------------------
 Center     Atomic      Atomic             Coordinates (Angstroms)
 Number     Number       Type             X           Y           Z
 ---------------------------------------------------------------------
      1         11           0        3.072191   -2.168189   -0.872628
      2         11           0       -1.764308    0.149783    1.882097
      3         11           0       -2.374965    1.345501   -1.101157
      4         11           0       -3.243077   -1.982729   -0.075770
      5         11           0        0.266394   -0.366701   -0.615716
      6         11           0        1.079810    2.743765   -0.521868
      7         11           0        2.963954    0.278570    1.305042
 ---------------------------------------------------------------------

 SCF Done:  E(UB3LYP) =  -1136.12138709     A.U. after   22 cycles

 The electronic state is 2-A.
 Alpha  occ. eigenvalues --  -38.44505 -38.44340 -38.44244 -38.43983 -38.43463
 Alpha  occ. eigenvalues --  -38.43227 -38.43174  -2.20318  -2.20187  -2.20148
 Alpha  occ. eigenvalues --   -2.19885  -2.19296  -2.19251  -2.19001  -1.14001
 Alpha  occ. eigenvalues --   -1.13982  -1.13967  -1.13863  -1.13850  -1.13839
 Alpha  occ. eigenvalues --   -1.13815  -1.13812  -1.13724  -1.13587  -1.13552
 Alpha  occ. eigenvalues --   -1.13458  -1.12991  -1.12965  -1.12941  -1.12938
 Alpha  occ. eigenvalues --   -1.12914  -1.12863  -1.12681  -1.12651  -1.12631
 Alpha  occ. eigenvalues --   -0.18215  -0.14232  -0.11475  -0.10253
 Alpha virt. eigenvalues --   -0.06286  -0.05775  -0.04861  -0.03133  -0.02394
 Alpha virt. eigenvalues --   -0.02230  -0.02075  -0.01378  -0.00564  -0.00237
 Alpha virt. eigenvalues --   -0.00139   0.00220   0.00326   0.00443   0.00670

  Beta  occ. eigenvalues --  -38.44508 -38.44320 -38.44180 -38.43944 -38.43441
  Beta  occ. eigenvalues --  -38.43199 -38.43174  -2.20327  -2.20151  -2.20029
  Beta  occ. eigenvalues --   -2.19814  -2.19254  -2.19205  -2.19003  -1.13992
  Beta  occ. eigenvalues --   -1.13988  -1.13966  -1.13839  -1.13826  -1.13780
  Beta  occ. eigenvalues --   -1.13761  -1.13728  -1.13642  -1.13534  -1.13491
  Beta  occ. eigenvalues --   -1.13413  -1.12953  -1.12915  -1.12911  -1.12899
  Beta  occ. eigenvalues --   -1.12885  -1.12831  -1.12682  -1.12644  -1.12622
  Beta  occ. eigenvalues --   -0.17599  -0.14014  -0.11216
  Beta virt. eigenvalues --   -0.06722  -0.05999  -0.05623  -0.04273  -0.02960
  Beta virt. eigenvalues --   -0.02156  -0.01836  -0.01468  -0.01164  -0.00331
  Beta virt. eigenvalues --   -0.00051   0.00053   0.00275   0.00452   0.00583

 Mulliken charges and spin densities:
               1          2
     1  Na   0.585528  -0.062555
     2  Na  -0.238683   0.393472
     3  Na   0.258110   0.014894
     4  Na   0.546000   0.044918
     5  Na  -1.776770   0.507214
     6  Na   0.202814  -0.066264
     7  Na   0.423002   0.168321
 Sum of Mulliken charges =  -0.00000   1.00000

 Dipole moment (field-independent basis, Debye):
    X=             -0.5497    Y=              0.0212    Z=              0.1553  Tot=              0.5716
 Quadrupole moment (field-independent basis, Debye-Ang):
   XX=            -53.7242   YY=            -66.8709   ZZ=            -72.1325
   XY=              3.1573   XZ=              3.2415   YZ=              2.3358

 Normal termination of Gaussian 16 at Tue Dec  5 21:07:35 2023.
