 Gaussian 16, Revision B.01,
 Gaussian 16:  ES64L-G16RevB.01 20-Dec-2017

 -------------------------
 #P B3LYP/6-311+g(d) force
 -------------------------

 -----
 DPGEN
 -----
 Symbolic Z-matrix:
 Charge =  0 Multiplicity = 2

                         Standard orientation:
 ---------------------------------------------------------------------
 Center     Atomic      Atomic             Coordinates (Angstroms)
 Number     Number       Type             X           Y           Z
 ---------------------------------------------------------------------
      1         11           0        0.259043   -0.677406    2.478173
      2         11           0        4.591847    0.384046   -0.108366
      3         11           0       -1.519797   -1.952395   -0.896549
      4         11           0       -3.836018   -0.082453    0.776259
      5         11           0        0.954072    2.323516    0.234175
      6         11           0        1.976658   -1.607500   -1.085200
      7         11           0       -2.425805    1.612191   -1.398491
 ---------------------------------------------------------------------

 SCF Done:  E(UB3LYP) =  -1136.10963607     A.U. after   32 cycles

 The electronic state is 2-A.
 Alpha  occ. eigenvalues --  -38.45779 -38.45281 -38.44753 -38.43957 -38.43837
 Alpha  occ. eigenvalues --  -38.43629 -38.43211  -2.21592  -2.21045  -2.20545
 Alpha  occ. eigenvalues --   -2.19787  -2.19587  -2.19430  -2.19036  -1.15272
 Alpha  occ. eigenvalues --   -1.15245  -1.15232  -1.14707  -1.14700  -1.14664
 Alpha  occ. eigenvalues --   -1.14193  -1.14179  -1.14150  -1.13472  -1.13448
 Alpha  occ. eigenvalues --   -1.13409  -1.13283  -1.13265  -1.13201  -1.13130
 Alpha  occ. eigenvalues --   -1.13093  -1.13054  -1.12739  -1.12700  -1.12657
 Alpha  occ. eigenvalues --   -0.17137  -0.13987  -0.11177  -0.10875
 Alpha virt. eigenvalues --   -0.07686  -0.05206  -0.04518  -0.03545  -0.03126
 Alpha virt. eigenvalues --   -0.02549  -0.02399  -0.01542  -0.00880  -0.00496
 Alpha virt. eigenvalues --   -0.00283  -0.00009   0.00151   0.00581   0.00713

  Beta  occ. eigenvalues --  -38.45778 -38.45240 -38.44638 -38.43944 -38.43827
  Beta  occ. eigenvalues --  -38.43617 -38.43206  -2.21593  -2.20969  -2.20333
  Beta  occ. eigenvalues --   -2.19764  -2.19569  -2.19408  -2.19028  -1.15268
  Beta  occ. eigenvalues --   -1.15239  -1.15232  -1.14654  -1.14642  -1.14615
  Beta  occ. eigenvalues --   -1.14047  -1.14036  -1.14000  -1.13458  -1.13435
  Beta  occ. eigenvalues --   -1.13386  -1.13274  -1.13236  -1.13193  -1.13117
  Beta  occ. eigenvalues --   -1.13076  -1.13031  -1.12734  -1.12692  -1.12646
  Beta  occ. eigenvalues --   -0.16608  -0.13477  -0.10815
  Beta virt. eigenvalues --   -0.07567  -0.07262  -0.05018  -0.04136  -0.03061
  Beta virt. eigenvalues --   -0.02960  -0.02175  -0.01741  -0.01308  -0.00766
  Beta virt. eigenvalues --   -0.00257  -0.00110   0.00017   0.00236   0.00699

 Mulliken charges and spin densities:
               1          2
     1  Na  -0.090793   0.535718
     2  Na   0.546920   0.107872
     3  Na  -0.413935   0.135611
     4  Na   0.610242   0.063087
     5  Na  -0.397215   0.075416
     6  Na  -0.214164   0.068620
     7  Na  -0.041055   0.013675
 Sum of Mulliken charges =  -0.00000   1.00000

 Dipole moment (field-independent basis, Debye):
    X=             -0.3274    Y=             -0.0930    Z=              0.9371  Tot=              0.9970
 Quadrupole moment (field-independent basis, Debye-Ang):
   XX=            -49.2582   YY=            -80.8919   ZZ=            -66.5452
   XY=              2.5144   XZ=             -2.4197   YZ=             -1.8725

 Normal termination of Gaussian 16 at Sun Dec  3 15:56:32 2023.
