 Gaussian 16, Revision B.01,
 Gaussian 16:  ES64L-G16RevB.01 20-Dec-2017

 -------------------------
 #P B3LYP/6-311+g(d) force
 -------------------------

 -----
 DPGEN
 -----
 Symbolic Z-matrix:
 Charge =  0 Multiplicity = 2

                         Standard orientation:
 ---------------------------------------------------------------------
 Center     Atomic      Atomic             Coordinates (Angstroms)
 Number     Number       Type             X           Y           Z
 ---------------------------------------------------------------------
      1         11           0        2.233319    2.054273   -0.198156
      2         11           0       -1.290771   -2.932244   -0.190304
      3         11           0       -2.909207    0.125294    0.175871
      4         11           0        0.408380   -0.300042    2.156496
      5         11           0       -0.305039   -0.339716   -1.516985
      6         11           0        3.005704   -1.542539   -0.270623
      7         11           0       -1.142387    2.934974   -0.156300
 ---------------------------------------------------------------------

 SCF Done:  E(UB3LYP) =  -1136.13422179     A.U. after   19 cycles

 The electronic state is 2-A.
 Alpha  occ. eigenvalues --  -38.44301 -38.43978 -38.43959 -38.43819 -38.43628
 Alpha  occ. eigenvalues --  -38.43341 -38.43216  -2.20075  -2.19801  -2.19786
 Alpha  occ. eigenvalues --   -2.19700  -2.19474  -2.19194  -2.19171  -1.13750
 Alpha  occ. eigenvalues --   -1.13726  -1.13721  -1.13526  -1.13465  -1.13458
 Alpha  occ. eigenvalues --   -1.13453  -1.13434  -1.13415  -1.13412  -1.13356
 Alpha  occ. eigenvalues --   -1.13319  -1.13134  -1.13101  -1.13088  -1.12879
 Alpha  occ. eigenvalues --   -1.12848  -1.12833  -1.12824  -1.12817  -1.12810
 Alpha  occ. eigenvalues --   -0.18292  -0.12957  -0.12471  -0.10505
 Alpha virt. eigenvalues --   -0.05910  -0.05188  -0.04945  -0.03189  -0.02779
 Alpha virt. eigenvalues --   -0.02460  -0.01549  -0.01377  -0.00594  -0.00501
 Alpha virt. eigenvalues --   -0.00017   0.00335   0.00764   0.00816   0.00845

  Beta  occ. eigenvalues --  -38.44299 -38.43974 -38.43953 -38.43813 -38.43526
  Beta  occ. eigenvalues --  -38.43340 -38.43164  -2.20073  -2.19794  -2.19780
  Beta  occ. eigenvalues --   -2.19692  -2.19284  -2.19172  -2.19100  -1.13732
  Beta  occ. eigenvalues --   -1.13727  -1.13722  -1.13515  -1.13456  -1.13442
  Beta  occ. eigenvalues --   -1.13439  -1.13422  -1.13414  -1.13405  -1.13326
  Beta  occ. eigenvalues --   -1.13319  -1.13007  -1.12970  -1.12953  -1.12840
  Beta  occ. eigenvalues --   -1.12828  -1.12817  -1.12808  -1.12752  -1.12750
  Beta  occ. eigenvalues --   -0.17599  -0.12755  -0.12268
  Beta virt. eigenvalues --   -0.06589  -0.05908  -0.05072  -0.04931  -0.02400
  Beta virt. eigenvalues --   -0.02085  -0.01501  -0.01396  -0.01295  -0.00633
  Beta virt. eigenvalues --   -0.00529   0.00150   0.00381   0.00772   0.00842

 Mulliken charges and spin densities:
               1          2
     1  Na   0.096175   0.009795
     2  Na   0.353594  -0.038306
     3  Na   0.289616   0.136457
     4  Na  -0.507834   0.715092
     5  Na  -0.263287   0.279911
     6  Na   0.088419  -0.081376
     7  Na  -0.056684  -0.021573
 Sum of Mulliken charges =  -0.00000   1.00000

 Dipole moment (field-independent basis, Debye):
    X=              0.2590    Y=             -0.3833    Z=              0.0889  Tot=              0.4711
 Quadrupole moment (field-independent basis, Debye-Ang):
   XX=            -58.1024   YY=            -59.2868   ZZ=            -75.9072
   XY=             -0.1780   XZ=             -1.5934   YZ=             -0.0087

 Normal termination of Gaussian 16 at Fri Dec  8 07:00:59 2023.
