 Gaussian 16, Revision B.01,
 Gaussian 16:  ES64L-G16RevB.01 20-Dec-2017

 -------------------------
 #P B3LYP/6-311+g(d) force
 -------------------------

 -----
 DPGEN
 -----
 Symbolic Z-matrix:
 Charge =  0 Multiplicity = 2

                         Standard orientation:
 ---------------------------------------------------------------------
 Center     Atomic      Atomic             Coordinates (Angstroms)
 Number     Number       Type             X           Y           Z
 ---------------------------------------------------------------------
      1         11           0       -0.246990    2.874829    0.491222
      2         11           0       -3.363082    0.524718   -0.394176
      3         11           0       -0.101750    0.176077   -1.596300
      4         11           0        2.199365   -1.693413   -0.055772
      5         11           0       -0.968341   -2.722806   -0.188618
      6         11           0       -0.177630   -0.474535    2.137502
      7         11           0        2.658427    1.315130   -0.393857
 ---------------------------------------------------------------------

 SCF Done:  E(UB3LYP) =  -1136.13493897     A.U. after   19 cycles

 The electronic state is 2-A.
 Alpha  occ. eigenvalues --  -38.44291 -38.43800 -38.43640 -38.43536 -38.43413
 Alpha  occ. eigenvalues --  -38.43344 -38.43189  -2.20063  -2.19688  -2.19470
 Alpha  occ. eigenvalues --   -2.19408  -2.19317  -2.19275  -2.19186  -1.13743
 Alpha  occ. eigenvalues --   -1.13707  -1.13706  -1.13356  -1.13324  -1.13307
 Alpha  occ. eigenvalues --   -1.13157  -1.13138  -1.13112  -1.13106  -1.13099
 Alpha  occ. eigenvalues --   -1.13074  -1.13039  -1.12999  -1.12947  -1.12937
 Alpha  occ. eigenvalues --   -1.12917  -1.12859  -1.12854  -1.12813  -1.12793
 Alpha  occ. eigenvalues --   -0.18784  -0.12811  -0.12614  -0.10995
 Alpha virt. eigenvalues --   -0.05764  -0.04873  -0.04629  -0.03160  -0.03103
 Alpha virt. eigenvalues --   -0.02683  -0.01577  -0.01059  -0.00269  -0.00149
 Alpha virt. eigenvalues --   -0.00014   0.00341   0.00800   0.00896   0.00928

  Beta  occ. eigenvalues --  -38.44286 -38.43703 -38.43628 -38.43530 -38.43407
  Beta  occ. eigenvalues --  -38.43335 -38.43132  -2.20054  -2.19509  -2.19451
  Beta  occ. eigenvalues --   -2.19402  -2.19308  -2.19264  -2.19083  -1.13725
  Beta  occ. eigenvalues --   -1.13704  -1.13700  -1.13243  -1.13202  -1.13180
  Beta  occ. eigenvalues --   -1.13145  -1.13105  -1.13103  -1.13096  -1.13090
  Beta  occ. eigenvalues --   -1.13046  -1.13028  -1.12983  -1.12925  -1.12924
  Beta  occ. eigenvalues --   -1.12889  -1.12845  -1.12792  -1.12744  -1.12717
  Beta  occ. eigenvalues --   -0.18053  -0.12542  -0.12386
  Beta virt. eigenvalues --   -0.07079  -0.05711  -0.04789  -0.04597  -0.02400
  Beta virt. eigenvalues --   -0.02363  -0.01657  -0.01462  -0.00991  -0.00251
  Beta virt. eigenvalues --   -0.00195   0.00116   0.00376   0.00835   0.00903

 Mulliken charges and spin densities:
               1          2
     1  Na   0.035579   0.076680
     2  Na  -0.014879  -0.065566
     3  Na  -0.318546   0.312172
     4  Na   0.373541   0.087973
     5  Na   0.233235  -0.052475
     6  Na  -0.564824   0.603950
     7  Na   0.255895   0.037265
 Sum of Mulliken charges =  -0.00000   1.00000

 Dipole moment (field-independent basis, Debye):
    X=             -0.4984    Y=              0.0298    Z=              0.2086  Tot=              0.5411
 Quadrupole moment (field-independent basis, Debye-Ang):
   XX=            -58.1708   YY=            -62.8710   ZZ=            -72.9313
   XY=              0.2097   XZ=              0.0477   YZ=              1.3262

 Normal termination of Gaussian 16 at Thu Dec  7 16:08:26 2023.
