 Gaussian 16, Revision B.01,
 Gaussian 16:  ES64L-G16RevB.01 20-Dec-2017

 -------------------------
 #P B3LYP/6-311+g(d) force
 -------------------------

 -----
 DPGEN
 -----
 Symbolic Z-matrix:
 Charge =  0 Multiplicity = 2

                         Standard orientation:
 ---------------------------------------------------------------------
 Center     Atomic      Atomic             Coordinates (Angstroms)
 Number     Number       Type             X           Y           Z
 ---------------------------------------------------------------------
      1         11           0        0.668751   -0.369127    2.290781
      2         11           0       -1.610363   -0.030472   -1.866350
      3         11           0        1.177576    1.910601   -0.703388
      4         11           0       -3.086237   -1.181317    0.631069
      5         11           0        0.879354   -2.250383   -0.867317
      6         11           0       -2.144397    1.856845    0.498280
      7         11           0        4.115315    0.063853    0.016924
 ---------------------------------------------------------------------

 SCF Done:  E(UB3LYP) =  -1136.11871018     A.U. after   26 cycles

 The electronic state is 2-A.
 Alpha  occ. eigenvalues --  -38.45835 -38.44990 -38.44665 -38.43829 -38.43343
 Alpha  occ. eigenvalues --  -38.43169 -38.42831  -2.21574  -2.20783  -2.20509
 Alpha  occ. eigenvalues --   -2.19785  -2.19144  -2.19081  -2.18665  -1.15252
 Alpha  occ. eigenvalues --   -1.15235  -1.15201  -1.14452  -1.14421  -1.14393
 Alpha  occ. eigenvalues --   -1.14221  -1.14178  -1.14131  -1.13473  -1.13450
 Alpha  occ. eigenvalues --   -1.13386  -1.12838  -1.12810  -1.12766  -1.12751
 Alpha  occ. eigenvalues --   -1.12732  -1.12709  -1.12363  -1.12350  -1.12274
 Alpha  occ. eigenvalues --   -0.18209  -0.13712  -0.11389  -0.10922
 Alpha virt. eigenvalues --   -0.07316  -0.04739  -0.04608  -0.03194  -0.02916
 Alpha virt. eigenvalues --   -0.02745  -0.02457  -0.00965  -0.00669  -0.00279
 Alpha virt. eigenvalues --    0.00070   0.00114   0.00251   0.00745   0.00763

  Beta  occ. eigenvalues --  -38.45840 -38.44909 -38.44665 -38.43771 -38.43312
  Beta  occ. eigenvalues --  -38.43157 -38.42823  -2.21584  -2.20632  -2.20513
  Beta  occ. eigenvalues --   -2.19677  -2.19088  -2.19061  -2.18653  -1.15253
  Beta  occ. eigenvalues --   -1.15243  -1.15209  -1.14352  -1.14315  -1.14281
  Beta  occ. eigenvalues --   -1.14226  -1.14158  -1.14133  -1.13402  -1.13370
  Beta  occ. eigenvalues --   -1.13309  -1.12798  -1.12757  -1.12754  -1.12715
  Beta  occ. eigenvalues --   -1.12710  -1.12684  -1.12357  -1.12322  -1.12272
  Beta  occ. eigenvalues --   -0.17459  -0.13618  -0.10712
  Beta virt. eigenvalues --   -0.07453  -0.07091  -0.04745  -0.03934  -0.02953
  Beta virt. eigenvalues --   -0.02553  -0.02090  -0.01860  -0.00904  -0.00376
  Beta virt. eigenvalues --   -0.00208   0.00131   0.00208   0.00320   0.00798

 Mulliken charges and spin densities:
               1          2
     1  Na  -0.297389   0.450789
     2  Na   0.193048   0.240575
     3  Na  -0.289649   0.032958
     4  Na   0.314259   0.010169
     5  Na  -0.231264   0.076285
     6  Na   0.008980   0.258867
     7  Na   0.302015  -0.069643
 Sum of Mulliken charges =  -0.00000   1.00000

 Dipole moment (field-independent basis, Debye):
    X=              1.0494    Y=             -0.3249    Z=              0.5695  Tot=              1.2374
 Quadrupole moment (field-independent basis, Debye-Ang):
   XX=            -45.7813   YY=            -78.8969   ZZ=            -68.5401
   XY=              0.1221   XZ=             -1.3623   YZ=              0.6158

 Normal termination of Gaussian 16 at Thu Dec  7 08:59:21 2023.
