 Gaussian 16, Revision B.01,
 Gaussian 16:  ES64L-G16RevB.01 20-Dec-2017

 -------------------------
 #P B3LYP/6-311+g(d) force
 -------------------------

 -----
 DPGEN
 -----
 Symbolic Z-matrix:
 Charge =  0 Multiplicity = 2

                         Standard orientation:
 ---------------------------------------------------------------------
 Center     Atomic      Atomic             Coordinates (Angstroms)
 Number     Number       Type             X           Y           Z
 ---------------------------------------------------------------------
      1         11           0        0.509957   -0.519135    1.794701
      2         11           0        0.399289   -1.682108   -1.200252
      3         11           0        0.225132    2.895772    0.914930
      4         11           0        0.774557    0.981722   -1.406429
      5         11           0       -2.748260    1.296475   -0.776931
      6         11           0       -3.089114   -2.104049    0.617808
      7         11           0        3.928439   -0.868676    0.056174
 ---------------------------------------------------------------------

 SCF Done:  E(UB3LYP) =  -1136.11634397     A.U. after   20 cycles

 The electronic state is 2-A.
 Alpha  occ. eigenvalues --  -38.45441 -38.44744 -38.44170 -38.44041 -38.43588
 Alpha  occ. eigenvalues --  -38.43473 -38.42963  -2.21181  -2.20520  -2.20113
 Alpha  occ. eigenvalues --   -2.19920  -2.19498  -2.19351  -2.18824  -1.14858
 Alpha  occ. eigenvalues --   -1.14852  -1.14798  -1.14212  -1.14180  -1.14136
 Alpha  occ. eigenvalues --   -1.14057  -1.13792  -1.13632  -1.13608  -1.13554
 Alpha  occ. eigenvalues --   -1.13511  -1.13175  -1.13144  -1.13037  -1.13024
 Alpha  occ. eigenvalues --   -1.13015  -1.12984  -1.12503  -1.12479  -1.12436
 Alpha  occ. eigenvalues --   -0.18273  -0.12831  -0.11823  -0.10948
 Alpha virt. eigenvalues --   -0.06837  -0.05096  -0.03886  -0.03068  -0.02923
 Alpha virt. eigenvalues --   -0.02678  -0.02559  -0.01096  -0.00519  -0.00180
 Alpha virt. eigenvalues --    0.00146   0.00194   0.00514   0.00702   0.00777

  Beta  occ. eigenvalues --  -38.45445 -38.44736 -38.44123 -38.43970 -38.43583
  Beta  occ. eigenvalues --  -38.43415 -38.42947  -2.21190  -2.20506  -2.20033
  Beta  occ. eigenvalues --   -2.19788  -2.19398  -2.19342  -2.18794  -1.14864
  Beta  occ. eigenvalues --   -1.14848  -1.14805  -1.14187  -1.14173  -1.14132
  Beta  occ. eigenvalues --   -1.13985  -1.13708  -1.13581  -1.13522  -1.13454
  Beta  occ. eigenvalues --   -1.13416  -1.13102  -1.13056  -1.13017  -1.13005
  Beta  occ. eigenvalues --   -1.12980  -1.12967  -1.12485  -1.12448  -1.12410
  Beta  occ. eigenvalues --   -0.17494  -0.12702  -0.11623
  Beta virt. eigenvalues --   -0.06975  -0.06746  -0.04913  -0.03794  -0.02602
  Beta virt. eigenvalues --   -0.02496  -0.02344  -0.01564  -0.00969  -0.00305
  Beta virt. eigenvalues --   -0.00164   0.00176   0.00220   0.00637   0.00720

 Mulliken charges and spin densities:
               1          2
     1  Na  -0.397297   0.778919
     2  Na  -0.175727   0.050601
     3  Na   0.040813  -0.063527
     4  Na   0.453476   0.328299
     5  Na  -0.137592   0.022328
     6  Na   0.108256  -0.057352
     7  Na   0.108070  -0.059267
 Sum of Mulliken charges =  -0.00000   1.00000

 Dipole moment (field-independent basis, Debye):
    X=              0.8738    Y=              0.0195    Z=              0.2013  Tot=              0.8969
 Quadrupole moment (field-independent basis, Debye-Ang):
   XX=            -49.0662   YY=            -69.4744   ZZ=            -72.5476
   XY=             -2.7046   XZ=              1.1657   YZ=              0.2162

 Normal termination of Gaussian 16 at Thu Dec  7 17:04:34 2023.
