 Gaussian 16, Revision B.01,
 Gaussian 16:  ES64L-G16RevB.01 20-Dec-2017

 -------------------------
 #P B3LYP/6-311+g(d) force
 -------------------------

 -----
 DPGEN
 -----
 Symbolic Z-matrix:
 Charge =  0 Multiplicity = 2

                         Standard orientation:
 ---------------------------------------------------------------------
 Center     Atomic      Atomic             Coordinates (Angstroms)
 Number     Number       Type             X           Y           Z
 ---------------------------------------------------------------------
      1         11           0       -0.776059   -1.011201    1.908117
      2         11           0       -0.628983    1.875984    0.226818
      3         11           0        2.365517   -0.135092    1.573728
      4         11           0       -3.535034    1.508076   -0.424725
      5         11           0       -2.342097   -1.763624   -0.873841
      6         11           0        3.780453    0.928057   -1.100078
      7         11           0        1.136203   -1.402200   -1.310018
 ---------------------------------------------------------------------

 SCF Done:  E(UB3LYP) =  -1136.12231482     A.U. after   24 cycles

 The electronic state is 2-A.
 Alpha  occ. eigenvalues --  -38.44370 -38.44344 -38.44117 -38.43884 -38.43810
 Alpha  occ. eigenvalues --  -38.43701 -38.43333  -2.20281  -2.20173  -2.19982
 Alpha  occ. eigenvalues --   -2.19743  -2.19682  -2.19620  -2.19181  -1.13970
 Alpha  occ. eigenvalues --   -1.13962  -1.13934  -1.13831  -1.13814  -1.13785
 Alpha  occ. eigenvalues --   -1.13681  -1.13651  -1.13573  -1.13435  -1.13406
 Alpha  occ. eigenvalues --   -1.13386  -1.13365  -1.13358  -1.13344  -1.13291
 Alpha  occ. eigenvalues --   -1.13253  -1.13217  -1.12839  -1.12831  -1.12817
 Alpha  occ. eigenvalues --   -0.18461  -0.14248  -0.11751  -0.11084
 Alpha virt. eigenvalues --   -0.06531  -0.05188  -0.04851  -0.03283  -0.02727
 Alpha virt. eigenvalues --   -0.02441  -0.02281  -0.01194  -0.00854  -0.00064
 Alpha virt. eigenvalues --    0.00124   0.00239   0.00371   0.00522   0.00680

  Beta  occ. eigenvalues --  -38.44332 -38.44316 -38.44077 -38.43853 -38.43794
  Beta  occ. eigenvalues --  -38.43649 -38.43333  -2.20218  -2.20121  -2.19910
  Beta  occ. eigenvalues --   -2.19685  -2.19655  -2.19531  -2.19181  -1.13927
  Beta  occ. eigenvalues --   -1.13904  -1.13885  -1.13787  -1.13774  -1.13745
  Beta  occ. eigenvalues --   -1.13634  -1.13597  -1.13513  -1.13395  -1.13368
  Beta  occ. eigenvalues --   -1.13353  -1.13336  -1.13324  -1.13315  -1.13226
  Beta  occ. eigenvalues --   -1.13189  -1.13148  -1.12839  -1.12824  -1.12817
  Beta  occ. eigenvalues --   -0.17723  -0.13966  -0.10932
  Beta virt. eigenvalues --   -0.07808  -0.06274  -0.05040  -0.04241  -0.02966
  Beta virt. eigenvalues --   -0.02270  -0.02077  -0.01852  -0.01034  -0.00462
  Beta virt. eigenvalues --    0.00067   0.00189   0.00282   0.00451   0.00651

 Mulliken charges and spin densities:
               1          2
     1  Na  -0.044563   0.164859
     2  Na  -0.761646   0.110573
     3  Na   0.303699   0.151411
     4  Na   0.185301  -0.089959
     5  Na   0.280418   0.317325
     6  Na   0.583167   0.124417
     7  Na  -0.546376   0.221374
 Sum of Mulliken charges =  -0.00000   1.00000

 Dipole moment (field-independent basis, Debye):
    X=              0.6796    Y=             -0.4783    Z=             -0.0209  Tot=              0.8313
 Quadrupole moment (field-independent basis, Debye-Ang):
   XX=            -54.1298   YY=            -77.4086   ZZ=            -66.1441
   XY=              5.0726   XZ=              0.3777   YZ=             -0.3259

 Normal termination of Gaussian 16 at Sun Dec  3 19:00:47 2023.
