 Gaussian 16, Revision B.01,
 Gaussian 16:  ES64L-G16RevB.01 20-Dec-2017

 -------------------------
 #P B3LYP/6-311+g(d) force
 -------------------------

 -----
 DPGEN
 -----
 Symbolic Z-matrix:
 Charge =  0 Multiplicity = 2

                         Standard orientation:
 ---------------------------------------------------------------------
 Center     Atomic      Atomic             Coordinates (Angstroms)
 Number     Number       Type             X           Y           Z
 ---------------------------------------------------------------------
      1         11           0        0.179249   -0.429397    1.552646
      2         11           0        0.114215    0.556665   -1.308128
      3         11           0       -1.729778    3.284994    0.044631
      4         11           0        3.200073    1.674047    0.526700
      5         11           0        2.568655   -1.710620   -0.915101
      6         11           0       -3.184105   -0.420617   -0.357290
      7         11           0       -1.148308   -2.955072    0.456542
 ---------------------------------------------------------------------

 SCF Done:  E(UB3LYP) =  -1136.12409019     A.U. after   23 cycles

 The electronic state is 2-A.
 Alpha  occ. eigenvalues --  -38.44640 -38.44627 -38.44114 -38.43766 -38.43665
 Alpha  occ. eigenvalues --  -38.43411 -38.43295  -2.20446  -2.20402  -2.19863
 Alpha  occ. eigenvalues --   -2.19614  -2.19602  -2.19275  -2.19239  -1.14138
 Alpha  occ. eigenvalues --   -1.14110  -1.14069  -1.14067  -1.14056  -1.14028
 Alpha  occ. eigenvalues --   -1.13544  -1.13524  -1.13501  -1.13389  -1.13292
 Alpha  occ. eigenvalues --   -1.13279  -1.13250  -1.13224  -1.13202  -1.12965
 Alpha  occ. eigenvalues --   -1.12943  -1.12918  -1.12901  -1.12870  -1.12826
 Alpha  occ. eigenvalues --   -0.18089  -0.13197  -0.12149  -0.09924
 Alpha virt. eigenvalues --   -0.06429  -0.05603  -0.04794  -0.03086  -0.02489
 Alpha virt. eigenvalues --   -0.02155  -0.01856  -0.01548  -0.00848  -0.00638
 Alpha virt. eigenvalues --   -0.00013   0.00247   0.00582   0.00630   0.00761

  Beta  occ. eigenvalues --  -38.44639 -38.44600 -38.44123 -38.43717 -38.43611
  Beta  occ. eigenvalues --  -38.43401 -38.43255  -2.20444  -2.20352  -2.19882
  Beta  occ. eigenvalues --   -2.19517  -2.19512  -2.19260  -2.19169  -1.14131
  Beta  occ. eigenvalues --   -1.14106  -1.14065  -1.14032  -1.14012  -1.13997
  Beta  occ. eigenvalues --   -1.13554  -1.13535  -1.13512  -1.13317  -1.13223
  Beta  occ. eigenvalues --   -1.13209  -1.13184  -1.13163  -1.13136  -1.12919
  Beta  occ. eigenvalues --   -1.12910  -1.12909  -1.12876  -1.12815  -1.12766
  Beta  occ. eigenvalues --   -0.17487  -0.12900  -0.11947
  Beta virt. eigenvalues --   -0.06321  -0.06218  -0.05462  -0.04681  -0.02472
  Beta virt. eigenvalues --   -0.02030  -0.01954  -0.01561  -0.00957  -0.00811
  Beta virt. eigenvalues --   -0.00480   0.00133   0.00333   0.00658   0.00709

 Mulliken charges and spin densities:
               1          2
     1  Na  -0.031429   0.481140
     2  Na   0.129359   0.218312
     3  Na  -0.175547  -0.046281
     4  Na  -0.116252   0.160875
     5  Na   0.025559   0.187044
     6  Na  -0.062464  -0.058801
     7  Na   0.230774   0.057710
 Sum of Mulliken charges =  -0.00000   1.00000

 Dipole moment (field-independent basis, Debye):
    X=             -0.0901    Y=              0.2418    Z=              0.0445  Tot=              0.2618
 Quadrupole moment (field-independent basis, Debye-Ang):
   XX=            -53.9635   YY=            -59.5764   ZZ=            -77.5403
   XY=              1.4947   XZ=              0.5593   YZ=              2.1007

 Normal termination of Gaussian 16 at Thu Dec  7 15:40:52 2023.
