 Gaussian 16, Revision B.01,
 Gaussian 16:  ES64L-G16RevB.01 20-Dec-2017

 -------------------------
 #P B3LYP/6-311+g(d) force
 -------------------------

 -----
 DPGEN
 -----
 Symbolic Z-matrix:
 Charge =  0 Multiplicity = 2

                         Standard orientation:
 ---------------------------------------------------------------------
 Center     Atomic      Atomic             Coordinates (Angstroms)
 Number     Number       Type             X           Y           Z
 ---------------------------------------------------------------------
      1         11           0        2.785139    1.053618   -0.055438
      2         11           0       -1.963390   -2.583630    0.206524
      3         11           0       -3.162220    0.766473   -0.323884
      4         11           0        0.199858   -0.223838    2.152578
      5         11           0       -0.188122   -0.221470   -1.550821
      6         11           0        2.556657   -1.905063   -0.461120
      7         11           0       -0.227921    3.113911    0.032161
 ---------------------------------------------------------------------

 SCF Done:  E(UB3LYP) =  -1136.13379894     A.U. after   19 cycles

 The electronic state is 2-A.
 Alpha  occ. eigenvalues --  -38.44439 -38.43897 -38.43869 -38.43820 -38.43811
 Alpha  occ. eigenvalues --  -38.43417 -38.43128  -2.20245  -2.19785  -2.19732
 Alpha  occ. eigenvalues --   -2.19662  -2.19625  -2.19357  -2.18926  -1.13934
 Alpha  occ. eigenvalues --   -1.13904  -1.13866  -1.13583  -1.13447  -1.13437
 Alpha  occ. eigenvalues --   -1.13386  -1.13357  -1.13324  -1.13311  -1.13300
 Alpha  occ. eigenvalues --   -1.13295  -1.13287  -1.13268  -1.13264  -1.13048
 Alpha  occ. eigenvalues --   -1.12991  -1.12986  -1.12602  -1.12588  -1.12572
 Alpha  occ. eigenvalues --   -0.18282  -0.13377  -0.11999  -0.10702
 Alpha virt. eigenvalues --   -0.05856  -0.05379  -0.04712  -0.03318  -0.02669
 Alpha virt. eigenvalues --   -0.02596  -0.01746  -0.01213  -0.00605  -0.00431
 Alpha virt. eigenvalues --   -0.00041   0.00331   0.00713   0.00799   0.00865

  Beta  occ. eigenvalues --  -38.44431 -38.43892 -38.43856 -38.43817 -38.43707
  Beta  occ. eigenvalues --  -38.43368 -38.43129  -2.20232  -2.19778  -2.19713
  Beta  occ. eigenvalues --   -2.19621  -2.19469  -2.19269  -2.18930  -1.13915
  Beta  occ. eigenvalues --   -1.13893  -1.13862  -1.13578  -1.13437  -1.13411
  Beta  occ. eigenvalues --   -1.13366  -1.13331  -1.13302  -1.13295  -1.13276
  Beta  occ. eigenvalues --   -1.13261  -1.13193  -1.13157  -1.13132  -1.12983
  Beta  occ. eigenvalues --   -1.12928  -1.12921  -1.12599  -1.12589  -1.12569
  Beta  occ. eigenvalues --   -0.17583  -0.13133  -0.11803
  Beta virt. eigenvalues --   -0.06810  -0.05778  -0.05319  -0.04651  -0.02583
  Beta virt. eigenvalues --   -0.01988  -0.01619  -0.01553  -0.01121  -0.00651
  Beta virt. eigenvalues --   -0.00457   0.00125   0.00381   0.00785   0.00828

 Mulliken charges and spin densities:
               1          2
     1  Na   0.128368   0.065069
     2  Na   0.027557  -0.019257
     3  Na   0.114373  -0.011891
     4  Na  -0.455230   0.723585
     5  Na  -0.056032   0.211971
     6  Na   0.371900   0.058651
     7  Na  -0.130935  -0.028129
 Sum of Mulliken charges =  -0.00000   1.00000

 Dipole moment (field-independent basis, Debye):
    X=             -0.3079    Y=             -0.2913    Z=              0.1013  Tot=              0.4358
 Quadrupole moment (field-independent basis, Debye-Ang):
   XX=            -55.9377   YY=            -63.2067   ZZ=            -74.8871
   XY=             -0.1991   XZ=             -0.4721   YZ=              0.1664

 Normal termination of Gaussian 16 at Thu Dec  7 08:38:37 2023.
