 Gaussian 16, Revision B.01,
 Gaussian 16:  ES64L-G16RevB.01 20-Dec-2017

 -------------------------
 #P B3LYP/6-311+g(d) force
 -------------------------

 -----
 DPGEN
 -----
 Symbolic Z-matrix:
 Charge =  0 Multiplicity = 2

                         Standard orientation:
 ---------------------------------------------------------------------
 Center     Atomic      Atomic             Coordinates (Angstroms)
 Number     Number       Type             X           Y           Z
 ---------------------------------------------------------------------
      1         11           0       -2.196049    1.478315    0.089808
      2         11           0        0.977988    1.091106    0.903075
      3         11           0        1.886075   -2.984659    0.416108
      4         11           0       -1.324259   -1.953260   -0.857315
      5         11           0       -4.543876   -1.043802    0.181102
      6         11           0        4.743863   -0.251366   -0.337917
      7         11           0        0.456257    3.663665   -0.394862
 ---------------------------------------------------------------------

 SCF Done:  E(UB3LYP) =  -1136.12156479     A.U. after   19 cycles

 The electronic state is 2-A.
 Alpha  occ. eigenvalues --  -38.44590 -38.44569 -38.44248 -38.43958 -38.43851
 Alpha  occ. eigenvalues --  -38.43784 -38.43711  -2.20456  -2.20432  -2.20116
 Alpha  occ. eigenvalues --   -2.19776  -2.19632  -2.19548  -2.19532  -1.14296
 Alpha  occ. eigenvalues --   -1.14145  -1.14112  -1.14074  -1.14069  -1.13950
 Alpha  occ. eigenvalues --   -1.13835  -1.13820  -1.13687  -1.13475  -1.13457
 Alpha  occ. eigenvalues --   -1.13378  -1.13279  -1.13272  -1.13234  -1.13232
 Alpha  occ. eigenvalues --   -1.13202  -1.13190  -1.13184  -1.13183  -1.13144
 Alpha  occ. eigenvalues --   -0.16993  -0.13424  -0.13074  -0.10322
 Alpha virt. eigenvalues --   -0.05949  -0.05554  -0.05340  -0.03492  -0.02451
 Alpha virt. eigenvalues --   -0.02329  -0.02079  -0.01459  -0.01357  -0.00615
 Alpha virt. eigenvalues --   -0.00310  -0.00229   0.00468   0.00531   0.00613

  Beta  occ. eigenvalues --  -38.44594 -38.44568 -38.44243 -38.43929 -38.43773
  Beta  occ. eigenvalues --  -38.43742 -38.43668  -2.20460  -2.20435  -2.20110
  Beta  occ. eigenvalues --   -2.19726  -2.19531  -2.19450  -2.19427  -1.14300
  Beta  occ. eigenvalues --   -1.14133  -1.14112  -1.14078  -1.14073  -1.13954
  Beta  occ. eigenvalues --   -1.13830  -1.13814  -1.13672  -1.13443  -1.13425
  Beta  occ. eigenvalues --   -1.13322  -1.13226  -1.13189  -1.13150  -1.13139
  Beta  occ. eigenvalues --   -1.13131  -1.13131  -1.13127  -1.13098  -1.13096
  Beta  occ. eigenvalues --   -0.16755  -0.13032  -0.12405
  Beta virt. eigenvalues --   -0.06743  -0.05857  -0.05539  -0.04902  -0.03001
  Beta virt. eigenvalues --   -0.02297  -0.02131  -0.01712  -0.01383  -0.01013
  Beta virt. eigenvalues --   -0.00329  -0.00009   0.00122   0.00562   0.00631

 Mulliken charges and spin densities:
               1          2
     1  Na  -0.783590   0.076460
     2  Na  -0.514476  -0.065545
     3  Na   0.217998   0.007524
     4  Na  -0.287963   0.152587
     5  Na   0.579275   0.222477
     6  Na   0.034545   0.602401
     7  Na   0.754211   0.004096
 Sum of Mulliken charges =  -0.00000   1.00000

 Dipole moment (field-independent basis, Debye):
    X=             -1.1645    Y=              1.1401    Z=             -0.2139  Tot=              1.6436
 Quadrupole moment (field-independent basis, Debye-Ang):
   XX=            -72.6535   YY=            -58.7475   ZZ=            -69.5179
   XY=              2.0735   XZ=             -0.9708   YZ=             -2.8571

 Normal termination of Gaussian 16 at Wed Nov 29 01:25:55 2023.
