 Gaussian 16, Revision B.01,
 Gaussian 16:  ES64L-G16RevB.01 20-Dec-2017

 -------------------------
 #P B3LYP/6-311+g(d) force
 -------------------------

 -----
 DPGEN
 -----
 Symbolic Z-matrix:
 Charge =  0 Multiplicity = 2

                         Standard orientation:
 ---------------------------------------------------------------------
 Center     Atomic      Atomic             Coordinates (Angstroms)
 Number     Number       Type             X           Y           Z
 ---------------------------------------------------------------------
      1         11           0        0.073366   -0.217540   -1.364216
      2         11           0       -0.907430    0.158417    2.177535
      3         11           0        3.408141   -1.042076   -0.249331
      4         11           0       -0.071985   -2.910416    0.352918
      5         11           0       -3.017126   -1.114693   -0.706545
      6         11           0       -1.792562    2.851322   -0.318257
      7         11           0        2.307596    2.274986    0.107894
 ---------------------------------------------------------------------

 SCF Done:  E(UB3LYP) =  -1136.13151441     A.U. after   20 cycles

 The electronic state is 2-A.
 Alpha  occ. eigenvalues --  -38.44314 -38.44293 -38.44110 -38.43970 -38.43598
 Alpha  occ. eigenvalues --  -38.43570 -38.43262  -2.20140  -2.20064  -2.19892
 Alpha  occ. eigenvalues --   -2.19733  -2.19439  -2.19415  -2.19213  -1.13828
 Alpha  occ. eigenvalues --   -1.13788  -1.13764  -1.13747  -1.13735  -1.13693
 Alpha  occ. eigenvalues --   -1.13569  -1.13542  -1.13532  -1.13411  -1.13387
 Alpha  occ. eigenvalues --   -1.13379  -1.13160  -1.13106  -1.13073  -1.13059
 Alpha  occ. eigenvalues --   -1.13047  -1.13018  -1.12909  -1.12849  -1.12837
 Alpha  occ. eigenvalues --   -0.17871  -0.12946  -0.12168  -0.10411
 Alpha virt. eigenvalues --   -0.05908  -0.05621  -0.04926  -0.02937  -0.02839
 Alpha virt. eigenvalues --   -0.02357  -0.01771  -0.01409  -0.00869  -0.00643
 Alpha virt. eigenvalues --   -0.00054   0.00293   0.00693   0.00750   0.00795

  Beta  occ. eigenvalues --  -38.44294 -38.44288 -38.44111 -38.43968 -38.43588
  Beta  occ. eigenvalues --  -38.43469 -38.43223  -2.20095  -2.20066  -2.19895
  Beta  occ. eigenvalues --   -2.19733  -2.19424  -2.19229  -2.19143  -1.13787
  Beta  occ. eigenvalues --   -1.13748  -1.13741  -1.13737  -1.13733  -1.13696
  Beta  occ. eigenvalues --   -1.13565  -1.13544  -1.13535  -1.13399  -1.13389
  Beta  occ. eigenvalues --   -1.13376  -1.13149  -1.13064  -1.13052  -1.12951
  Beta  occ. eigenvalues --   -1.12923  -1.12884  -1.12853  -1.12802  -1.12779
  Beta  occ. eigenvalues --   -0.17205  -0.12743  -0.12006
  Beta virt. eigenvalues --   -0.06476  -0.05863  -0.05556  -0.04818  -0.02375
  Beta virt. eigenvalues --   -0.02126  -0.01688  -0.01425  -0.01263  -0.00830
  Beta virt. eigenvalues --   -0.00653   0.00139   0.00363   0.00748   0.00790

 Mulliken charges and spin densities:
               1          2
     1  Na   0.243812   0.279978
     2  Na  -0.419685   0.678977
     3  Na   0.037960  -0.019589
     4  Na   0.059066   0.102204
     5  Na   0.262057   0.069544
     6  Na  -0.107316  -0.058203
     7  Na  -0.075893  -0.052911
 Sum of Mulliken charges =  -0.00000   1.00000

 Dipole moment (field-independent basis, Debye):
    X=              0.0376    Y=              0.0194    Z=              0.0449  Tot=              0.0617
 Quadrupole moment (field-independent basis, Debye-Ang):
   XX=            -55.2885   YY=            -60.9462   ZZ=            -76.2900
   XY=             -0.2923   XZ=              1.8034   YZ=             -0.5039

 Normal termination of Gaussian 16 at Thu Dec  7 03:36:05 2023.
