 Gaussian 16, Revision B.01,
 Gaussian 16:  ES64L-G16RevB.01 20-Dec-2017

 -------------------------
 #P B3LYP/6-311+g(d) force
 -------------------------

 -----
 DPGEN
 -----
 Symbolic Z-matrix:
 Charge =  0 Multiplicity = 2

                         Standard orientation:
 ---------------------------------------------------------------------
 Center     Atomic      Atomic             Coordinates (Angstroms)
 Number     Number       Type             X           Y           Z
 ---------------------------------------------------------------------
      1         11           0       -3.892092    0.987238    0.805731
      2         11           0       -1.401803    3.172357   -1.027772
      3         11           0       -3.629833   -2.167227    0.400968
      4         11           0       -0.091552   -3.247734   -0.755487
      5         11           0        1.797845    3.166055   -0.220866
      6         11           0        3.195830   -2.564126   -0.329002
      7         11           0        4.021604    0.653437    1.126427
 ---------------------------------------------------------------------

 SCF Done:  E(UB3LYP) =  -1136.10882626     A.U. after   23 cycles

 The electronic state is 2-A.
 Alpha  occ. eigenvalues --  -38.45137 -38.44785 -38.44735 -38.44642 -38.44485
 Alpha  occ. eigenvalues --  -38.44150 -38.43987  -2.20922  -2.20551  -2.20504
 Alpha  occ. eigenvalues --   -2.20432  -2.20261  -2.19946  -2.19786  -1.14594
 Alpha  occ. eigenvalues --   -1.14589  -1.14564  -1.14232  -1.14226  -1.14198
 Alpha  occ. eigenvalues --   -1.14187  -1.14181  -1.14151  -1.14095  -1.14087
 Alpha  occ. eigenvalues --   -1.14073  -1.13925  -1.13916  -1.13879  -1.13597
 Alpha  occ. eigenvalues --   -1.13583  -1.13573  -1.13441  -1.13435  -1.13419
 Alpha  occ. eigenvalues --   -0.15503  -0.13954  -0.13404  -0.10902
 Alpha virt. eigenvalues --   -0.07708  -0.04775  -0.04656  -0.03615  -0.03499
 Alpha virt. eigenvalues --   -0.02145  -0.01982  -0.01798  -0.01342  -0.01237
 Alpha virt. eigenvalues --   -0.00904  -0.00136   0.00014   0.00330   0.00775

  Beta  occ. eigenvalues --  -38.45115 -38.44783 -38.44730 -38.44622 -38.44433
  Beta  occ. eigenvalues --  -38.44074 -38.43938  -2.20885  -2.20553  -2.20501
  Beta  occ. eigenvalues --   -2.20399  -2.20167  -2.19804  -2.19695  -1.14567
  Beta  occ. eigenvalues --   -1.14566  -1.14523  -1.14238  -1.14228  -1.14190
  Beta  occ. eigenvalues --   -1.14184  -1.14165  -1.14108  -1.14074  -1.14066
  Beta  occ. eigenvalues --   -1.14036  -1.13862  -1.13854  -1.13810  -1.13500
  Beta  occ. eigenvalues --   -1.13489  -1.13480  -1.13379  -1.13374  -1.13355
  Beta  occ. eigenvalues --   -0.14972  -0.13218  -0.12659
  Beta virt. eigenvalues --   -0.07906  -0.07781  -0.04219  -0.04151  -0.03431
  Beta virt. eigenvalues --   -0.03238  -0.01916  -0.01888  -0.01677  -0.01084
  Beta virt. eigenvalues --   -0.00922  -0.00621   0.00106   0.00235   0.00318

 Mulliken charges and spin densities:
               1          2
     1  Na  -0.187349   0.083797
     2  Na  -0.123521   0.202618
     3  Na   0.408473   0.127018
     4  Na  -0.182800   0.238613
     5  Na   0.009148   0.050353
     6  Na   0.102138  -0.057406
     7  Na  -0.026089   0.355007
 Sum of Mulliken charges =  -0.00000   1.00000

 Dipole moment (field-independent basis, Debye):
    X=             -0.5838    Y=             -0.2433    Z=              0.1445  Tot=              0.6487
 Quadrupole moment (field-independent basis, Debye-Ang):
   XX=            -61.1625   YY=            -67.1873   ZZ=            -71.9438
   XY=             -1.2243   XZ=             -0.0997   YZ=              1.0229

 Normal termination of Gaussian 16 at Sun Dec  3 21:27:19 2023.
