 Gaussian 16, Revision B.01,
 Gaussian 16:  ES64L-G16RevB.01 20-Dec-2017

 -------------------------
 #P B3LYP/6-311+g(d) force
 -------------------------

 -----
 DPGEN
 -----
 Symbolic Z-matrix:
 Charge =  0 Multiplicity = 2

                         Standard orientation:
 ---------------------------------------------------------------------
 Center     Atomic      Atomic             Coordinates (Angstroms)
 Number     Number       Type             X           Y           Z
 ---------------------------------------------------------------------
      1         11           0        3.130566    0.357995   -0.299683
      2         11           0        1.404214   -2.284900    0.143757
      3         11           0       -0.071754    0.014744    1.989689
      4         11           0       -2.819559    1.255131   -0.403110
      5         11           0       -2.197812   -2.073526    0.029252
      6         11           0        0.382904    2.848632    0.269878
      7         11           0        0.171441   -0.118076   -1.729783
 ---------------------------------------------------------------------

 SCF Done:  E(UB3LYP) =  -1136.13861698     A.U. after   19 cycles

 The electronic state is 2-A.
 Alpha  occ. eigenvalues --  -38.44002 -38.43922 -38.43537 -38.43456 -38.43422
 Alpha  occ. eigenvalues --  -38.43181 -38.43145  -2.19862  -2.19752  -2.19466
 Alpha  occ. eigenvalues --   -2.19401  -2.19306  -2.19116  -2.18987  -1.13552
 Alpha  occ. eigenvalues --   -1.13530  -1.13492  -1.13430  -1.13414  -1.13388
 Alpha  occ. eigenvalues --   -1.13154  -1.13108  -1.13106  -1.13086  -1.13044
 Alpha  occ. eigenvalues --   -1.13024  -1.12972  -1.12961  -1.12947  -1.12791
 Alpha  occ. eigenvalues --   -1.12776  -1.12725  -1.12671  -1.12651  -1.12613
 Alpha  occ. eigenvalues --   -0.18917  -0.13182  -0.12343  -0.10982
 Alpha virt. eigenvalues --   -0.05618  -0.05045  -0.04464  -0.03296  -0.02921
 Alpha virt. eigenvalues --   -0.02664  -0.01566  -0.01007  -0.00266  -0.00098
 Alpha virt. eigenvalues --   -0.00007   0.00360   0.00804   0.00915   0.00926

  Beta  occ. eigenvalues --  -38.43995 -38.43914 -38.43453 -38.43442 -38.43355
  Beta  occ. eigenvalues --  -38.43171 -38.43138  -2.19853  -2.19739  -2.19305
  Beta  occ. eigenvalues --   -2.19293  -2.19279  -2.19103  -2.18978  -1.13545
  Beta  occ. eigenvalues --   -1.13513  -1.13479  -1.13412  -1.13403  -1.13378
  Beta  occ. eigenvalues --   -1.13062  -1.13016  -1.12987  -1.12981  -1.12969
  Beta  occ. eigenvalues --   -1.12958  -1.12951  -1.12930  -1.12913  -1.12778
  Beta  occ. eigenvalues --   -1.12738  -1.12708  -1.12658  -1.12627  -1.12611
  Beta  occ. eigenvalues --   -0.18173  -0.12915  -0.12087
  Beta virt. eigenvalues --   -0.07058  -0.05559  -0.05051  -0.04433  -0.02514
  Beta virt. eigenvalues --   -0.02124  -0.01607  -0.01460  -0.00950  -0.00284
  Beta virt. eigenvalues --   -0.00149   0.00113   0.00384   0.00868   0.00910

 Mulliken charges and spin densities:
               1          2
     1  Na   0.214558  -0.029212
     2  Na   0.352837  -0.015406
     3  Na  -0.393532   0.689458
     4  Na   0.028531  -0.039542
     5  Na   0.113651  -0.075375
     6  Na   0.045978  -0.072121
     7  Na  -0.362023   0.542199
 Sum of Mulliken charges =  -0.00000   1.00000

 Dipole moment (field-independent basis, Debye):
    X=             -0.0304    Y=              0.0959    Z=              0.0119  Tot=              0.1013
 Quadrupole moment (field-independent basis, Debye-Ang):
   XX=            -55.9452   YY=            -64.7561   ZZ=            -73.0986
   XY=              0.6136   XZ=              0.4054   YZ=             -0.5855

 Normal termination of Gaussian 16 at Thu Dec  7 02:41:36 2023.
