 Gaussian 16, Revision B.01,
 Gaussian 16:  ES64L-G16RevB.01 20-Dec-2017

 -------------------------
 #P B3LYP/6-311+g(d) force
 -------------------------

 -----
 DPGEN
 -----
 Symbolic Z-matrix:
 Charge =  0 Multiplicity = 2

                         Standard orientation:
 ---------------------------------------------------------------------
 Center     Atomic      Atomic             Coordinates (Angstroms)
 Number     Number       Type             X           Y           Z
 ---------------------------------------------------------------------
      1         11           0       -2.380593   -1.900734    0.110455
      2         11           0       -0.508542   -0.012798   -1.413009
      3         11           0        1.429130   -2.758970   -0.296364
      4         11           0        3.038653   -0.051377    0.016755
      5         11           0        0.256835    0.432509    2.097424
      6         11           0        1.169434    2.958972   -0.519841
      7         11           0       -3.004916    1.332399    0.004581
 ---------------------------------------------------------------------

 SCF Done:  E(UB3LYP) =  -1136.13240353     A.U. after   20 cycles

 The electronic state is 2-A.
 Alpha  occ. eigenvalues --  -38.44525 -38.44100 -38.44077 -38.43540 -38.43534
 Alpha  occ. eigenvalues --  -38.43275 -38.43122  -2.20363  -2.19963  -2.19934
 Alpha  occ. eigenvalues --   -2.19396  -2.19346  -2.19121  -2.19109  -1.14060
 Alpha  occ. eigenvalues --   -1.14018  -1.13997  -1.13685  -1.13618  -1.13613
 Alpha  occ. eigenvalues --   -1.13604  -1.13578  -1.13571  -1.13065  -1.13021
 Alpha  occ. eigenvalues --   -1.13021  -1.13018  -1.12993  -1.12986  -1.12815
 Alpha  occ. eigenvalues --   -1.12794  -1.12769  -1.12758  -1.12752  -1.12730
 Alpha  occ. eigenvalues --   -0.18418  -0.13462  -0.12154  -0.10417
 Alpha virt. eigenvalues --   -0.05954  -0.05408  -0.04711  -0.03334  -0.02625
 Alpha virt. eigenvalues --   -0.02290  -0.01709  -0.01267  -0.00596  -0.00481
 Alpha virt. eigenvalues --   -0.00006   0.00346   0.00749   0.00791   0.00857

  Beta  occ. eigenvalues --  -38.44522 -38.44096 -38.44073 -38.43528 -38.43436
  Beta  occ. eigenvalues --  -38.43272 -38.43073  -2.20360  -2.19958  -2.19930
  Beta  occ. eigenvalues --   -2.19327  -2.19215  -2.19106  -2.19033  -1.14055
  Beta  occ. eigenvalues --   -1.14005  -1.13991  -1.13678  -1.13618  -1.13591
  Beta  occ. eigenvalues --   -1.13579  -1.13578  -1.13570  -1.13000  -1.12983
  Beta  occ. eigenvalues --   -1.12975  -1.12941  -1.12892  -1.12882  -1.12789
  Beta  occ. eigenvalues --   -1.12760  -1.12746  -1.12739  -1.12692  -1.12678
  Beta  occ. eigenvalues --   -0.17734  -0.13265  -0.11924
  Beta virt. eigenvalues --   -0.06543  -0.05913  -0.05342  -0.04644  -0.02553
  Beta virt. eigenvalues --   -0.01962  -0.01620  -0.01273  -0.01180  -0.00638
  Beta virt. eigenvalues --   -0.00499   0.00166   0.00390   0.00781   0.00832

 Mulliken charges and spin densities:
               1          2
     1  Na   0.157670   0.089072
     2  Na  -0.255263   0.239394
     3  Na  -0.020265  -0.020392
     4  Na   0.288028   0.077718
     5  Na  -0.461554   0.648942
     6  Na   0.037133  -0.006257
     7  Na   0.254251  -0.028476
 Sum of Mulliken charges =  -0.00000   1.00000

 Dipole moment (field-independent basis, Debye):
    X=             -0.5447    Y=              0.2042    Z=              0.1807  Tot=              0.6092
 Quadrupole moment (field-independent basis, Debye-Ang):
   XX=            -54.8267   YY=            -61.9410   ZZ=            -76.2987
   XY=             -0.2686   XZ=             -1.3541   YZ=             -0.9657

 Normal termination of Gaussian 16 at Thu Dec  7 03:58:05 2023.
