 Gaussian 16, Revision B.01,
 Gaussian 16:  ES64L-G16RevB.01 20-Dec-2017

 -------------------------
 #P B3LYP/6-311+g(d) force
 -------------------------

 -----
 DPGEN
 -----
 Symbolic Z-matrix:
 Charge =  0 Multiplicity = 2

                         Standard orientation:
 ---------------------------------------------------------------------
 Center     Atomic      Atomic             Coordinates (Angstroms)
 Number     Number       Type             X           Y           Z
 ---------------------------------------------------------------------
      1         11           0       -1.428841   -1.323067    1.549472
      2         11           0        1.326935   -2.042838   -0.759188
      3         11           0        1.943640   -0.878038    1.465372
      4         11           0        2.665735    1.480364   -1.491507
      5         11           0        0.430771    2.218941    0.987249
      6         11           0       -2.769972    1.984921   -0.210023
      7         11           0       -2.168268   -1.440281   -1.541375
 ---------------------------------------------------------------------

 SCF Done:  E(UB3LYP) =  -1136.12034751     A.U. after   20 cycles

 The electronic state is 2-A.
 Alpha  occ. eigenvalues --  -38.44393 -38.44231 -38.44155 -38.44112 -38.44109
 Alpha  occ. eigenvalues --  -38.44008 -38.43200  -2.20230  -2.20191  -2.20067
 Alpha  occ. eigenvalues --   -2.19984  -2.19889  -2.19844  -2.19040  -1.14408
 Alpha  occ. eigenvalues --   -1.13863  -1.13853  -1.13838  -1.13821  -1.13781
 Alpha  occ. eigenvalues --   -1.13700  -1.13677  -1.13657  -1.13615  -1.13593
 Alpha  occ. eigenvalues --   -1.13566  -1.13556  -1.13528  -1.13527  -1.13503
 Alpha  occ. eigenvalues --   -1.13483  -1.13452  -1.12718  -1.12715  -1.12672
 Alpha  occ. eigenvalues --   -0.18187  -0.13232  -0.12216  -0.11232
 Alpha virt. eigenvalues --   -0.05937  -0.05073  -0.04676  -0.03815  -0.03174
 Alpha virt. eigenvalues --   -0.02690  -0.01176  -0.00953  -0.00400  -0.00055
 Alpha virt. eigenvalues --    0.00038   0.00213   0.00464   0.00592   0.00681

  Beta  occ. eigenvalues --  -38.44347 -38.44193 -38.44141 -38.44113 -38.44076
  Beta  occ. eigenvalues --  -38.43969 -38.43188  -2.20172  -2.20105  -2.20036
  Beta  occ. eigenvalues --   -2.19927  -2.19892  -2.19771  -2.19021  -1.14374
  Beta  occ. eigenvalues --   -1.13812  -1.13792  -1.13779  -1.13763  -1.13726
  Beta  occ. eigenvalues --   -1.13663  -1.13645  -1.13603  -1.13578  -1.13565
  Beta  occ. eigenvalues --   -1.13559  -1.13550  -1.13528  -1.13492  -1.13449
  Beta  occ. eigenvalues --   -1.13436  -1.13400  -1.12707  -1.12686  -1.12658
  Beta  occ. eigenvalues --   -0.17473  -0.12971  -0.12039
  Beta virt. eigenvalues --   -0.07490  -0.05868  -0.04713  -0.04106  -0.03651
  Beta virt. eigenvalues --   -0.02653  -0.01828  -0.01126  -0.00834  -0.00100
  Beta virt. eigenvalues --   -0.00005   0.00082   0.00298   0.00537   0.00729

 Mulliken charges and spin densities:
               1          2
     1  Na  -0.281711   0.104507
     2  Na  -0.300757   0.288422
     3  Na   0.825237   0.160943
     4  Na  -0.003012   0.078844
     5  Na  -0.436691   0.184460
     6  Na   0.149562  -0.097136
     7  Na   0.047372   0.279960
 Sum of Mulliken charges =  -0.00000   1.00000

 Dipole moment (field-independent basis, Debye):
    X=             -0.2321    Y=              0.0748    Z=             -0.4345  Tot=              0.4983
 Quadrupole moment (field-independent basis, Debye-Ang):
   XX=            -61.3867   YY=            -70.4519   ZZ=            -65.4539
   XY=             -0.1592   XZ=             -0.6590   YZ=             -1.2641

 Normal termination of Gaussian 16 at Thu Dec  7 22:28:22 2023.
