 Gaussian 16, Revision B.01,
 Gaussian 16:  ES64L-G16RevB.01 20-Dec-2017

 -------------------------
 #P B3LYP/6-311+g(d) force
 -------------------------

 -----
 DPGEN
 -----
 Symbolic Z-matrix:
 Charge =  0 Multiplicity = 2

                         Standard orientation:
 ---------------------------------------------------------------------
 Center     Atomic      Atomic             Coordinates (Angstroms)
 Number     Number       Type             X           Y           Z
 ---------------------------------------------------------------------
      1         11           0        0.252774   -1.644677   -1.982716
      2         11           0       -3.534989    1.787711   -0.585128
      3         11           0        0.581585   -1.868341    2.104094
      4         11           0       -2.820040   -1.731553    0.249872
      5         11           0        2.806453    2.193277    0.062314
      6         11           0       -0.424382    2.015836    0.768144
      7         11           0        3.138599   -0.752253   -0.616580
 ---------------------------------------------------------------------

 SCF Done:  E(UB3LYP) =  -1136.11812765     A.U. after   21 cycles

 The electronic state is 2-A.
 Alpha  occ. eigenvalues --  -38.45001 -38.44361 -38.44333 -38.44228 -38.44175
 Alpha  occ. eigenvalues --  -38.44133 -38.43888  -2.20755  -2.20219  -2.20113
 Alpha  occ. eigenvalues --   -2.20027  -2.19971  -2.19968  -2.19688  -1.14441
 Alpha  occ. eigenvalues --   -1.14420  -1.14391  -1.13942  -1.13896  -1.13860
 Alpha  occ. eigenvalues --   -1.13780  -1.13774  -1.13751  -1.13694  -1.13669
 Alpha  occ. eigenvalues --   -1.13649  -1.13634  -1.13625  -1.13611  -1.13605
 Alpha  occ. eigenvalues --   -1.13605  -1.13583  -1.13378  -1.13355  -1.13312
 Alpha  occ. eigenvalues --   -0.17186  -0.13556  -0.12117  -0.10806
 Alpha virt. eigenvalues --   -0.06508  -0.06452  -0.03914  -0.03624  -0.03051
 Alpha virt. eigenvalues --   -0.02579  -0.02106  -0.01641  -0.00970  -0.00399
 Alpha virt. eigenvalues --   -0.00099   0.00170   0.00291   0.00442   0.00587

  Beta  occ. eigenvalues --  -38.45003 -38.44342 -38.44323 -38.44177 -38.44130
  Beta  occ. eigenvalues --  -38.44082 -38.43879  -2.20761  -2.20188  -2.20095
  Beta  occ. eigenvalues --   -2.19965  -2.19933  -2.19795  -2.19674  -1.14436
  Beta  occ. eigenvalues --   -1.14424  -1.14386  -1.13926  -1.13862  -1.13828
  Beta  occ. eigenvalues --   -1.13768  -1.13763  -1.13738  -1.13633  -1.13629
  Beta  occ. eigenvalues --   -1.13609  -1.13600  -1.13597  -1.13577  -1.13502
  Beta  occ. eigenvalues --   -1.13485  -1.13466  -1.13366  -1.13341  -1.13299
  Beta  occ. eigenvalues --   -0.16614  -0.13371  -0.11819
  Beta virt. eigenvalues --   -0.07116  -0.06431  -0.06152  -0.03576  -0.03162
  Beta virt. eigenvalues --   -0.02574  -0.02030  -0.01796  -0.01546  -0.00880
  Beta virt. eigenvalues --   -0.00178   0.00042   0.00349   0.00357   0.00505

 Mulliken charges and spin densities:
               1          2
     1  Na  -0.037620   0.187107
     2  Na   0.421611   0.052579
     3  Na   0.020660   0.431102
     4  Na   0.067559   0.085854
     5  Na   0.420387  -0.120794
     6  Na  -0.887910   0.083693
     7  Na  -0.004686   0.280459
 Sum of Mulliken charges =  -0.00000   1.00000

 Dipole moment (field-independent basis, Debye):
    X=             -0.4292    Y=             -0.1989    Z=             -0.2236  Tot=              0.5232
 Quadrupole moment (field-independent basis, Debye-Ang):
   XX=            -53.8878   YY=            -70.9011   ZZ=            -72.9184
   XY=              1.8017   XZ=              2.1862   YZ=             -1.9156

 Normal termination of Gaussian 16 at Mon Dec  4 00:36:04 2023.
