 Gaussian 16, Revision B.01,
 Gaussian 16:  ES64L-G16RevB.01 20-Dec-2017

 -------------------------
 #P B3LYP/6-311+g(d) force
 -------------------------

 -----
 DPGEN
 -----
 Symbolic Z-matrix:
 Charge =  0 Multiplicity = 2

                         Standard orientation:
 ---------------------------------------------------------------------
 Center     Atomic      Atomic             Coordinates (Angstroms)
 Number     Number       Type             X           Y           Z
 ---------------------------------------------------------------------
      1         11           0        2.334022    1.426968   -0.935273
      2         11           0       -0.848172   -2.124905    0.566011
      3         11           0        2.242182   -1.784977   -0.222688
      4         11           0       -0.819916    2.595412    0.249929
      5         11           0       -3.333580   -0.099253    0.066523
      6         11           0       -0.674913   -0.383663   -1.850887
      7         11           0        1.100376    0.370417    2.126385
 ---------------------------------------------------------------------

 SCF Done:  E(UB3LYP) =  -1136.13492808     A.U. after   18 cycles

 The electronic state is 2-A.
 Alpha  occ. eigenvalues --  -38.44124 -38.43951 -38.43865 -38.43732 -38.43282
 Alpha  occ. eigenvalues --  -38.43065 -38.43013  -2.19970  -2.19848  -2.19823
 Alpha  occ. eigenvalues --   -2.19605  -2.19190  -2.18975  -2.18898  -1.13660
 Alpha  occ. eigenvalues --   -1.13645  -1.13601  -1.13548  -1.13514  -1.13492
 Alpha  occ. eigenvalues --   -1.13462  -1.13456  -1.13422  -1.13278  -1.13264
 Alpha  occ. eigenvalues --   -1.13235  -1.12880  -1.12846  -1.12837  -1.12671
 Alpha  occ. eigenvalues --   -1.12625  -1.12582  -1.12575  -1.12571  -1.12522
 Alpha  occ. eigenvalues --   -0.18937  -0.13319  -0.12094  -0.11468
 Alpha virt. eigenvalues --   -0.05686  -0.04782  -0.04199  -0.03682  -0.03081
 Alpha virt. eigenvalues --   -0.02975  -0.01494  -0.00711  -0.00237   0.00030
 Alpha virt. eigenvalues --    0.00247   0.00387   0.00739   0.00887   0.00951

  Beta  occ. eigenvalues --  -38.44125 -38.43869 -38.43805 -38.43708 -38.43274
  Beta  occ. eigenvalues --  -38.43060 -38.42998  -2.19973  -2.19714  -2.19698
  Beta  occ. eigenvalues --   -2.19562  -2.19181  -2.18950  -2.18891  -1.13656
  Beta  occ. eigenvalues --   -1.13636  -1.13604  -1.13481  -1.13416  -1.13391
  Beta  occ. eigenvalues --   -1.13379  -1.13351  -1.13339  -1.13248  -1.13225
  Beta  occ. eigenvalues --   -1.13195  -1.12876  -1.12840  -1.12800  -1.12653
  Beta  occ. eigenvalues --   -1.12584  -1.12575  -1.12556  -1.12548  -1.12521
  Beta  occ. eigenvalues --   -0.18166  -0.13128  -0.11869
  Beta virt. eigenvalues --   -0.07477  -0.05557  -0.04775  -0.03983  -0.03134
  Beta virt. eigenvalues --   -0.02311  -0.01926  -0.01408  -0.00662  -0.00036
  Beta virt. eigenvalues --    0.00051   0.00226   0.00426   0.00891   0.00935

 Mulliken charges and spin densities:
               1          2
     1  Na   0.204110   0.111720
     2  Na   0.299969   0.154700
     3  Na   0.422414   0.027583
     4  Na  -0.049038   0.026296
     5  Na   0.337199  -0.069095
     6  Na  -0.645418   0.368735
     7  Na  -0.569238   0.380060
 Sum of Mulliken charges =  -0.00000   1.00000

 Dipole moment (field-independent basis, Debye):
    X=             -0.2064    Y=              0.1391    Z=              0.0434  Tot=              0.2526
 Quadrupole moment (field-independent basis, Debye-Ang):
   XX=            -56.4971   YY=            -70.5918   ZZ=            -68.3405
   XY=             -0.7191   XZ=             -2.1119   YZ=             -0.7178

 Normal termination of Gaussian 16 at Sun Dec  3 14:28:15 2023.
