 Gaussian 16, Revision B.01,
 Gaussian 16:  ES64L-G16RevB.01 20-Dec-2017

 -------------------------
 #P B3LYP/6-311+g(d) force
 -------------------------

 -----
 DPGEN
 -----
 Symbolic Z-matrix:
 Charge =  0 Multiplicity = 2

                         Standard orientation:
 ---------------------------------------------------------------------
 Center     Atomic      Atomic             Coordinates (Angstroms)
 Number     Number       Type             X           Y           Z
 ---------------------------------------------------------------------
      1         11           0        0.774539   -0.333257    2.177229
      2         11           0        1.605898   -1.958168   -1.269755
      3         11           0        3.261686    0.080125    0.441903
      4         11           0        1.453754    2.199399   -0.885926
      5         11           0       -0.692385   -0.117391   -0.514026
      6         11           0       -3.293067   -1.450299   -0.003977
      7         11           0       -3.110425    1.579592    0.054553
 ---------------------------------------------------------------------

 SCF Done:  E(UB3LYP) =  -1136.10186079     A.U. after   30 cycles

 The electronic state is 2-A.
 Alpha  occ. eigenvalues --  -38.45150 -38.45105 -38.44843 -38.44403 -38.43404
 Alpha  occ. eigenvalues --  -38.43331 -38.42843  -2.21097  -2.20977  -2.20717
 Alpha  occ. eigenvalues --   -2.20318  -2.19565  -2.19231  -2.18720  -1.14803
 Alpha  occ. eigenvalues --   -1.14758  -1.14737  -1.14727  -1.14645  -1.14610
 Alpha  occ. eigenvalues --   -1.14414  -1.14355  -1.14319  -1.14019  -1.13949
 Alpha  occ. eigenvalues --   -1.13883  -1.13291  -1.13262  -1.13190  -1.12899
 Alpha  occ. eigenvalues --   -1.12874  -1.12826  -1.12402  -1.12383  -1.12339
 Alpha  occ. eigenvalues --   -0.18992  -0.14862  -0.11066  -0.10843
 Alpha virt. eigenvalues --   -0.07087  -0.05698  -0.04004  -0.03311  -0.02724
 Alpha virt. eigenvalues --   -0.02145  -0.02080  -0.01298  -0.00617  -0.00254
 Alpha virt. eigenvalues --    0.00159   0.00184   0.00362   0.00650   0.00758

  Beta  occ. eigenvalues --  -38.45131 -38.45117 -38.44843 -38.44299 -38.43378
  Beta  occ. eigenvalues --  -38.43283 -38.42824  -2.21070  -2.21000  -2.20717
  Beta  occ. eigenvalues --   -2.20125  -2.19524  -2.19145  -2.18686  -1.14762
  Beta  occ. eigenvalues --   -1.14741  -1.14725  -1.14709  -1.14657  -1.14621
  Beta  occ. eigenvalues --   -1.14415  -1.14349  -1.14326  -1.13888  -1.13817
  Beta  occ. eigenvalues --   -1.13749  -1.13245  -1.13200  -1.13169  -1.12837
  Beta  occ. eigenvalues --   -1.12822  -1.12754  -1.12381  -1.12361  -1.12302
  Beta  occ. eigenvalues --   -0.18289  -0.14662  -0.10632
  Beta virt. eigenvalues --   -0.06973  -0.06881  -0.05729  -0.03415  -0.02944
  Beta virt. eigenvalues --   -0.02653  -0.01520  -0.01295  -0.01240  -0.00506
  Beta virt. eigenvalues --    0.00024   0.00197   0.00224   0.00644   0.00683

 Mulliken charges and spin densities:
               1          2
     1  Na  -0.235089   0.298150
     2  Na   0.059637   0.231289
     3  Na   0.578648   0.227562
     4  Na   0.940987   0.023525
     5  Na  -1.611789   0.229172
     6  Na   0.018616   0.019230
     7  Na   0.248990  -0.028928
 Sum of Mulliken charges =  -0.00000   1.00000

 Dipole moment (field-independent basis, Debye):
    X=             -1.0650    Y=             -0.2288    Z=              0.4228  Tot=              1.1685
 Quadrupole moment (field-independent basis, Debye-Ang):
   XX=            -44.9268   YY=            -74.3407   ZZ=            -73.0067
   XY=             -0.1907   XZ=             -1.4237   YZ=              0.8509

 Normal termination of Gaussian 16 at Thu Dec  7 19:26:29 2023.
