 Gaussian 16, Revision B.01,
 Gaussian 16:  ES64L-G16RevB.01 20-Dec-2017

 -------------------------
 #P B3LYP/6-311+g(d) force
 -------------------------

 -----
 DPGEN
 -----
 Symbolic Z-matrix:
 Charge =  0 Multiplicity = 2

                         Standard orientation:
 ---------------------------------------------------------------------
 Center     Atomic      Atomic             Coordinates (Angstroms)
 Number     Number       Type             X           Y           Z
 ---------------------------------------------------------------------
      1         11           0        0.149931   -1.507285    0.442931
      2         11           0        6.409659   -0.278528   -0.124990
      3         11           0        3.275504   -0.258760   -0.462292
      4         11           0        0.839378    2.166431   -0.048199
      5         11           0       -2.057644    1.299493    0.947040
      6         11           0       -3.291003   -1.894812    0.108029
      7         11           0       -5.325826    0.473461   -0.862519
 ---------------------------------------------------------------------

 SCF Done:  E(UB3LYP) =  -1136.11900043     A.U. after   21 cycles

 The electronic state is 2-A.
 Alpha  occ. eigenvalues --  -38.44709 -38.44449 -38.44355 -38.44328 -38.44305
 Alpha  occ. eigenvalues --  -38.43744 -38.43251  -2.20574  -2.20313  -2.20184
 Alpha  occ. eigenvalues --   -2.20161  -2.20156  -2.19516  -2.19110  -1.14276
 Alpha  occ. eigenvalues --   -1.14249  -1.14194  -1.13985  -1.13983  -1.13913
 Alpha  occ. eigenvalues --   -1.13870  -1.13855  -1.13846  -1.13819  -1.13815
 Alpha  occ. eigenvalues --   -1.13811  -1.13806  -1.13767  -1.13742  -1.13197
 Alpha  occ. eigenvalues --   -1.13178  -1.13177  -1.12800  -1.12778  -1.12717
 Alpha  occ. eigenvalues --   -0.17469  -0.14215  -0.11868  -0.11454
 Alpha virt. eigenvalues --   -0.06953  -0.05532  -0.04254  -0.03740  -0.03158
 Alpha virt. eigenvalues --   -0.02496  -0.02012  -0.01454  -0.00998  -0.00646
 Alpha virt. eigenvalues --   -0.00290  -0.00113   0.00068   0.00290   0.00634

  Beta  occ. eigenvalues --  -38.44672 -38.44374 -38.44323 -38.44296 -38.44265
  Beta  occ. eigenvalues --  -38.43764 -38.43246  -2.20510  -2.20177  -2.20130
  Beta  occ. eigenvalues --   -2.20099  -2.20083  -2.19553  -2.19098  -1.14227
  Beta  occ. eigenvalues --   -1.14191  -1.14144  -1.13894  -1.13885  -1.13834
  Beta  occ. eigenvalues --   -1.13824  -1.13817  -1.13792  -1.13773  -1.13764
  Beta  occ. eigenvalues --   -1.13757  -1.13752  -1.13725  -1.13686  -1.13220
  Beta  occ. eigenvalues --   -1.13203  -1.13202  -1.12782  -1.12769  -1.12727
  Beta  occ. eigenvalues --   -0.16717  -0.14066  -0.11498
  Beta virt. eigenvalues --   -0.07754  -0.06730  -0.04914  -0.04026  -0.03435
  Beta virt. eigenvalues --   -0.02582  -0.02111  -0.01863  -0.01372  -0.00659
  Beta virt. eigenvalues --   -0.00523  -0.00042   0.00082   0.00258   0.00411

 Mulliken charges and spin densities:
               1          2
     1  Na   0.304578   0.702200
     2  Na   0.119915  -0.137950
     3  Na  -0.632577  -0.192720
     4  Na   0.697390   0.332746
     5  Na  -0.827944   0.129954
     6  Na   0.054824   0.008118
     7  Na   0.283814   0.157653
 Sum of Mulliken charges =  -0.00000   1.00000

 Dipole moment (field-independent basis, Debye):
    X=             -1.6048    Y=              0.4628    Z=              0.0067  Tot=              1.6702
 Quadrupole moment (field-independent basis, Debye-Ang):
   XX=            -62.1963   YY=            -67.2130   ZZ=            -70.6836
   XY=              0.6489   XZ=              2.9347   YZ=             -1.0732

 Normal termination of Gaussian 16 at Wed Nov 29 03:22:11 2023.
