 Gaussian 16, Revision B.01,
 Gaussian 16:  ES64L-G16RevB.01 20-Dec-2017

 -------------------------
 #P B3LYP/6-311+g(d) force
 -------------------------

 -----
 DPGEN
 -----
 Symbolic Z-matrix:
 Charge =  0 Multiplicity = 2

                         Standard orientation:
 ---------------------------------------------------------------------
 Center     Atomic      Atomic             Coordinates (Angstroms)
 Number     Number       Type             X           Y           Z
 ---------------------------------------------------------------------
      1         11           0        3.303275   -0.490201    0.055601
      2         11           0        1.151047    2.756994   -0.561859
      3         11           0        0.596829   -2.766181   -0.404684
      4         11           0       -2.994303   -1.393978    0.210394
      5         11           0       -2.177168    1.836937    0.551281
      6         11           0        0.680566   -0.037301    2.110253
      7         11           0       -0.560247    0.093729   -1.960987
 ---------------------------------------------------------------------

 SCF Done:  E(UB3LYP) =  -1136.13629774     A.U. after   19 cycles

 The electronic state is 2-A.
 Alpha  occ. eigenvalues --  -38.44289 -38.44166 -38.43922 -38.43742 -38.43597
 Alpha  occ. eigenvalues --  -38.43416 -38.43307  -2.20088  -2.20012  -2.19729
 Alpha  occ. eigenvalues --   -2.19636  -2.19449  -2.19237  -2.19121  -1.13783
 Alpha  occ. eigenvalues --   -1.13746  -1.13728  -1.13671  -1.13642  -1.13629
 Alpha  occ. eigenvalues --   -1.13407  -1.13398  -1.13372  -1.13310  -1.13283
 Alpha  occ. eigenvalues --   -1.13254  -1.13121  -1.13113  -1.13075  -1.12926
 Alpha  occ. eigenvalues --   -1.12907  -1.12853  -1.12803  -1.12774  -1.12756
 Alpha  occ. eigenvalues --   -0.18101  -0.12988  -0.12107  -0.11075
 Alpha virt. eigenvalues --   -0.05823  -0.05055  -0.04630  -0.03501  -0.03063
 Alpha virt. eigenvalues --   -0.02845  -0.01573  -0.01026  -0.00391  -0.00278
 Alpha virt. eigenvalues --   -0.00084   0.00380   0.00695   0.00788   0.00874

  Beta  occ. eigenvalues --  -38.44290 -38.44090 -38.43920 -38.43667 -38.43584
  Beta  occ. eigenvalues --  -38.43406 -38.43295  -2.20093  -2.19871  -2.19727
  Beta  occ. eigenvalues --   -2.19499  -2.19427  -2.19221  -2.19101  -1.13769
  Beta  occ. eigenvalues --   -1.13743  -1.13734  -1.13579  -1.13547  -1.13529
  Beta  occ. eigenvalues --   -1.13407  -1.13384  -1.13367  -1.13223  -1.13190
  Beta  occ. eigenvalues --   -1.13152  -1.13102  -1.13084  -1.13055  -1.12909
  Beta  occ. eigenvalues --   -1.12886  -1.12844  -1.12777  -1.12755  -1.12744
  Beta  occ. eigenvalues --   -0.17369  -0.12790  -0.11871
  Beta virt. eigenvalues --   -0.07243  -0.05679  -0.05056  -0.04452  -0.02821
  Beta virt. eigenvalues --   -0.02337  -0.01887  -0.01476  -0.00948  -0.00388
  Beta virt. eigenvalues --   -0.00295   0.00062   0.00410   0.00819   0.00887

 Mulliken charges and spin densities:
               1          2
     1  Na   0.173150  -0.075695
     2  Na   0.041464  -0.034112
     3  Na  -0.002215  -0.102341
     4  Na   0.025232  -0.076080
     5  Na   0.105154   0.098877
     6  Na  -0.286243   0.602622
     7  Na  -0.056542   0.586728
 Sum of Mulliken charges =  -0.00000   1.00000

 Dipole moment (field-independent basis, Debye):
    X=              0.2059    Y=             -0.1323    Z=              0.1474  Tot=              0.2857
 Quadrupole moment (field-independent basis, Debye-Ang):
   XX=            -57.1840   YY=            -66.4830   ZZ=            -71.4693
   XY=              0.9178   XZ=             -2.3126   YZ=              0.1259

 Normal termination of Gaussian 16 at Tue Dec  5 15:44:34 2023.
