 Gaussian 16, Revision B.01,
 Gaussian 16:  ES64L-G16RevB.01 20-Dec-2017

 -------------------------
 #P B3LYP/6-311+g(d) force
 -------------------------

 -----
 DPGEN
 -----
 Symbolic Z-matrix:
 Charge =  0 Multiplicity = 2

                         Standard orientation:
 ---------------------------------------------------------------------
 Center     Atomic      Atomic             Coordinates (Angstroms)
 Number     Number       Type             X           Y           Z
 ---------------------------------------------------------------------
      1         11           0       -0.396677    1.649836    0.188052
      2         11           0        2.680026    3.462572    0.045088
      3         11           0        3.120879   -0.088748   -0.552514
      4         11           0        0.513163   -1.485080    1.339493
      5         11           0       -3.159991   -0.818148    0.421614
      6         11           0        2.671484   -3.078936   -0.679475
      7         11           0       -5.428883    0.358505   -0.762258
 ---------------------------------------------------------------------

 SCF Done:  E(UB3LYP) =  -1136.12214661     A.U. after   19 cycles

 The electronic state is 2-A.
 Alpha  occ. eigenvalues --  -38.44392 -38.44308 -38.44258 -38.44131 -38.43786
 Alpha  occ. eigenvalues --  -38.43610 -38.43575  -2.20204  -2.20172  -2.20129
 Alpha  occ. eigenvalues --   -2.20016  -2.19650  -2.19483  -2.19363  -1.13941
 Alpha  occ. eigenvalues --   -1.13912  -1.13901  -1.13812  -1.13800  -1.13786
 Alpha  occ. eigenvalues --   -1.13779  -1.13774  -1.13739  -1.13711  -1.13682
 Alpha  occ. eigenvalues --   -1.13661  -1.13305  -1.13288  -1.13267  -1.13149
 Alpha  occ. eigenvalues --   -1.13134  -1.13120  -1.13029  -1.13027  -1.12987
 Alpha  occ. eigenvalues --   -0.17171  -0.14242  -0.12386  -0.11194
 Alpha virt. eigenvalues --   -0.05623  -0.05199  -0.04914  -0.03910  -0.02545
 Alpha virt. eigenvalues --   -0.02348  -0.01895  -0.01693  -0.01327  -0.00568
 Alpha virt. eigenvalues --   -0.00243   0.00040   0.00451   0.00546   0.00574

  Beta  occ. eigenvalues --  -38.44368 -38.44229 -38.44206 -38.44099 -38.43767
  Beta  occ. eigenvalues --  -38.43603 -38.43563  -2.20163  -2.20037  -2.20024
  Beta  occ. eigenvalues --   -2.19957  -2.19616  -2.19481  -2.19340  -1.13878
  Beta  occ. eigenvalues --   -1.13866  -1.13848  -1.13763  -1.13751  -1.13741
  Beta  occ. eigenvalues --   -1.13678  -1.13673  -1.13672  -1.13665  -1.13627
  Beta  occ. eigenvalues --   -1.13609  -1.13272  -1.13260  -1.13250  -1.13145
  Beta  occ. eigenvalues --   -1.13142  -1.13054  -1.13014  -1.13007  -1.12975
  Beta  occ. eigenvalues --   -0.16503  -0.13480  -0.12239
  Beta virt. eigenvalues --   -0.07694  -0.05289  -0.05068  -0.04427  -0.03590
  Beta virt. eigenvalues --   -0.02348  -0.02008  -0.01650  -0.01418  -0.01051
  Beta virt. eigenvalues --   -0.00253   0.00035   0.00176   0.00559   0.00613

 Mulliken charges and spin densities:
               1          2
     1  Na  -0.813667  -0.115476
     2  Na   0.649635   0.137514
     3  Na  -0.725576   0.335460
     4  Na  -0.428257   0.197017
     5  Na  -0.262221   0.215913
     6  Na   0.653093  -0.002183
     7  Na   0.926992   0.231755
 Sum of Mulliken charges =  -0.00000   1.00000

 Dipole moment (field-independent basis, Debye):
    X=              0.4025    Y=             -0.2172    Z=             -0.0690  Tot=              0.4625
 Quadrupole moment (field-independent basis, Debye-Ang):
   XX=            -66.1024   YY=            -61.9964   ZZ=            -69.7461
   XY=             -1.9736   XZ=              1.3063   YZ=             -0.0842

 Normal termination of Gaussian 16 at Wed Nov 29 00:15:46 2023.
