 Gaussian 16, Revision B.01,
 Gaussian 16:  ES64L-G16RevB.01 20-Dec-2017

 -------------------------
 #P B3LYP/6-311+g(d) force
 -------------------------

 -----
 DPGEN
 -----
 Symbolic Z-matrix:
 Charge =  0 Multiplicity = 2

                         Standard orientation:
 ---------------------------------------------------------------------
 Center     Atomic      Atomic             Coordinates (Angstroms)
 Number     Number       Type             X           Y           Z
 ---------------------------------------------------------------------
      1         11           0        1.363947    2.654324   -1.188114
      2         11           0        3.066858   -0.352749   -1.560895
      3         11           0       -3.674147   -1.409982   -0.770888
      4         11           0       -2.819118    1.822967    0.838428
      5         11           0        2.082119   -1.966337    1.958633
      6         11           0       -0.595040   -1.661633   -1.234448
      7         11           0        0.575382    0.913410    1.957284
 ---------------------------------------------------------------------

 SCF Done:  E(UB3LYP) =  -1136.11726727     A.U. after   23 cycles

 The electronic state is 2-A.
 Alpha  occ. eigenvalues --  -38.44910 -38.44642 -38.44376 -38.44330 -38.44099
 Alpha  occ. eigenvalues --  -38.43853 -38.43704  -2.20699  -2.20457  -2.20126
 Alpha  occ. eigenvalues --   -2.20108  -2.19939  -2.19653  -2.19510  -1.14375
 Alpha  occ. eigenvalues --   -1.14349  -1.14318  -1.14146  -1.14097  -1.14055
 Alpha  occ. eigenvalues --   -1.13815  -1.13784  -1.13783  -1.13770  -1.13752
 Alpha  occ. eigenvalues --   -1.13733  -1.13616  -1.13584  -1.13562  -1.13356
 Alpha  occ. eigenvalues --   -1.13327  -1.13319  -1.13168  -1.13142  -1.13137
 Alpha  occ. eigenvalues --   -0.17077  -0.13217  -0.12249  -0.11383
 Alpha virt. eigenvalues --   -0.06156  -0.05713  -0.04499  -0.03412  -0.03235
 Alpha virt. eigenvalues --   -0.02898  -0.01844  -0.01231  -0.00938  -0.00427
 Alpha virt. eigenvalues --   -0.00011   0.00121   0.00251   0.00328   0.00706

  Beta  occ. eigenvalues --  -38.44865 -38.44571 -38.44368 -38.44301 -38.44043
  Beta  occ. eigenvalues --  -38.43839 -38.43702  -2.20618  -2.20326  -2.20111
  Beta  occ. eigenvalues --   -2.20057  -2.19838  -2.19628  -2.19509  -1.14313
  Beta  occ. eigenvalues --   -1.14295  -1.14258  -1.14040  -1.14012  -1.13970
  Beta  occ. eigenvalues --   -1.13802  -1.13775  -1.13748  -1.13745  -1.13737
  Beta  occ. eigenvalues --   -1.13684  -1.13552  -1.13519  -1.13469  -1.13340
  Beta  occ. eigenvalues --   -1.13310  -1.13299  -1.13167  -1.13139  -1.13134
  Beta  occ. eigenvalues --   -0.16353  -0.12892  -0.11258
  Beta virt. eigenvalues --   -0.08278  -0.06000  -0.05332  -0.04087  -0.03074
  Beta virt. eigenvalues --   -0.02817  -0.02288  -0.01706  -0.01108  -0.00563
  Beta virt. eigenvalues --   -0.00275   0.00026   0.00264   0.00337   0.00489

 Mulliken charges and spin densities:
               1          2
     1  Na  -0.032343   0.113173
     2  Na   0.241346   0.228405
     3  Na   0.203973  -0.124264
     4  Na  -0.035494   0.004720
     5  Na   0.283720   0.159144
     6  Na  -0.473331   0.220643
     7  Na  -0.187871   0.398178
 Sum of Mulliken charges =  -0.00000   1.00000

 Dipole moment (field-independent basis, Debye):
    X=              0.5339    Y=             -0.0127    Z=             -0.0574  Tot=              0.5372
 Quadrupole moment (field-independent basis, Debye-Ang):
   XX=            -56.6944   YY=            -71.4755   ZZ=            -68.2179
   XY=             -3.3587   XZ=             -2.0463   YZ=             -3.9715

 Normal termination of Gaussian 16 at Sun Dec  3 12:55:25 2023.
