 Gaussian 16, Revision B.01,
 Gaussian 16:  ES64L-G16RevB.01 20-Dec-2017

 -------------------------
 #P B3LYP/6-311+g(d) force
 -------------------------

 -----
 DPGEN
 -----
 Symbolic Z-matrix:
 Charge =  0 Multiplicity = 2

                         Standard orientation:
 ---------------------------------------------------------------------
 Center     Atomic      Atomic             Coordinates (Angstroms)
 Number     Number       Type             X           Y           Z
 ---------------------------------------------------------------------
      1         11           0        0.016974   -0.139190   -0.206720
      2         11           0       -2.609382   -2.304693   -1.005480
      3         11           0       -3.841407    0.144446    0.619337
      4         11           0       -1.074927    3.095907    0.361090
      5         11           0        2.176339    2.461070   -0.387942
      6         11           0        3.165789   -0.427357   -0.351585
      7         11           0        2.166613   -2.830183    0.971300
 ---------------------------------------------------------------------

 SCF Done:  E(UB3LYP) =  -1136.11947976     A.U. after   22 cycles

 The electronic state is 2-A.
 Alpha  occ. eigenvalues --  -38.45269 -38.44150 -38.43964 -38.43921 -38.43485
 Alpha  occ. eigenvalues --  -38.43206 -38.43203  -2.21056  -2.20071  -2.19943
 Alpha  occ. eigenvalues --   -2.19762  -2.19361  -2.19116  -2.19040  -1.14738
 Alpha  occ. eigenvalues --   -1.14719  -1.14697  -1.13801  -1.13777  -1.13718
 Alpha  occ. eigenvalues --   -1.13679  -1.13589  -1.13576  -1.13415  -1.13399
 Alpha  occ. eigenvalues --   -1.13394  -1.13016  -1.12987  -1.12968  -1.12797
 Alpha  occ. eigenvalues --   -1.12762  -1.12753  -1.12703  -1.12698  -1.12646
 Alpha  occ. eigenvalues --   -0.17556  -0.14316  -0.12853  -0.09904
 Alpha virt. eigenvalues --   -0.06670  -0.05422  -0.04492  -0.03123  -0.02895
 Alpha virt. eigenvalues --   -0.02547  -0.01711  -0.01419  -0.01101  -0.00380
 Alpha virt. eigenvalues --    0.00030   0.00171   0.00343   0.00645   0.00716

  Beta  occ. eigenvalues --  -38.45268 -38.44157 -38.43939 -38.43875 -38.43430
  Beta  occ. eigenvalues --  -38.43164 -38.43163  -2.21059  -2.20084  -2.19908
  Beta  occ. eigenvalues --   -2.19675  -2.19259  -2.19046  -2.18961  -1.14745
  Beta  occ. eigenvalues --   -1.14718  -1.14670  -1.13797  -1.13784  -1.13731
  Beta  occ. eigenvalues --   -1.13586  -1.13576  -1.13566  -1.13355  -1.13341
  Beta  occ. eigenvalues --   -1.13338  -1.12948  -1.12916  -1.12900  -1.12741
  Beta  occ. eigenvalues --   -1.12719  -1.12699  -1.12649  -1.12642  -1.12591
  Beta  occ. eigenvalues --   -0.17208  -0.13699  -0.12369
  Beta virt. eigenvalues --   -0.06650  -0.06431  -0.05091  -0.04282  -0.02789
  Beta virt. eigenvalues --   -0.02452  -0.02310  -0.01500  -0.01122  -0.00870
  Beta virt. eigenvalues --   -0.00157   0.00262   0.00354   0.00463   0.00731

 Mulliken charges and spin densities:
               1          2
     1  Na  -3.650449  -0.077461
     2  Na   0.969995   0.212891
     3  Na   1.097759  -0.034719
     4  Na   0.158824   0.225402
     5  Na   0.458543   0.228878
     6  Na   0.433283   0.202000
     7  Na   0.532045   0.243009
 Sum of Mulliken charges =  -0.00000   1.00000

 Dipole moment (field-independent basis, Debye):
    X=             -0.8861    Y=             -0.2744    Z=              0.2548  Tot=              0.9620
 Quadrupole moment (field-independent basis, Debye-Ang):
   XX=            -58.8917   YY=            -67.1707   ZZ=            -70.9627
   XY=             -0.1576   XZ=             -2.8786   YZ=              0.8277

 Normal termination of Gaussian 16 at Fri Dec  8 19:53:02 2023.
