 Gaussian 16, Revision B.01,
 Gaussian 16:  ES64L-G16RevB.01 20-Dec-2017

 -------------------------
 #P B3LYP/6-311+g(d) force
 -------------------------

 -----
 DPGEN
 -----
 Symbolic Z-matrix:
 Charge =  0 Multiplicity = 2

                         Standard orientation:
 ---------------------------------------------------------------------
 Center     Atomic      Atomic             Coordinates (Angstroms)
 Number     Number       Type             X           Y           Z
 ---------------------------------------------------------------------
      1         11           0        2.481314   -0.890885   -1.113330
      2         11           0        4.997259   -1.918346    0.300447
      3         11           0        3.762922    1.098463    0.813635
      4         11           0        0.367602    2.957274   -0.043715
      5         11           0       -0.934049    0.135702   -0.867842
      6         11           0       -4.008688   -0.944825    1.308171
      7         11           0       -6.666360   -0.437383   -0.397365
 ---------------------------------------------------------------------

 SCF Done:  E(UB3LYP) =  -1136.11277940     A.U. after   20 cycles

 The electronic state is 2-A.
 Alpha  occ. eigenvalues --  -38.44360 -38.44358 -38.44355 -38.44314 -38.44181
 Alpha  occ. eigenvalues --  -38.43975 -38.43389  -2.20241  -2.20228  -2.20212
 Alpha  occ. eigenvalues --   -2.20130  -2.19961  -2.19772  -2.19226  -1.14064
 Alpha  occ. eigenvalues --   -1.13971  -1.13912  -1.13889  -1.13880  -1.13855
 Alpha  occ. eigenvalues --   -1.13839  -1.13800  -1.13787  -1.13785  -1.13775
 Alpha  occ. eigenvalues --   -1.13752  -1.13629  -1.13619  -1.13583  -1.13444
 Alpha  occ. eigenvalues --   -1.13435  -1.13409  -1.12894  -1.12886  -1.12847
 Alpha  occ. eigenvalues --   -0.16794  -0.13887  -0.12290  -0.10432
 Alpha virt. eigenvalues --   -0.06402  -0.05767  -0.04416  -0.03836  -0.02887
 Alpha virt. eigenvalues --   -0.02361  -0.01924  -0.01665  -0.01306  -0.00703
 Alpha virt. eigenvalues --   -0.00329  -0.00022   0.00324   0.00486   0.00612

  Beta  occ. eigenvalues --  -38.44352 -38.44339 -38.44300 -38.44274 -38.44186
  Beta  occ. eigenvalues --  -38.43951 -38.43354  -2.20204  -2.20161  -2.20125
  Beta  occ. eigenvalues --   -2.20101  -2.19970  -2.19730  -2.19161  -1.14005
  Beta  occ. eigenvalues --   -1.13935  -1.13868  -1.13853  -1.13838  -1.13818
  Beta  occ. eigenvalues --   -1.13784  -1.13774  -1.13767  -1.13764  -1.13714
  Beta  occ. eigenvalues --   -1.13696  -1.13636  -1.13624  -1.13580  -1.13416
  Beta  occ. eigenvalues --   -1.13402  -1.13372  -1.12850  -1.12832  -1.12809
  Beta  occ. eigenvalues --   -0.16163  -0.13760  -0.12061
  Beta virt. eigenvalues --   -0.06903  -0.06018  -0.05446  -0.04007  -0.03589
  Beta virt. eigenvalues --   -0.02576  -0.02127  -0.01624  -0.01443  -0.01092
  Beta virt. eigenvalues --   -0.00490  -0.00050   0.00193   0.00494   0.00584

 Mulliken charges and spin densities:
               1          2
     1  Na  -0.335990   0.310719
     2  Na   0.976747  -0.013045
     3  Na  -0.265337   0.306235
     4  Na   0.347137   0.145353
     5  Na  -0.911264   0.222725
     6  Na  -0.013159  -0.035805
     7  Na   0.201867   0.063817
 Sum of Mulliken charges =  -0.00000   1.00000

 Dipole moment (field-independent basis, Debye):
    X=              0.6870    Y=             -0.4102    Z=              0.1972  Tot=              0.8241
 Quadrupole moment (field-independent basis, Debye-Ang):
   XX=            -54.4328   YY=            -68.4159   ZZ=            -68.8016
   XY=             -8.9501   XZ=              6.2155   YZ=             -2.4521

 Normal termination of Gaussian 16 at Wed Nov 29 01:22:07 2023.
