 Gaussian 16, Revision B.01,
 Gaussian 16:  ES64L-G16RevB.01 20-Dec-2017

 -------------------------
 #P B3LYP/6-311+g(d) force
 -------------------------

 -----
 DPGEN
 -----
 Symbolic Z-matrix:
 Charge =  0 Multiplicity = 2

                         Standard orientation:
 ---------------------------------------------------------------------
 Center     Atomic      Atomic             Coordinates (Angstroms)
 Number     Number       Type             X           Y           Z
 ---------------------------------------------------------------------
      1         11           0        5.236812   -0.290945   -0.273185
      2         11           0       -1.230245    3.519087    0.255465
      3         11           0       -1.317210   -3.250428    0.718808
      4         11           0        2.478861    2.601661    0.228917
      5         11           0       -4.038667   -2.125258   -0.375847
      6         11           0        2.957202   -2.174454   -0.235430
      7         11           0       -4.086754    1.720338   -0.318728
 ---------------------------------------------------------------------

 SCF Done:  E(UB3LYP) =  -1136.10419553     A.U. after   22 cycles

 The electronic state is 2-A.
 Alpha  occ. eigenvalues --  -38.45583 -38.44972 -38.44964 -38.44780 -38.44086
 Alpha  occ. eigenvalues --  -38.44069 -38.43867  -2.21382  -2.20799  -2.20730
 Alpha  occ. eigenvalues --   -2.20556  -2.19883  -2.19813  -2.19660  -1.15092
 Alpha  occ. eigenvalues --   -1.15037  -1.15022  -1.14459  -1.14442  -1.14421
 Alpha  occ. eigenvalues --   -1.14392  -1.14381  -1.14324  -1.14243  -1.14229
 Alpha  occ. eigenvalues --   -1.14206  -1.13531  -1.13528  -1.13523  -1.13507
 Alpha  occ. eigenvalues --   -1.13503  -1.13464  -1.13316  -1.13302  -1.13276
 Alpha  occ. eigenvalues --   -0.15472  -0.14186  -0.12952  -0.10880
 Alpha virt. eigenvalues --   -0.07689  -0.05179  -0.04630  -0.03628  -0.03258
 Alpha virt. eigenvalues --   -0.02658  -0.02457  -0.01869  -0.01095  -0.00977
 Alpha virt. eigenvalues --   -0.00708  -0.00287  -0.00022   0.00302   0.00519

  Beta  occ. eigenvalues --  -38.45560 -38.44952 -38.44874 -38.44791 -38.44093
  Beta  occ. eigenvalues --  -38.44046 -38.43798  -2.21344  -2.20765  -2.20580
  Beta  occ. eigenvalues --   -2.20562  -2.19862  -2.19807  -2.19530  -1.15052
  Beta  occ. eigenvalues --   -1.15013  -1.14993  -1.14426  -1.14421  -1.14395
  Beta  occ. eigenvalues --   -1.14279  -1.14269  -1.14255  -1.14249  -1.14208
  Beta  occ. eigenvalues --   -1.14202  -1.13546  -1.13540  -1.13481  -1.13479
  Beta  occ. eigenvalues --   -1.13473  -1.13458  -1.13227  -1.13216  -1.13198
  Beta  occ. eigenvalues --   -0.14944  -0.13717  -0.12323
  Beta virt. eigenvalues --   -0.07634  -0.07605  -0.04788  -0.04148  -0.03437
  Beta virt. eigenvalues --   -0.02885  -0.02512  -0.02256  -0.01695  -0.00956
  Beta virt. eigenvalues --   -0.00703  -0.00392   0.00041   0.00127   0.00374

 Mulliken charges and spin densities:
               1          2
     1  Na   0.857469   0.068554
     2  Na   0.206422  -0.239495
     3  Na  -0.496255   0.198556
     4  Na  -0.089551   0.508696
     5  Na   0.199302  -0.032320
     6  Na  -0.481825   0.162629
     7  Na  -0.195562   0.333380
 Sum of Mulliken charges =  -0.00000   1.00000

 Dipole moment (field-independent basis, Debye):
    X=              1.7803    Y=             -0.8189    Z=             -0.1527  Tot=              1.9656
 Quadrupole moment (field-independent basis, Debye-Ang):
   XX=            -52.5385   YY=            -72.7565   ZZ=            -74.2126
   XY=              3.9998   XZ=              1.5851   YZ=              0.3732

 Normal termination of Gaussian 16 at Mon Dec  4 00:43:57 2023.
