 Gaussian 16, Revision B.01,
 Gaussian 16:  ES64L-G16RevB.01 20-Dec-2017

 -------------------------
 #P B3LYP/6-311+g(d) force
 -------------------------

 -----
 DPGEN
 -----
 Symbolic Z-matrix:
 Charge =  0 Multiplicity = 2

                         Standard orientation:
 ---------------------------------------------------------------------
 Center     Atomic      Atomic             Coordinates (Angstroms)
 Number     Number       Type             X           Y           Z
 ---------------------------------------------------------------------
      1         11           0        0.300673   -0.263176    2.094580
      2         11           0       -2.900573   -1.623732    0.565365
      3         11           0       -2.078260    2.151392    0.354640
      4         11           0        1.042402    1.879911   -0.756305
      5         11           0       -1.106705   -0.035614   -1.768754
      6         11           0        3.634221    0.070678    0.443604
      7         11           0        1.108243   -2.179458   -0.933129
 ---------------------------------------------------------------------

 SCF Done:  E(UB3LYP) =  -1136.12958318     A.U. after   21 cycles

 The electronic state is 2-A.
 Alpha  occ. eigenvalues --  -38.44564 -38.44554 -38.44069 -38.43614 -38.43420
 Alpha  occ. eigenvalues --  -38.43307 -38.42769  -2.20396  -2.20365  -2.19866
 Alpha  occ. eigenvalues --   -2.19458  -2.19428  -2.19175  -2.18699  -1.14072
 Alpha  occ. eigenvalues --   -1.14040  -1.14037  -1.14030  -1.14011  -1.13989
 Alpha  occ. eigenvalues --   -1.13550  -1.13521  -1.13502  -1.13222  -1.13131
 Alpha  occ. eigenvalues --   -1.13112  -1.13077  -1.13062  -1.13014  -1.12842
 Alpha  occ. eigenvalues --   -1.12836  -1.12802  -1.12412  -1.12360  -1.12293
 Alpha  occ. eigenvalues --   -0.18648  -0.13324  -0.11569  -0.11516
 Alpha virt. eigenvalues --   -0.06286  -0.04957  -0.04102  -0.03329  -0.02980
 Alpha virt. eigenvalues --   -0.02883  -0.01994  -0.00914  -0.00497   0.00032
 Alpha virt. eigenvalues --    0.00223   0.00309   0.00449   0.00748   0.00847

  Beta  occ. eigenvalues --  -38.44562 -38.44479 -38.44064 -38.43582 -38.43353
  Beta  occ. eigenvalues --  -38.43302 -38.42751  -2.20363  -2.20256  -2.19858
  Beta  occ. eigenvalues --   -2.19402  -2.19308  -2.19168  -2.18671  -1.14036
  Beta  occ. eigenvalues --   -1.14017  -1.14002  -1.13978  -1.13941  -1.13897
  Beta  occ. eigenvalues --   -1.13542  -1.13507  -1.13496  -1.13157  -1.13064
  Beta  occ. eigenvalues --   -1.13055  -1.13028  -1.12990  -1.12939  -1.12833
  Beta  occ. eigenvalues --   -1.12816  -1.12787  -1.12386  -1.12317  -1.12280
  Beta  occ. eigenvalues --   -0.17858  -0.13164  -0.11309
  Beta virt. eigenvalues --   -0.07554  -0.06105  -0.04917  -0.03683  -0.03005
  Beta virt. eigenvalues --   -0.02249  -0.01949  -0.01844  -0.00864  -0.00261
  Beta virt. eigenvalues --    0.00088   0.00209   0.00322   0.00626   0.00810

 Mulliken charges and spin densities:
               1          2
     1  Na  -0.386761   0.586982
     2  Na  -0.093517   0.008496
     3  Na   0.105511   0.093956
     4  Na  -0.264995   0.096017
     5  Na   0.538942   0.176427
     6  Na   0.330563   0.000523
     7  Na  -0.229743   0.037600
 Sum of Mulliken charges =  -0.00000   1.00000

 Dipole moment (field-independent basis, Debye):
    X=              0.3429    Y=             -0.2391    Z=              0.6537  Tot=              0.7760
 Quadrupole moment (field-independent basis, Debye-Ang):
   XX=            -51.8052   YY=            -72.7766   ZZ=            -69.2371
   XY=             -0.4829   XZ=             -1.1347   YZ=              1.1193

 Normal termination of Gaussian 16 at Thu Dec  7 23:15:55 2023.
