 Gaussian 16, Revision B.01,
 Gaussian 16:  ES64L-G16RevB.01 20-Dec-2017

 -------------------------
 #P B3LYP/6-311+g(d) force
 -------------------------

 -----
 DPGEN
 -----
 Symbolic Z-matrix:
 Charge =  0 Multiplicity = 2

                         Standard orientation:
 ---------------------------------------------------------------------
 Center     Atomic      Atomic             Coordinates (Angstroms)
 Number     Number       Type             X           Y           Z
 ---------------------------------------------------------------------
      1         11           0        4.348261    1.671728   -0.050765
      2         11           0        4.009722   -1.188874   -0.249838
      3         11           0       -4.714290   -0.199118   -0.543889
      4         11           0       -2.792927    2.568697   -0.344119
      5         11           0       -2.281273   -1.936225    1.047704
      6         11           0        0.706832    1.222558    0.860803
      7         11           0        0.723676   -2.138766   -0.719896
 ---------------------------------------------------------------------

 SCF Done:  E(UB3LYP) =  -1136.11138643     A.U. after   24 cycles

 The electronic state is 2-A.
 Alpha  occ. eigenvalues --  -38.44973 -38.44742 -38.44555 -38.44448 -38.44337
 Alpha  occ. eigenvalues --  -38.43986 -38.43204  -2.20842  -2.20540  -2.20339
 Alpha  occ. eigenvalues --   -2.20205  -2.20183  -2.19811  -2.19020  -1.14583
 Alpha  occ. eigenvalues --   -1.14492  -1.14461  -1.14226  -1.14177  -1.14145
 Alpha  occ. eigenvalues --   -1.14033  -1.14002  -1.13974  -1.13893  -1.13867
 Alpha  occ. eigenvalues --   -1.13857  -1.13850  -1.13821  -1.13803  -1.13465
 Alpha  occ. eigenvalues --   -1.13458  -1.13432  -1.12693  -1.12678  -1.12662
 Alpha  occ. eigenvalues --   -0.16760  -0.14592  -0.11500  -0.11051
 Alpha virt. eigenvalues --   -0.07335  -0.05038  -0.04676  -0.03555  -0.03250
 Alpha virt. eigenvalues --   -0.02662  -0.02137  -0.01406  -0.00908  -0.00557
 Alpha virt. eigenvalues --   -0.00244  -0.00197   0.00226   0.00507   0.00625

  Beta  occ. eigenvalues --  -38.44937 -38.44658 -38.44548 -38.44453 -38.44318
  Beta  occ. eigenvalues --  -38.43933 -38.43192  -2.20778  -2.20385  -2.20330
  Beta  occ. eigenvalues --   -2.20216  -2.20151  -2.19710  -2.18999  -1.14534
  Beta  occ. eigenvalues --   -1.14450  -1.14409  -1.14122  -1.14070  -1.14031
  Beta  occ. eigenvalues --   -1.14023  -1.13999  -1.13948  -1.13903  -1.13878
  Beta  occ. eigenvalues --   -1.13840  -1.13818  -1.13801  -1.13775  -1.13394
  Beta  occ. eigenvalues --   -1.13389  -1.13373  -1.12677  -1.12662  -1.12649
  Beta  occ. eigenvalues --   -0.16130  -0.14067  -0.11337
  Beta virt. eigenvalues --   -0.07460  -0.07174  -0.04520  -0.04382  -0.03354
  Beta virt. eigenvalues --   -0.02785  -0.02210  -0.02007  -0.01117  -0.00772
  Beta virt. eigenvalues --   -0.00334  -0.00155   0.00055   0.00370   0.00598

 Mulliken charges and spin densities:
               1          2
     1  Na   0.326925   0.083258
     2  Na   0.062211   0.193820
     3  Na  -0.202528   0.248474
     4  Na   0.336832  -0.104602
     5  Na   0.455178   0.183913
     6  Na  -0.858622   0.474834
     7  Na  -0.119997  -0.079697
 Sum of Mulliken charges =  -0.00000   1.00000

 Dipole moment (field-independent basis, Debye):
    X=              0.5701    Y=              0.0696    Z=             -0.0476  Tot=              0.5763
 Quadrupole moment (field-independent basis, Debye-Ang):
   XX=            -64.2372   YY=            -68.0824   ZZ=            -68.8292
   XY=              0.0342   XZ=             -0.2238   YZ=             -0.6863

 Normal termination of Gaussian 16 at Sun Dec  3 19:10:04 2023.
