 Gaussian 16, Revision B.01,
 Gaussian 16:  ES64L-G16RevB.01 20-Dec-2017

 -------------------------
 #P B3LYP/6-311+g(d) force
 -------------------------

 -----
 DPGEN
 -----
 Symbolic Z-matrix:
 Charge =  0 Multiplicity = 2

                         Standard orientation:
 ---------------------------------------------------------------------
 Center     Atomic      Atomic             Coordinates (Angstroms)
 Number     Number       Type             X           Y           Z
 ---------------------------------------------------------------------
      1         11           0       -0.117559   -2.766159    0.111350
      2         11           0       -0.170164    0.003767   -1.338724
      3         11           0        2.235839    2.131803   -0.104002
      4         11           0        2.679080   -1.069614   -0.642813
      5         11           0       -1.986112    2.428771   -0.203332
      6         11           0       -3.063514   -0.833705   -0.119415
      7         11           0        0.422430    0.105137    2.296938
 ---------------------------------------------------------------------

 SCF Done:  E(UB3LYP) =  -1136.13436551     A.U. after   19 cycles

 The electronic state is 2-A.
 Alpha  occ. eigenvalues --  -38.44092 -38.43904 -38.43745 -38.43710 -38.43698
 Alpha  occ. eigenvalues --  -38.42943 -38.42911  -2.19934  -2.19759  -2.19607
 Alpha  occ. eigenvalues --   -2.19566  -2.19550  -2.19016  -2.18807  -1.13627
 Alpha  occ. eigenvalues --   -1.13593  -1.13565  -1.13412  -1.13383  -1.13377
 Alpha  occ. eigenvalues --   -1.13333  -1.13278  -1.13263  -1.13246  -1.13224
 Alpha  occ. eigenvalues --   -1.13213  -1.13200  -1.13189  -1.13166  -1.12728
 Alpha  occ. eigenvalues --   -1.12671  -1.12651  -1.12474  -1.12457  -1.12436
 Alpha  occ. eigenvalues --   -0.18739  -0.13273  -0.12242  -0.10920
 Alpha virt. eigenvalues --   -0.05622  -0.05258  -0.04438  -0.03187  -0.02864
 Alpha virt. eigenvalues --   -0.02690  -0.01544  -0.01108  -0.00416  -0.00214
 Alpha virt. eigenvalues --   -0.00008   0.00336   0.00777   0.00859   0.00920

  Beta  occ. eigenvalues --  -38.44091 -38.43790 -38.43743 -38.43706 -38.43678
  Beta  occ. eigenvalues --  -38.42905 -38.42900  -2.19934  -2.19574  -2.19565
  Beta  occ. eigenvalues --   -2.19550  -2.19545  -2.18940  -2.18800  -1.13623
  Beta  occ. eigenvalues --   -1.13586  -1.13565  -1.13313  -1.13272  -1.13262
  Beta  occ. eigenvalues --   -1.13256  -1.13240  -1.13229  -1.13217  -1.13206
  Beta  occ. eigenvalues --   -1.13202  -1.13188  -1.13178  -1.13156  -1.12680
  Beta  occ. eigenvalues --   -1.12612  -1.12593  -1.12463  -1.12436  -1.12421
  Beta  occ. eigenvalues --   -0.18032  -0.13037  -0.12034
  Beta virt. eigenvalues --   -0.06887  -0.05607  -0.05203  -0.04414  -0.02460
  Beta virt. eigenvalues --   -0.02017  -0.01635  -0.01456  -0.01037  -0.00452
  Beta virt. eigenvalues --   -0.00219   0.00152   0.00385   0.00853   0.00875

 Mulliken charges and spin densities:
               1          2
     1  Na   0.312848   0.122431
     2  Na  -0.612015  -0.043915
     3  Na   0.192643   0.034242
     4  Na   0.455738   0.120628
     5  Na   0.156066   0.002519
     6  Na   0.185570   0.028601
     7  Na  -0.690851   0.735494
 Sum of Mulliken charges =  -0.00000   1.00000

 Dipole moment (field-independent basis, Debye):
    X=             -0.1929    Y=              0.2218    Z=              0.2895  Tot=              0.4125
 Quadrupole moment (field-independent basis, Debye-Ang):
   XX=            -56.4387   YY=            -63.1424   ZZ=            -73.9203
   XY=              0.6593   XZ=             -1.3550   YZ=             -0.0627

 Normal termination of Gaussian 16 at Thu Dec  7 17:32:44 2023.
