 Gaussian 16, Revision B.01,
 Gaussian 16:  ES64L-G16RevB.01 20-Dec-2017

 -------------------------
 #P B3LYP/6-311+g(d) force
 -------------------------

 -----
 DPGEN
 -----
 Symbolic Z-matrix:
 Charge =  0 Multiplicity = 2

                         Standard orientation:
 ---------------------------------------------------------------------
 Center     Atomic      Atomic             Coordinates (Angstroms)
 Number     Number       Type             X           Y           Z
 ---------------------------------------------------------------------
      1         11           0        2.980970   -1.467823    0.124530
      2         11           0       -1.406131    2.589325    0.239376
      3         11           0       -3.400626   -0.043338   -0.344338
      4         11           0       -0.207580   -0.372623    2.120090
      5         11           0       -0.940481   -2.652126   -0.351285
      6         11           0        0.207231    0.034380   -1.504996
      7         11           0        2.766618    1.912206   -0.283377
 ---------------------------------------------------------------------

 SCF Done:  E(UB3LYP) =  -1136.13239364     A.U. after   20 cycles

 The electronic state is 2-A.
 Alpha  occ. eigenvalues --  -38.44706 -38.44588 -38.44043 -38.43579 -38.43397
 Alpha  occ. eigenvalues --  -38.43247 -38.42976  -2.20517  -2.20386  -2.19846
 Alpha  occ. eigenvalues --   -2.19445  -2.19356  -2.19074  -2.18845  -1.14187
 Alpha  occ. eigenvalues --   -1.14173  -1.14158  -1.14063  -1.14050  -1.14022
 Alpha  occ. eigenvalues --   -1.13526  -1.13503  -1.13484  -1.13118  -1.13078
 Alpha  occ. eigenvalues --   -1.13056  -1.13053  -1.13025  -1.12970  -1.12749
 Alpha  occ. eigenvalues --   -1.12738  -1.12712  -1.12540  -1.12504  -1.12458
 Alpha  occ. eigenvalues --   -0.18276  -0.13391  -0.11880  -0.10559
 Alpha virt. eigenvalues --   -0.06292  -0.05522  -0.04199  -0.03264  -0.02658
 Alpha virt. eigenvalues --   -0.02455  -0.02082  -0.01295  -0.00551  -0.00362
 Alpha virt. eigenvalues --   -0.00064   0.00287   0.00674   0.00796   0.00841

  Beta  occ. eigenvalues --  -38.44698 -38.44587 -38.44040 -38.43476 -38.43349
  Beta  occ. eigenvalues --  -38.43241 -38.42966  -2.20505  -2.20386  -2.19843
  Beta  occ. eigenvalues --   -2.19270  -2.19255  -2.19066  -2.18830  -1.14172
  Beta  occ. eigenvalues --   -1.14159  -1.14149  -1.14053  -1.14048  -1.14019
  Beta  occ. eigenvalues --   -1.13515  -1.13499  -1.13481  -1.13014  -1.12973
  Beta  occ. eigenvalues --   -1.12957  -1.12946  -1.12917  -1.12906  -1.12744
  Beta  occ. eigenvalues --   -1.12712  -1.12708  -1.12527  -1.12478  -1.12441
  Beta  occ. eigenvalues --   -0.17580  -0.13188  -0.11650
  Beta virt. eigenvalues --   -0.06663  -0.06206  -0.05496  -0.04161  -0.02570
  Beta virt. eigenvalues --   -0.02010  -0.01890  -0.01403  -0.01229  -0.00586
  Beta virt. eigenvalues --   -0.00375   0.00108   0.00334   0.00754   0.00803

 Mulliken charges and spin densities:
               1          2
     1  Na   0.176880  -0.014568
     2  Na   0.000893   0.001695
     3  Na   0.164997   0.009868
     4  Na  -0.452114   0.751357
     5  Na   0.180252   0.000199
     6  Na  -0.134197   0.276569
     7  Na   0.063289  -0.025121
 Sum of Mulliken charges =  -0.00000   1.00000

 Dipole moment (field-independent basis, Debye):
    X=              0.2060    Y=             -0.1307    Z=              0.1160  Tot=              0.2701
 Quadrupole moment (field-independent basis, Debye-Ang):
   XX=            -50.9767   YY=            -66.0467   ZZ=            -75.5412
   XY=             -0.1962   XZ=              1.1947   YZ=              0.4693

 Normal termination of Gaussian 16 at Thu Dec  7 14:02:29 2023.
