 Gaussian 16, Revision B.01,
 Gaussian 16:  ES64L-G16RevB.01 20-Dec-2017

 -------------------------
 #P B3LYP/6-311+g(d) force
 -------------------------

 -----
 DPGEN
 -----
 Symbolic Z-matrix:
 Charge =  0 Multiplicity = 2

                         Standard orientation:
 ---------------------------------------------------------------------
 Center     Atomic      Atomic             Coordinates (Angstroms)
 Number     Number       Type             X           Y           Z
 ---------------------------------------------------------------------
      1         11           0       -1.193171   -2.374207   -0.800316
      2         11           0        1.378096    0.339227    1.869437
      3         11           0        1.211177   -2.985967    0.892168
      4         11           0        2.272209   -0.307689   -1.732845
      5         11           0       -4.339943    0.805665    0.233554
      6         11           0        1.613568    3.432682   -0.037537
      7         11           0       -0.941935    1.090290   -0.424462
 ---------------------------------------------------------------------

 SCF Done:  E(UB3LYP) =  -1136.12203101     A.U. after   20 cycles

 The electronic state is 2-A.
 Alpha  occ. eigenvalues --  -38.44771 -38.44642 -38.44518 -38.43975 -38.43974
 Alpha  occ. eigenvalues --  -38.43784 -38.42984  -2.20547  -2.20469  -2.20328
 Alpha  occ. eigenvalues --   -2.19841  -2.19716  -2.19648  -2.18878  -1.14226
 Alpha  occ. eigenvalues --   -1.14209  -1.14180  -1.14174  -1.14145  -1.14086
 Alpha  occ. eigenvalues --   -1.13999  -1.13976  -1.13927  -1.13536  -1.13495
 Alpha  occ. eigenvalues --   -1.13436  -1.13390  -1.13388  -1.13349  -1.13332
 Alpha  occ. eigenvalues --   -1.13286  -1.13272  -1.12601  -1.12572  -1.12463
 Alpha  occ. eigenvalues --   -0.17885  -0.12999  -0.12043  -0.10683
 Alpha virt. eigenvalues --   -0.06594  -0.05864  -0.04314  -0.03260  -0.02629
 Alpha virt. eigenvalues --   -0.02531  -0.02047  -0.01704  -0.00566  -0.00517
 Alpha virt. eigenvalues --   -0.00049   0.00155   0.00206   0.00577   0.00715

  Beta  occ. eigenvalues --  -38.44774 -38.44635 -38.44437 -38.43986 -38.43903
  Beta  occ. eigenvalues --  -38.43766 -38.42971  -2.20554  -2.20456  -2.20177
  Beta  occ. eigenvalues --   -2.19738  -2.19711  -2.19618  -2.18859  -1.14231
  Beta  occ. eigenvalues --   -1.14200  -1.14180  -1.14171  -1.14132  -1.14072
  Beta  occ. eigenvalues --   -1.13888  -1.13873  -1.13822  -1.13449  -1.13405
  Beta  occ. eigenvalues --   -1.13405  -1.13403  -1.13363  -1.13338  -1.13315
  Beta  occ. eigenvalues --   -1.13256  -1.13235  -1.12587  -1.12534  -1.12455
  Beta  occ. eigenvalues --   -0.17155  -0.12878  -0.11940
  Beta virt. eigenvalues --   -0.06758  -0.06388  -0.05702  -0.04147  -0.02653
  Beta virt. eigenvalues --   -0.02251  -0.01984  -0.01845  -0.01218  -0.00590
  Beta virt. eigenvalues --   -0.00228   0.00092   0.00269   0.00301   0.00602

 Mulliken charges and spin densities:
               1          2
     1  Na  -0.093213   0.161215
     2  Na  -0.151844   0.256065
     3  Na   0.406532   0.037390
     4  Na   0.019306   0.342515
     5  Na   0.213863  -0.105109
     6  Na   0.815238  -0.073714
     7  Na  -1.209883   0.381639
 Sum of Mulliken charges =  -0.00000   1.00000

 Dipole moment (field-independent basis, Debye):
    X=              0.6991    Y=              0.3691    Z=             -0.0144  Tot=              0.7907
 Quadrupole moment (field-independent basis, Debye-Ang):
   XX=            -61.3938   YY=            -56.4358   ZZ=            -74.1641
   XY=              3.3498   XZ=             -1.5945   YZ=              0.2787

 Normal termination of Gaussian 16 at Thu Dec  7 21:21:39 2023.
