 Gaussian 16, Revision B.01,
 Gaussian 16:  ES64L-G16RevB.01 20-Dec-2017

 -------------------------
 #P B3LYP/6-311+g(d) force
 -------------------------

 -----
 DPGEN
 -----
 Symbolic Z-matrix:
 Charge =  0 Multiplicity = 2

                         Standard orientation:
 ---------------------------------------------------------------------
 Center     Atomic      Atomic             Coordinates (Angstroms)
 Number     Number       Type             X           Y           Z
 ---------------------------------------------------------------------
      1         11           0       -3.908700   -1.233981    0.144383
      2         11           0       -0.157486    0.136588    2.195161
      3         11           0        2.291604   -2.430528    0.185732
      4         11           0        0.070653   -0.821215   -1.461428
      5         11           0        0.734109    2.605139    0.108464
      6         11           0       -2.335894    1.214465   -0.776975
      7         11           0        3.305714    0.529533   -0.395337
 ---------------------------------------------------------------------

 SCF Done:  E(UB3LYP) =  -1136.12135987     A.U. after   23 cycles

 The electronic state is 2-A.
 Alpha  occ. eigenvalues --  -38.45148 -38.45104 -38.44409 -38.43845 -38.43756
 Alpha  occ. eigenvalues --  -38.43295 -38.42251  -2.20993  -2.20887  -2.20300
 Alpha  occ. eigenvalues --   -2.19699  -2.19672  -2.19154  -2.18131  -1.14667
 Alpha  occ. eigenvalues --   -1.14648  -1.14634  -1.14594  -1.14538  -1.14522
 Alpha  occ. eigenvalues --   -1.13998  -1.13983  -1.13914  -1.13372  -1.13357
 Alpha  occ. eigenvalues --   -1.13328  -1.13321  -1.13313  -1.13283  -1.12831
 Alpha  occ. eigenvalues --   -1.12818  -1.12787  -1.11806  -1.11796  -1.11783
 Alpha  occ. eigenvalues --   -0.18322  -0.13911  -0.11586  -0.10732
 Alpha virt. eigenvalues --   -0.07180  -0.05145  -0.03837  -0.03637  -0.02877
 Alpha virt. eigenvalues --   -0.02548  -0.02369  -0.01356  -0.00482  -0.00263
 Alpha virt. eigenvalues --   -0.00012   0.00143   0.00501   0.00643   0.00739

  Beta  occ. eigenvalues --  -38.45136 -38.45115 -38.44371 -38.43738 -38.43737
  Beta  occ. eigenvalues --  -38.43291 -38.42245  -2.20971  -2.20908  -2.20234
  Beta  occ. eigenvalues --   -2.19641  -2.19497  -2.19149  -2.18124  -1.14640
  Beta  occ. eigenvalues --   -1.14635  -1.14619  -1.14609  -1.14544  -1.14536
  Beta  occ. eigenvalues --   -1.13947  -1.13925  -1.13866  -1.13345  -1.13296
  Beta  occ. eigenvalues --   -1.13263  -1.13221  -1.13179  -1.13173  -1.12828
  Beta  occ. eigenvalues --   -1.12817  -1.12766  -1.11804  -1.11792  -1.11750
  Beta  occ. eigenvalues --   -0.17604  -0.13776  -0.11410
  Beta virt. eigenvalues --   -0.07038  -0.06786  -0.05055  -0.03798  -0.03022
  Beta virt. eigenvalues --   -0.02513  -0.01917  -0.01515  -0.01253  -0.00456
  Beta virt. eigenvalues --   -0.00084   0.00035   0.00189   0.00632   0.00724

 Mulliken charges and spin densities:
               1          2
     1  Na   0.089864  -0.081106
     2  Na  -0.644738   0.697113
     3  Na   0.406090  -0.019140
     4  Na  -0.495608   0.243197
     5  Na   0.138873   0.050203
     6  Na   0.429899   0.086691
     7  Na   0.075619   0.023043
 Sum of Mulliken charges =  -0.00000   1.00000

 Dipole moment (field-independent basis, Debye):
    X=             -0.2169    Y=             -0.3970    Z=              0.1112  Tot=              0.4659
 Quadrupole moment (field-independent basis, Debye-Ang):
   XX=            -50.5236   YY=            -69.7959   ZZ=            -74.2267
   XY=              3.6577   XZ=             -0.8470   YZ=             -2.5611

 Normal termination of Gaussian 16 at Thu Dec  7 21:50:01 2023.
