 Gaussian 16, Revision B.01,
 Gaussian 16:  ES64L-G16RevB.01 20-Dec-2017

 -------------------------
 #P B3LYP/6-311+g(d) force
 -------------------------

 -----
 DPGEN
 -----
 Symbolic Z-matrix:
 Charge =  0 Multiplicity = 2

                         Standard orientation:
 ---------------------------------------------------------------------
 Center     Atomic      Atomic             Coordinates (Angstroms)
 Number     Number       Type             X           Y           Z
 ---------------------------------------------------------------------
      1         11           0       -0.459957    0.063653   -1.514391
      2         11           0       -0.406715   -2.786054    0.016693
      3         11           0       -3.181433   -0.730128   -0.135731
      4         11           0        0.256052    0.375696    2.145488
      5         11           0       -1.092363    2.979773    0.161274
      6         11           0        2.265511    1.477386   -0.760129
      7         11           0        2.618905   -1.380326    0.086796
 ---------------------------------------------------------------------

 SCF Done:  E(UB3LYP) =  -1136.13420794     A.U. after   19 cycles

 The electronic state is 2-A.
 Alpha  occ. eigenvalues --  -38.44129 -38.43815 -38.43736 -38.43647 -38.43439
 Alpha  occ. eigenvalues --  -38.43406 -38.43096  -2.19953  -2.19688  -2.19564
 Alpha  occ. eigenvalues --   -2.19546  -2.19311  -2.19307  -2.19115  -1.13656
 Alpha  occ. eigenvalues --   -1.13608  -1.13579  -1.13354  -1.13325  -1.13310
 Alpha  occ. eigenvalues --   -1.13304  -1.13251  -1.13218  -1.13206  -1.13189
 Alpha  occ. eigenvalues --   -1.13170  -1.13038  -1.12982  -1.12969  -1.12947
 Alpha  occ. eigenvalues --   -1.12945  -1.12901  -1.12784  -1.12759  -1.12728
 Alpha  occ. eigenvalues --   -0.18779  -0.12991  -0.12553  -0.10964
 Alpha virt. eigenvalues --   -0.05645  -0.05080  -0.04556  -0.03143  -0.03048
 Alpha virt. eigenvalues --   -0.02715  -0.01448  -0.01220  -0.00242  -0.00166
 Alpha virt. eigenvalues --    0.00008   0.00346   0.00831   0.00857   0.00943

  Beta  occ. eigenvalues --  -38.44127 -38.43732 -38.43717 -38.43620 -38.43435
  Beta  occ. eigenvalues --  -38.43401 -38.43042  -2.19952  -2.19543  -2.19519
  Beta  occ. eigenvalues --   -2.19506  -2.19307  -2.19302  -2.19019  -1.13648
  Beta  occ. eigenvalues --   -1.13602  -1.13579  -1.13289  -1.13238  -1.13215
  Beta  occ. eigenvalues --   -1.13205  -1.13201  -1.13197  -1.13182  -1.13156
  Beta  occ. eigenvalues --   -1.13131  -1.13034  -1.12974  -1.12953  -1.12943
  Beta  occ. eigenvalues --   -1.12913  -1.12897  -1.12719  -1.12681  -1.12665
  Beta  occ. eigenvalues --   -0.18056  -0.12751  -0.12322
  Beta virt. eigenvalues --   -0.07003  -0.05623  -0.04992  -0.04530  -0.02424
  Beta virt. eigenvalues --   -0.02274  -0.01650  -0.01350  -0.01133  -0.00241
  Beta virt. eigenvalues --   -0.00190   0.00138   0.00386   0.00846   0.00895

 Mulliken charges and spin densities:
               1          2
     1  Na  -0.292340   0.125839
     2  Na   0.093877   0.031877
     3  Na   0.176567  -0.030064
     4  Na  -0.597415   0.713076
     5  Na   0.032859  -0.026084
     6  Na   0.473132   0.112967
     7  Na   0.113320   0.072389
 Sum of Mulliken charges =  -0.00000   1.00000

 Dipole moment (field-independent basis, Debye):
    X=             -0.4744    Y=              0.1584    Z=              0.2988  Tot=              0.5826
 Quadrupole moment (field-independent basis, Debye-Ang):
   XX=            -58.5452   YY=            -62.0631   ZZ=            -73.4037
   XY=             -0.8275   XZ=             -1.2830   YZ=             -0.8303

 Normal termination of Gaussian 16 at Thu Dec  7 09:31:03 2023.
