 Gaussian 16, Revision B.01,
 Gaussian 16:  ES64L-G16RevB.01 20-Dec-2017

 -------------------------
 #P B3LYP/6-311+g(d) force
 -------------------------

 -----
 DPGEN
 -----
 Symbolic Z-matrix:
 Charge =  0 Multiplicity = 2

                         Standard orientation:
 ---------------------------------------------------------------------
 Center     Atomic      Atomic             Coordinates (Angstroms)
 Number     Number       Type             X           Y           Z
 ---------------------------------------------------------------------
      1         11           0        3.558337   -0.157439   -0.203538
      2         11           0        0.158853    0.548895    2.038301
      3         11           0       -0.145049   -0.323487   -1.769667
      4         11           0        1.278552   -2.287194    0.468645
      5         11           0        0.730002    2.668985   -0.559374
      6         11           0       -2.744275    1.371038    0.278270
      7         11           0       -2.836419   -1.820797   -0.252638
 ---------------------------------------------------------------------

 SCF Done:  E(UB3LYP) =  -1136.13152214     A.U. after   20 cycles

 The electronic state is 2-A.
 Alpha  occ. eigenvalues --  -38.45109 -38.44184 -38.43716 -38.43709 -38.43656
 Alpha  occ. eigenvalues --  -38.43292 -38.42854  -2.20899  -2.20027  -2.19595
 Alpha  occ. eigenvalues --   -2.19578  -2.19537  -2.19171  -2.18701  -1.14575
 Alpha  occ. eigenvalues --   -1.14564  -1.14532  -1.13713  -1.13696  -1.13660
 Alpha  occ. eigenvalues --   -1.13282  -1.13261  -1.13235  -1.13227  -1.13224
 Alpha  occ. eigenvalues --   -1.13214  -1.13200  -1.13183  -1.13155  -1.12856
 Alpha  occ. eigenvalues --   -1.12835  -1.12792  -1.12390  -1.12365  -1.12319
 Alpha  occ. eigenvalues --   -0.18409  -0.13389  -0.11818  -0.10925
 Alpha virt. eigenvalues --   -0.06474  -0.05070  -0.04003  -0.03452  -0.02923
 Alpha virt. eigenvalues --   -0.02608  -0.02145  -0.01088  -0.00286  -0.00198
 Alpha virt. eigenvalues --   -0.00045   0.00304   0.00657   0.00735   0.00852

  Beta  occ. eigenvalues --  -38.45111 -38.44177 -38.43715 -38.43624 -38.43588
  Beta  occ. eigenvalues --  -38.43277 -38.42839  -2.20904  -2.20018  -2.19538
  Beta  occ. eigenvalues --   -2.19455  -2.19438  -2.19147  -2.18677  -1.14579
  Beta  occ. eigenvalues --   -1.14554  -1.14535  -1.13705  -1.13670  -1.13659
  Beta  occ. eigenvalues --   -1.13214  -1.13199  -1.13189  -1.13174  -1.13159
  Beta  occ. eigenvalues --   -1.13141  -1.13117  -1.13099  -1.13086  -1.12841
  Beta  occ. eigenvalues --   -1.12794  -1.12775  -1.12371  -1.12337  -1.12300
  Beta  occ. eigenvalues --   -0.17668  -0.13211  -0.11580
  Beta virt. eigenvalues --   -0.07008  -0.06379  -0.05050  -0.03925  -0.02730
  Beta virt. eigenvalues --   -0.02225  -0.02018  -0.01593  -0.01023  -0.00319
  Beta virt. eigenvalues --   -0.00130   0.00057   0.00328   0.00802   0.00825

 Mulliken charges and spin densities:
               1          2
     1  Na   0.063226  -0.107150
     2  Na  -0.233370   0.546718
     3  Na  -0.214789   0.608936
     4  Na   0.123731   0.057353
     5  Na  -0.048295  -0.042589
     6  Na   0.216377   0.003360
     7  Na   0.093120  -0.066629
 Sum of Mulliken charges =  -0.00000   1.00000

 Dipole moment (field-independent basis, Debye):
    X=              0.4197    Y=              0.0848    Z=              0.0560  Tot=              0.4319
 Quadrupole moment (field-independent basis, Debye-Ang):
   XX=            -51.0290   YY=            -69.1346   ZZ=            -73.3284
   XY=              0.6943   XZ=             -1.3072   YZ=             -1.2342

 Normal termination of Gaussian 16 at Tue Dec  5 22:59:49 2023.
