 Gaussian 16, Revision B.01,
 Gaussian 16:  ES64L-G16RevB.01 20-Dec-2017

 -------------------------
 #P B3LYP/6-311+g(d) force
 -------------------------

 -----
 DPGEN
 -----
 Symbolic Z-matrix:
 Charge =  0 Multiplicity = 2

                         Standard orientation:
 ---------------------------------------------------------------------
 Center     Atomic      Atomic             Coordinates (Angstroms)
 Number     Number       Type             X           Y           Z
 ---------------------------------------------------------------------
      1         11           0       -1.171703    2.908090    0.082881
      2         11           0       -4.881653    1.092180    0.576907
      3         11           0       -5.181087   -2.365518   -0.315832
      4         11           0       -2.266361   -1.004458    0.055117
      5         11           0        1.124022    0.255157   -0.477915
      6         11           0        5.631634    0.096686   -1.263859
      7         11           0        6.745149   -0.982137    1.342700
 ---------------------------------------------------------------------

 SCF Done:  E(UB3LYP) =  -1136.11497357     A.U. after   19 cycles

 The electronic state is 2-A.
 Alpha  occ. eigenvalues --  -38.44603 -38.44388 -38.44361 -38.44244 -38.44005
 Alpha  occ. eigenvalues --  -38.43938 -38.43555  -2.20395  -2.20181  -2.20174
 Alpha  occ. eigenvalues --   -2.20010  -2.19864  -2.19757  -2.19345  -1.14112
 Alpha  occ. eigenvalues --   -1.14046  -1.14043  -1.13858  -1.13846  -1.13836
 Alpha  occ. eigenvalues --   -1.13827  -1.13800  -1.13768  -1.13695  -1.13666
 Alpha  occ. eigenvalues --   -1.13634  -1.13567  -1.13551  -1.13505  -1.13414
 Alpha  occ. eigenvalues --   -1.13401  -1.13356  -1.13017  -1.13010  -1.12955
 Alpha  occ. eigenvalues --   -0.16070  -0.13745  -0.12287  -0.10617
 Alpha virt. eigenvalues --   -0.06271  -0.05630  -0.04684  -0.03587  -0.02932
 Alpha virt. eigenvalues --   -0.02456  -0.02138  -0.01835  -0.01139  -0.00940
 Alpha virt. eigenvalues --   -0.00412  -0.00055   0.00038   0.00417   0.00586

  Beta  occ. eigenvalues --  -38.44595 -38.44390 -38.44302 -38.44216 -38.43976
  Beta  occ. eigenvalues --  -38.43916 -38.43521  -2.20380  -2.20186  -2.20065
  Beta  occ. eigenvalues --   -2.19960  -2.19813  -2.19717  -2.19282  -1.14105
  Beta  occ. eigenvalues --   -1.14036  -1.14033  -1.13839  -1.13828  -1.13799
  Beta  occ. eigenvalues --   -1.13786  -1.13773  -1.13678  -1.13663  -1.13630
  Beta  occ. eigenvalues --   -1.13586  -1.13535  -1.13492  -1.13468  -1.13387
  Beta  occ. eigenvalues --   -1.13364  -1.13331  -1.12974  -1.12960  -1.12919
  Beta  occ. eigenvalues --   -0.15390  -0.13627  -0.12113
  Beta virt. eigenvalues --   -0.07030  -0.05986  -0.05191  -0.04310  -0.03396
  Beta virt. eigenvalues --   -0.02631  -0.02269  -0.01757  -0.01648  -0.00918
  Beta virt. eigenvalues --   -0.00753  -0.00147   0.00197   0.00269   0.00515

 Mulliken charges and spin densities:
               1          2
     1  Na   0.071577   0.357110
     2  Na   0.192706   0.166067
     3  Na   0.840239   0.111414
     4  Na  -0.886706   0.595991
     5  Na  -0.208934  -0.232083
     6  Na  -0.120940  -0.036005
     7  Na   0.112057   0.037507
 Sum of Mulliken charges =  -0.00000   1.00000

 Dipole moment (field-independent basis, Debye):
    X=              0.1763    Y=             -0.2782    Z=              0.2098  Tot=              0.3905
 Quadrupole moment (field-independent basis, Debye-Ang):
   XX=            -55.7320   YY=            -66.6384   ZZ=            -66.6907
   XY=              2.2593   XZ=              3.9106   YZ=             -2.5274

 Normal termination of Gaussian 16 at Tue Nov 28 19:59:48 2023.
