 Gaussian 16, Revision B.01,
 Gaussian 16:  ES64L-G16RevB.01 20-Dec-2017

 -------------------------
 #P B3LYP/6-311+g(d) force
 -------------------------

 -----
 DPGEN
 -----
 Symbolic Z-matrix:
 Charge =  0 Multiplicity = 2

                         Standard orientation:
 ---------------------------------------------------------------------
 Center     Atomic      Atomic             Coordinates (Angstroms)
 Number     Number       Type             X           Y           Z
 ---------------------------------------------------------------------
      1         11           0        1.590567    2.307859    0.246057
      2         11           0       -3.176550   -1.271813   -0.100238
      3         11           0       -0.317268   -0.423652    2.153861
      4         11           0        0.751094   -2.680233   -0.470102
      5         11           0        0.259814    0.298509   -1.692207
      6         11           0        3.027036   -0.413169    0.091650
      7         11           0       -2.134694    2.182498   -0.229022
 ---------------------------------------------------------------------

 SCF Done:  E(UB3LYP) =  -1136.13284927     A.U. after   20 cycles

 The electronic state is 2-A.
 Alpha  occ. eigenvalues --  -38.44565 -38.44004 -38.43942 -38.43761 -38.43371
 Alpha  occ. eigenvalues --  -38.43204 -38.43170  -2.20330  -2.19908  -2.19788
 Alpha  occ. eigenvalues --   -2.19578  -2.19356  -2.19110  -2.19037  -1.14007
 Alpha  occ. eigenvalues --   -1.13983  -1.13976  -1.13609  -1.13572  -1.13550
 Alpha  occ. eigenvalues --   -1.13450  -1.13421  -1.13403  -1.13272  -1.13241
 Alpha  occ. eigenvalues --   -1.13204  -1.13070  -1.13023  -1.12972  -1.12781
 Alpha  occ. eigenvalues --   -1.12751  -1.12735  -1.12718  -1.12693  -1.12660
 Alpha  occ. eigenvalues --   -0.18609  -0.13209  -0.12151  -0.10915
 Alpha virt. eigenvalues --   -0.06020  -0.05250  -0.04222  -0.03426  -0.02945
 Alpha virt. eigenvalues --   -0.02634  -0.01709  -0.01090  -0.00315  -0.00237
 Alpha virt. eigenvalues --   -0.00052   0.00350   0.00720   0.00834   0.00870

  Beta  occ. eigenvalues --  -38.44568 -38.43998 -38.43850 -38.43756 -38.43307
  Beta  occ. eigenvalues --  -38.43196 -38.43157  -2.20337  -2.19902  -2.19618
  Beta  occ. eigenvalues --   -2.19571  -2.19240  -2.19097  -2.19016  -1.13998
  Beta  occ. eigenvalues --   -1.13990  -1.13982  -1.13608  -1.13563  -1.13522
  Beta  occ. eigenvalues --   -1.13338  -1.13303  -1.13279  -1.13258  -1.13227
  Beta  occ. eigenvalues --   -1.13203  -1.12999  -1.12944  -1.12887  -1.12768
  Beta  occ. eigenvalues --   -1.12728  -1.12713  -1.12697  -1.12665  -1.12641
  Beta  occ. eigenvalues --   -0.17868  -0.13009  -0.11913
  Beta virt. eigenvalues --   -0.06988  -0.05943  -0.05236  -0.04177  -0.02645
  Beta virt. eigenvalues --   -0.02169  -0.01698  -0.01530  -0.01029  -0.00358
  Beta virt. eigenvalues --   -0.00268   0.00107   0.00380   0.00789   0.00874

 Mulliken charges and spin densities:
               1          2
     1  Na   0.168046   0.073890
     2  Na   0.022478  -0.114072
     3  Na  -0.612130   0.681198
     4  Na   0.180720  -0.034880
     5  Na  -0.166501   0.364613
     6  Na   0.297831   0.085089
     7  Na   0.109556  -0.055838
 Sum of Mulliken charges =  -0.00000   1.00000

 Dipole moment (field-independent basis, Debye):
    X=             -0.4808    Y=             -0.1533    Z=              0.1822  Tot=              0.5366
 Quadrupole moment (field-independent basis, Debye-Ang):
   XX=            -55.0060   YY=            -65.9670   ZZ=            -73.2241
   XY=              0.4583   XZ=              1.3076   YZ=              1.3967

 Normal termination of Gaussian 16 at Thu Dec  7 19:31:22 2023.
