 Gaussian 16, Revision B.01,
 Gaussian 16:  ES64L-G16RevB.01 20-Dec-2017

 -------------------------
 #P B3LYP/6-311+g(d) force
 -------------------------

 -----
 DPGEN
 -----
 Symbolic Z-matrix:
 Charge =  0 Multiplicity = 2

                         Standard orientation:
 ---------------------------------------------------------------------
 Center     Atomic      Atomic             Coordinates (Angstroms)
 Number     Number       Type             X           Y           Z
 ---------------------------------------------------------------------
      1         11           0        1.895253    2.520945    0.132219
      2         11           0       -1.871697    2.131796   -0.539216
      3         11           0       -0.513470    0.051742    2.192535
      4         11           0       -3.140344   -0.907415   -0.102190
      5         11           0        0.235909   -2.882539   -0.233811
      6         11           0        0.299271    0.035849   -1.461704
      7         11           0        3.095078   -0.950377    0.012167
 ---------------------------------------------------------------------

 SCF Done:  E(UB3LYP) =  -1136.13568014     A.U. after   19 cycles

 The electronic state is 2-A.
 Alpha  occ. eigenvalues --  -38.44218 -38.44190 -38.43751 -38.43576 -38.43573
 Alpha  occ. eigenvalues --  -38.43285 -38.43037  -2.20042  -2.20009  -2.19604
 Alpha  occ. eigenvalues --   -2.19449  -2.19388  -2.19133  -2.19053  -1.13728
 Alpha  occ. eigenvalues --   -1.13704  -1.13679  -1.13675  -1.13673  -1.13653
 Alpha  occ. eigenvalues --   -1.13262  -1.13233  -1.13218  -1.13171  -1.13097
 Alpha  occ. eigenvalues --   -1.13074  -1.13062  -1.13049  -1.13023  -1.12879
 Alpha  occ. eigenvalues --   -1.12793  -1.12750  -1.12726  -1.12682  -1.12661
 Alpha  occ. eigenvalues --   -0.18459  -0.13166  -0.12244  -0.10656
 Alpha virt. eigenvalues --   -0.05827  -0.05304  -0.04569  -0.03229  -0.02738
 Alpha virt. eigenvalues --   -0.02566  -0.01688  -0.01174  -0.00455  -0.00382
 Alpha virt. eigenvalues --   -0.00028   0.00334   0.00747   0.00851   0.00869

  Beta  occ. eigenvalues --  -38.44218 -38.44187 -38.43648 -38.43575 -38.43556
  Beta  occ. eigenvalues --  -38.43280 -38.42986  -2.20044  -2.20007  -2.19422
  Beta  occ. eigenvalues --   -2.19412  -2.19387  -2.19126  -2.18961  -1.13723
  Beta  occ. eigenvalues --   -1.13699  -1.13680  -1.13676  -1.13655  -1.13649
  Beta  occ. eigenvalues --   -1.13151  -1.13130  -1.13102  -1.13082  -1.13068
  Beta  occ. eigenvalues --   -1.13058  -1.13048  -1.13035  -1.13024  -1.12861
  Beta  occ. eigenvalues --   -1.12773  -1.12746  -1.12662  -1.12614  -1.12601
  Beta  occ. eigenvalues --   -0.17758  -0.12956  -0.12030
  Beta virt. eigenvalues --   -0.06710  -0.05758  -0.05296  -0.04528  -0.02484
  Beta virt. eigenvalues --   -0.02005  -0.01599  -0.01478  -0.01102  -0.00503
  Beta virt. eigenvalues --   -0.00404   0.00142   0.00372   0.00819   0.00848

 Mulliken charges and spin densities:
               1          2
     1  Na   0.058551  -0.005055
     2  Na   0.291969   0.034311
     3  Na  -0.655320   0.816070
     4  Na   0.231692   0.004867
     5  Na   0.133332  -0.052530
     6  Na  -0.164929   0.210771
     7  Na   0.104707  -0.008434
 Sum of Mulliken charges =  -0.00000   1.00000

 Dipole moment (field-independent basis, Debye):
    X=              0.0534    Y=             -0.0803    Z=              0.2253  Tot=              0.2451
 Quadrupole moment (field-independent basis, Debye-Ang):
   XX=            -54.2624   YY=            -63.5873   ZZ=            -75.1075
   XY=              0.9309   XZ=              1.8083   YZ=              0.0308

 Normal termination of Gaussian 16 at Thu Dec  7 18:25:32 2023.
