 Gaussian 16, Revision B.01,
 Gaussian 16:  ES64L-G16RevB.01 20-Dec-2017

 -------------------------
 #P B3LYP/6-311+g(d) force
 -------------------------

 -----
 DPGEN
 -----
 Symbolic Z-matrix:
 Charge =  0 Multiplicity = 2

                         Standard orientation:
 ---------------------------------------------------------------------
 Center     Atomic      Atomic             Coordinates (Angstroms)
 Number     Number       Type             X           Y           Z
 ---------------------------------------------------------------------
      1         11           0       -0.244328    0.166118   -1.827789
      2         11           0        0.127502   -0.037424    1.876108
      3         11           0       -2.198915    1.543498    0.136841
      4         11           0       -2.066404   -1.509799    0.001462
      5         11           0        0.649385   -2.166140   -0.064699
      6         11           0        0.988914    2.149249    0.003028
      7         11           0        2.743846   -0.145502   -0.124951
 ---------------------------------------------------------------------

 SCF Done:  E(UB3LYP) =  -1136.11058573     A.U. after   20 cycles

 The electronic state is 2-A.
 Alpha  occ. eigenvalues --  -38.43849 -38.43781 -38.43774 -38.43451 -38.43365
 Alpha  occ. eigenvalues --  -38.43148 -38.43141  -2.19965  -2.19907  -2.19792
 Alpha  occ. eigenvalues --   -2.19507  -2.19348  -2.19256  -2.19207  -1.13732
 Alpha  occ. eigenvalues --   -1.13655  -1.13625  -1.13602  -1.13590  -1.13551
 Alpha  occ. eigenvalues --   -1.13535  -1.13479  -1.13397  -1.13330  -1.13194
 Alpha  occ. eigenvalues --   -1.13123  -1.13019  -1.12996  -1.12956  -1.12890
 Alpha  occ. eigenvalues --   -1.12872  -1.12868  -1.12852  -1.12801  -1.12777
 Alpha  occ. eigenvalues --   -0.20893  -0.13656  -0.12818  -0.11960
 Alpha virt. eigenvalues --   -0.05147  -0.04551  -0.04079  -0.03599  -0.03185
 Alpha virt. eigenvalues --   -0.02922  -0.01136  -0.00595  -0.00086   0.00334
 Alpha virt. eigenvalues --    0.00594   0.00637   0.00980   0.01085   0.01095

  Beta  occ. eigenvalues --  -38.43774 -38.43755 -38.43685 -38.43441 -38.43357
  Beta  occ. eigenvalues --  -38.43136 -38.43126  -2.19796  -2.19784  -2.19746
  Beta  occ. eigenvalues --   -2.19495  -2.19339  -2.19236  -2.19191  -1.13648
  Beta  occ. eigenvalues --   -1.13559  -1.13546  -1.13521  -1.13503  -1.13482
  Beta  occ. eigenvalues --   -1.13441  -1.13412  -1.13347  -1.13315  -1.13183
  Beta  occ. eigenvalues --   -1.13066  -1.13013  -1.12957  -1.12948  -1.12880
  Beta  occ. eigenvalues --   -1.12863  -1.12798  -1.12797  -1.12786  -1.12773
  Beta  occ. eigenvalues --   -0.20063  -0.13327  -0.12474
  Beta virt. eigenvalues --   -0.07835  -0.05154  -0.04550  -0.04080  -0.02675
  Beta virt. eigenvalues --   -0.02275  -0.01815  -0.01064  -0.00549   0.00060
  Beta virt. eigenvalues --    0.00346   0.00548   0.00603   0.01029   0.01081

 Mulliken charges and spin densities:
               1          2
     1  Na  -1.366138   0.430666
     2  Na  -1.373726   0.476743
     3  Na   0.497365  -0.019321
     4  Na   0.436995   0.005922
     5  Na   0.879093   0.107355
     6  Na   0.853429   0.042099
     7  Na   0.072982  -0.043465
 Sum of Mulliken charges =  -0.00000   1.00000

 Dipole moment (field-independent basis, Debye):
    X=             -0.0579    Y=              0.2143    Z=              0.0511  Tot=              0.2278
 Quadrupole moment (field-independent basis, Debye-Ang):
   XX=            -59.4165   YY=            -68.5385   ZZ=            -68.9550
   XY=             -0.4073   XZ=             -0.7995   YZ=              0.4449

 Normal termination of Gaussian 16 at Sat Dec  9 05:47:13 2023.
