 Gaussian 16, Revision B.01,
 Gaussian 16:  ES64L-G16RevB.01 20-Dec-2017

 -------------------------
 #P B3LYP/6-311+g(d) force
 -------------------------

 -----
 DPGEN
 -----
 Symbolic Z-matrix:
 Charge =  0 Multiplicity = 2

                         Standard orientation:
 ---------------------------------------------------------------------
 Center     Atomic      Atomic             Coordinates (Angstroms)
 Number     Number       Type             X           Y           Z
 ---------------------------------------------------------------------
      1         11           0       -2.842346    0.872601   -0.723409
      2         11           0        1.460141   -2.060829    0.466904
      3         11           0        0.598808    1.263802   -1.566805
      4         11           0       -0.054373    2.974564    0.721143
      5         11           0        3.889301    0.002580   -0.092922
      6         11           0       -1.647318   -2.458172   -1.147912
      7         11           0       -1.404213   -0.594547    2.343002
 ---------------------------------------------------------------------

 SCF Done:  E(UB3LYP) =  -1136.12655585     A.U. after   19 cycles

 The electronic state is 2-A.
 Alpha  occ. eigenvalues --  -38.44461 -38.44282 -38.44181 -38.44041 -38.43862
 Alpha  occ. eigenvalues --  -38.43767 -38.43386  -2.20277  -2.20063  -2.19994
 Alpha  occ. eigenvalues --   -2.19875  -2.19739  -2.19573  -2.19218  -1.13965
 Alpha  occ. eigenvalues --   -1.13943  -1.13898  -1.13742  -1.13727  -1.13701
 Alpha  occ. eigenvalues --   -1.13699  -1.13654  -1.13628  -1.13602  -1.13516
 Alpha  occ. eigenvalues --   -1.13488  -1.13395  -1.13367  -1.13322  -1.13245
 Alpha  occ. eigenvalues --   -1.13225  -1.13208  -1.12901  -1.12895  -1.12844
 Alpha  occ. eigenvalues --   -0.17625  -0.12823  -0.12361  -0.11020
 Alpha virt. eigenvalues --   -0.06294  -0.04906  -0.04782  -0.03481  -0.03155
 Alpha virt. eigenvalues --   -0.02741  -0.01837  -0.01005  -0.00637  -0.00243
 Alpha virt. eigenvalues --   -0.00048   0.00286   0.00363   0.00657   0.00781

  Beta  occ. eigenvalues --  -38.44444 -38.44287 -38.44087 -38.44032 -38.43838
  Beta  occ. eigenvalues --  -38.43739 -38.43381  -2.20249  -2.20073  -2.19859
  Beta  occ. eigenvalues --   -2.19820  -2.19694  -2.19521  -2.19210  -1.13933
  Beta  occ. eigenvalues --   -1.13916  -1.13875  -1.13748  -1.13731  -1.13706
  Beta  occ. eigenvalues --   -1.13683  -1.13533  -1.13511  -1.13495  -1.13481
  Beta  occ. eigenvalues --   -1.13477  -1.13368  -1.13330  -1.13291  -1.13209
  Beta  occ. eigenvalues --   -1.13184  -1.13169  -1.12892  -1.12878  -1.12840
  Beta  occ. eigenvalues --   -0.16967  -0.12668  -0.12194
  Beta virt. eigenvalues --   -0.07144  -0.06226  -0.04680  -0.04504  -0.02985
  Beta virt. eigenvalues --   -0.02583  -0.01888  -0.01703  -0.00922  -0.00543
  Beta virt. eigenvalues --   -0.00062   0.00018   0.00421   0.00460   0.00737

 Mulliken charges and spin densities:
               1          2
     1  Na   0.213713   0.202261
     2  Na  -0.357118   0.103236
     3  Na   0.228625   0.213297
     4  Na  -0.064396   0.000273
     5  Na   0.306163  -0.126150
     6  Na  -0.079630   0.088178
     7  Na  -0.247357   0.518906
 Sum of Mulliken charges =  -0.00000   1.00000

 Dipole moment (field-independent basis, Debye):
    X=             -0.0302    Y=              0.4720    Z=              0.0223  Tot=              0.4735
 Quadrupole moment (field-independent basis, Debye-Ang):
   XX=            -58.0563   YY=            -67.6811   ZZ=            -70.3172
   XY=              0.9058   XZ=              1.2217   YZ=              2.6787

 Normal termination of Gaussian 16 at Sun Dec  3 21:44:53 2023.
