 Gaussian 16, Revision B.01,
 Gaussian 16:  ES64L-G16RevB.01 20-Dec-2017

 -------------------------
 #P B3LYP/6-311+g(d) force
 -------------------------

 -----
 DPGEN
 -----
 Symbolic Z-matrix:
 Charge =  0 Multiplicity = 2

                         Standard orientation:
 ---------------------------------------------------------------------
 Center     Atomic      Atomic             Coordinates (Angstroms)
 Number     Number       Type             X           Y           Z
 ---------------------------------------------------------------------
      1         11           0       -2.144250    2.244151    0.125677
      2         11           0        1.825101    2.285042   -0.104977
      3         11           0       -0.086650   -0.036235   -1.654124
      4         11           0       -0.033111   -2.545962    0.131586
      5         11           0       -2.953284   -1.093974   -0.040271
      6         11           0        0.372358    0.038031    1.682257
      7         11           0        3.019836   -0.891052   -0.140149
 ---------------------------------------------------------------------

 SCF Done:  E(UB3LYP) =  -1136.13443206     A.U. after   20 cycles

 The electronic state is 2-A.
 Alpha  occ. eigenvalues --  -38.44166 -38.44074 -38.43742 -38.43592 -38.43018
 Alpha  occ. eigenvalues --  -38.43013 -38.42853  -2.20038  -2.19931  -2.19559
 Alpha  occ. eigenvalues --   -2.19466  -2.19043  -2.19030  -2.18822  -1.13710
 Alpha  occ. eigenvalues --   -1.13698  -1.13684  -1.13604  -1.13592  -1.13582
 Alpha  occ. eigenvalues --   -1.13232  -1.13224  -1.13198  -1.13167  -1.13139
 Alpha  occ. eigenvalues --   -1.13083  -1.12827  -1.12731  -1.12698  -1.12666
 Alpha  occ. eigenvalues --   -1.12639  -1.12627  -1.12479  -1.12459  -1.12421
 Alpha  occ. eigenvalues --   -0.19215  -0.13466  -0.12375  -0.10472
 Alpha virt. eigenvalues --   -0.05810  -0.05465  -0.04271  -0.03175  -0.02621
 Alpha virt. eigenvalues --   -0.02107  -0.01789  -0.01156  -0.00360  -0.00125
 Alpha virt. eigenvalues --    0.00029   0.00340   0.00763   0.00870   0.00921

  Beta  occ. eigenvalues --  -38.44159 -38.44072 -38.43741 -38.43585 -38.42939
  Beta  occ. eigenvalues --  -38.42938 -38.42840  -2.20029  -2.19930  -2.19559
  Beta  occ. eigenvalues --   -2.19456  -2.18898  -2.18895  -2.18803  -1.13704
  Beta  occ. eigenvalues --   -1.13683  -1.13663  -1.13603  -1.13588  -1.13569
  Beta  occ. eigenvalues --   -1.13226  -1.13213  -1.13200  -1.13160  -1.13103
  Beta  occ. eigenvalues --   -1.13080  -1.12749  -1.12636  -1.12605  -1.12566
  Beta  occ. eigenvalues --   -1.12538  -1.12525  -1.12447  -1.12415  -1.12392
  Beta  occ. eigenvalues --   -0.18481  -0.13220  -0.12098
  Beta virt. eigenvalues --   -0.06537  -0.05767  -0.05470  -0.04279  -0.02378
  Beta virt. eigenvalues --   -0.01835  -0.01703  -0.01134  -0.01043  -0.00413
  Beta virt. eigenvalues --   -0.00167   0.00163   0.00368   0.00807   0.00863

 Mulliken charges and spin densities:
               1          2
     1  Na  -0.002486  -0.130872
     2  Na   0.054699  -0.126832
     3  Na  -0.459646   0.662739
     4  Na   0.411539  -0.045031
     5  Na   0.089064  -0.055873
     6  Na  -0.441512   0.708992
     7  Na   0.348341  -0.013123
 Sum of Mulliken charges =  -0.00000   1.00000

 Dipole moment (field-independent basis, Debye):
    X=              0.0312    Y=              0.1772    Z=             -0.0376  Tot=              0.1838
 Quadrupole moment (field-independent basis, Debye-Ang):
   XX=            -51.7172   YY=            -63.9085   ZZ=            -76.0222
   XY=             -0.2143   XZ=             -1.0133   YZ=             -0.0060

 Normal termination of Gaussian 16 at Tue Nov 28 19:01:15 2023.
