 Gaussian 16, Revision B.01,
 Gaussian 16:  ES64L-G16RevB.01 20-Dec-2017

 -------------------------
 #P B3LYP/6-311+g(d) force
 -------------------------

 -----
 DPGEN
 -----
 Symbolic Z-matrix:
 Charge =  0 Multiplicity = 2

                         Standard orientation:
 ---------------------------------------------------------------------
 Center     Atomic      Atomic             Coordinates (Angstroms)
 Number     Number       Type             X           Y           Z
 ---------------------------------------------------------------------
      1         11           0        2.468388   -2.744386    0.589207
      2         11           0       -0.796182   -1.928862   -1.102674
      3         11           0       -0.684575    1.733535   -1.281358
      4         11           0       -0.599549   -0.250321    1.755042
      5         11           0        1.081242    3.189583    0.847594
      6         11           0       -3.797315   -0.461263    0.194789
      7         11           0        2.327993    0.461715   -1.002601
 ---------------------------------------------------------------------

 SCF Done:  E(UB3LYP) =  -1136.13323861     A.U. after   19 cycles

 The electronic state is 2-A.
 Alpha  occ. eigenvalues --  -38.44231 -38.43826 -38.43821 -38.43795 -38.43681
 Alpha  occ. eigenvalues --  -38.43544 -38.43423  -2.20014  -2.19684  -2.19676
 Alpha  occ. eigenvalues --   -2.19662  -2.19525  -2.19343  -2.19323  -1.13686
 Alpha  occ. eigenvalues --   -1.13682  -1.13646  -1.13430  -1.13392  -1.13363
 Alpha  occ. eigenvalues --   -1.13354  -1.13336  -1.13292  -1.13286  -1.13271
 Alpha  occ. eigenvalues --   -1.13259  -1.13231  -1.13170  -1.13161  -1.13032
 Alpha  occ. eigenvalues --   -1.12995  -1.12993  -1.12986  -1.12954  -1.12927
 Alpha  occ. eigenvalues --   -0.18094  -0.12949  -0.12313  -0.10499
 Alpha virt. eigenvalues --   -0.05875  -0.05153  -0.04874  -0.03345  -0.02876
 Alpha virt. eigenvalues --   -0.02291  -0.01820  -0.01320  -0.00636  -0.00254
 Alpha virt. eigenvalues --    0.00223   0.00296   0.00678   0.00724   0.00751

  Beta  occ. eigenvalues --  -38.44233 -38.43800 -38.43800 -38.43730 -38.43666
  Beta  occ. eigenvalues --  -38.43540 -38.43385  -2.20019  -2.19642  -2.19636
  Beta  occ. eigenvalues --   -2.19541  -2.19498  -2.19316  -2.19276  -1.13689
  Beta  occ. eigenvalues --   -1.13674  -1.13650  -1.13390  -1.13359  -1.13311
  Beta  occ. eigenvalues --   -1.13304  -1.13267  -1.13261  -1.13237  -1.13214
  Beta  occ. eigenvalues --   -1.13203  -1.13179  -1.13150  -1.13129  -1.12991
  Beta  occ. eigenvalues --   -1.12988  -1.12974  -1.12951  -1.12922  -1.12886
  Beta  occ. eigenvalues --   -0.17352  -0.12787  -0.12173
  Beta virt. eigenvalues --   -0.06671  -0.05751  -0.04975  -0.04739  -0.02739
  Beta virt. eigenvalues --   -0.02387  -0.01778  -0.01404  -0.01184  -0.00372
  Beta virt. eigenvalues --   -0.00182   0.00272   0.00346   0.00738   0.00766

 Mulliken charges and spin densities:
               1          2
     1  Na   0.186860  -0.107764
     2  Na  -0.050763   0.141682
     3  Na   0.067229   0.269566
     4  Na  -0.495310   0.737522
     5  Na   0.135712  -0.122445
     6  Na   0.291011  -0.077070
     7  Na  -0.134739   0.158510
 Sum of Mulliken charges =  -0.00000   1.00000

 Dipole moment (field-independent basis, Debye):
    X=             -0.4524    Y=              0.1181    Z=              0.0674  Tot=              0.4724
 Quadrupole moment (field-independent basis, Debye-Ang):
   XX=            -56.3359   YY=            -63.0301   ZZ=            -72.7270
   XY=              0.6411   XZ=              1.3994   YZ=              1.1812

 Normal termination of Gaussian 16 at Fri Dec  8 06:07:26 2023.
