 Gaussian 16, Revision B.01,
 Gaussian 16:  ES64L-G16RevB.01 20-Dec-2017

 -------------------------
 #P B3LYP/6-311+g(d) force
 -------------------------

 -----
 DPGEN
 -----
 Symbolic Z-matrix:
 Charge =  0 Multiplicity = 2

                         Standard orientation:
 ---------------------------------------------------------------------
 Center     Atomic      Atomic             Coordinates (Angstroms)
 Number     Number       Type             X           Y           Z
 ---------------------------------------------------------------------
      1         11           0       -3.589065   -1.383317   -0.882627
      2         11           0       -2.098234    1.987056   -0.375703
      3         11           0        1.211608    2.781943    0.564758
      4         11           0        0.239930   -0.696325   -0.861576
      5         11           0        3.795637    0.785672   -0.542181
      6         11           0        2.708092   -2.986789    0.478477
      7         11           0       -2.267968   -0.488240    1.618852
 ---------------------------------------------------------------------

 SCF Done:  E(UB3LYP) =  -1136.11443061     A.U. after   25 cycles

 The electronic state is 2-A.
 Alpha  occ. eigenvalues --  -38.45924 -38.44485 -38.44160 -38.43844 -38.43713
 Alpha  occ. eigenvalues --  -38.43656 -38.43203  -2.21817  -2.20318  -2.20040
 Alpha  occ. eigenvalues --   -2.19607  -2.19606  -2.19468  -2.19011  -1.15506
 Alpha  occ. eigenvalues --   -1.15471  -1.15467  -1.14044  -1.13960  -1.13940
 Alpha  occ. eigenvalues --   -1.13737  -1.13705  -1.13639  -1.13281  -1.13275
 Alpha  occ. eigenvalues --   -1.13262  -1.13230  -1.13230  -1.13228  -1.13138
 Alpha  occ. eigenvalues --   -1.13120  -1.13073  -1.12699  -1.12683  -1.12645
 Alpha  occ. eigenvalues --   -0.17886  -0.14123  -0.11831  -0.09709
 Alpha virt. eigenvalues --   -0.06920  -0.06210  -0.04962  -0.03102  -0.02754
 Alpha virt. eigenvalues --   -0.02113  -0.01731  -0.01627  -0.01299  -0.00671
 Alpha virt. eigenvalues --   -0.00178   0.00071   0.00171   0.00452   0.00571

  Beta  occ. eigenvalues --  -38.45920 -38.44480 -38.44146 -38.43814 -38.43648
  Beta  occ. eigenvalues --  -38.43584 -38.43199  -2.21817  -2.20309  -2.20017
  Beta  occ. eigenvalues --   -2.19551  -2.19484  -2.19335  -2.19009  -1.15505
  Beta  occ. eigenvalues --   -1.15475  -1.15429  -1.14028  -1.13962  -1.13935
  Beta  occ. eigenvalues --   -1.13720  -1.13688  -1.13620  -1.13237  -1.13219
  Beta  occ. eigenvalues --   -1.13201  -1.13195  -1.13146  -1.13143  -1.13047
  Beta  occ. eigenvalues --   -1.13031  -1.12973  -1.12703  -1.12687  -1.12600
  Beta  occ. eigenvalues --   -0.17551  -0.13443  -0.11442
  Beta virt. eigenvalues --   -0.06792  -0.06381  -0.06019  -0.04543  -0.02955
  Beta virt. eigenvalues --   -0.02282  -0.01933  -0.01524  -0.01243  -0.01080
  Beta virt. eigenvalues --   -0.00368  -0.00005   0.00234   0.00394   0.00551

 Mulliken charges and spin densities:
               1          2
     1  Na   0.305120   0.479236
     2  Na   0.304414  -0.036687
     3  Na  -0.220043   0.075470
     4  Na  -0.855098  -0.180892
     5  Na   0.357759   0.458838
     6  Na   0.057799   0.096539
     7  Na   0.050048   0.107496
 Sum of Mulliken charges =  -0.00000   1.00000

 Dipole moment (field-independent basis, Debye):
    X=             -1.2389    Y=             -0.0910    Z=              0.8804  Tot=              1.5226
 Quadrupole moment (field-independent basis, Debye-Ang):
   XX=            -68.5440   YY=            -74.6176   ZZ=            -62.1932
   XY=             -7.2673   XZ=              0.1862   YZ=             -1.6121

 Normal termination of Gaussian 16 at Tue Dec  5 15:29:13 2023.
