 Gaussian 16, Revision B.01,
 Gaussian 16:  ES64L-G16RevB.01 20-Dec-2017

 -------------------------
 #P B3LYP/6-311+g(d) force
 -------------------------

 -----
 DPGEN
 -----
 Symbolic Z-matrix:
 Charge =  0 Multiplicity = 2

                         Standard orientation:
 ---------------------------------------------------------------------
 Center     Atomic      Atomic             Coordinates (Angstroms)
 Number     Number       Type             X           Y           Z
 ---------------------------------------------------------------------
      1         11           0        0.192519   -2.226700    1.307891
      2         11           0       -3.208189   -0.733784   -0.823507
      3         11           0        1.044286    2.947868   -0.992554
      4         11           0       -1.875651    1.346758    1.407446
      5         11           0       -0.569025   -0.444462   -1.346641
      6         11           0        1.852159    0.631784    1.588557
      7         11           0        2.563901   -1.521463   -1.141191
 ---------------------------------------------------------------------

 SCF Done:  E(UB3LYP) =  -1136.12568520     A.U. after   20 cycles

 The electronic state is 2-A.
 Alpha  occ. eigenvalues --  -38.44153 -38.44041 -38.43983 -38.43781 -38.43642
 Alpha  occ. eigenvalues --  -38.43422 -38.43307  -2.19982  -2.19887  -2.19881
 Alpha  occ. eigenvalues --   -2.19659  -2.19514  -2.19352  -2.19204  -1.13804
 Alpha  occ. eigenvalues --   -1.13665  -1.13650  -1.13609  -1.13568  -1.13527
 Alpha  occ. eigenvalues --   -1.13508  -1.13482  -1.13477  -1.13367  -1.13322
 Alpha  occ. eigenvalues --   -1.13262  -1.13197  -1.13169  -1.13123  -1.13001
 Alpha  occ. eigenvalues --   -1.12957  -1.12936  -1.12874  -1.12856  -1.12835
 Alpha  occ. eigenvalues --   -0.18476  -0.13129  -0.11761  -0.11428
 Alpha virt. eigenvalues --   -0.05448  -0.05153  -0.04521  -0.03379  -0.03175
 Alpha virt. eigenvalues --   -0.02699  -0.01402  -0.00884  -0.00758   0.00257
 Alpha virt. eigenvalues --    0.00269   0.00353   0.00462   0.00643   0.00855

  Beta  occ. eigenvalues --  -38.44128 -38.44018 -38.43974 -38.43743 -38.43610
  Beta  occ. eigenvalues --  -38.43404 -38.43260  -2.19936  -2.19872  -2.19841
  Beta  occ. eigenvalues --   -2.19592  -2.19458  -2.19268  -2.19171  -1.13778
  Beta  occ. eigenvalues --   -1.13636  -1.13603  -1.13581  -1.13531  -1.13503
  Beta  occ. eigenvalues --   -1.13477  -1.13469  -1.13463  -1.13322  -1.13259
  Beta  occ. eigenvalues --   -1.13213  -1.13153  -1.13117  -1.13084  -1.12934
  Beta  occ. eigenvalues --   -1.12897  -1.12881  -1.12844  -1.12832  -1.12814
  Beta  occ. eigenvalues --   -0.17721  -0.12934  -0.11583
  Beta virt. eigenvalues --   -0.07538  -0.05254  -0.04844  -0.04269  -0.02967
  Beta virt. eigenvalues --   -0.02700  -0.01786  -0.01315  -0.00830  -0.00369
  Beta virt. eigenvalues --    0.00287   0.00367   0.00405   0.00583   0.00722

 Mulliken charges and spin densities:
               1          2
     1  Na  -0.157058   0.330988
     2  Na   0.499865  -0.049484
     3  Na  -0.178118   0.027056
     4  Na  -0.126655   0.149435
     5  Na  -0.464048   0.308834
     6  Na   0.121518   0.239883
     7  Na   0.304496  -0.006712
 Sum of Mulliken charges =  -0.00000   1.00000

 Dipole moment (field-independent basis, Debye):
    X=             -0.0112    Y=             -0.2599    Z=              0.2748  Tot=              0.3784
 Quadrupole moment (field-independent basis, Debye-Ang):
   XX=            -58.4601   YY=            -68.9437   ZZ=            -66.5865
   XY=             -0.9571   XZ=             -2.6807   YZ=             -1.0750

 Normal termination of Gaussian 16 at Tue Dec  5 22:45:50 2023.
