 Gaussian 16, Revision B.01,
 Gaussian 16:  ES64L-G16RevB.01 20-Dec-2017

 -------------------------
 #P B3LYP/6-311+g(d) force
 -------------------------

 -----
 DPGEN
 -----
 Symbolic Z-matrix:
 Charge =  0 Multiplicity = 2

                         Standard orientation:
 ---------------------------------------------------------------------
 Center     Atomic      Atomic             Coordinates (Angstroms)
 Number     Number       Type             X           Y           Z
 ---------------------------------------------------------------------
      1         11           0        1.153614   -1.876100    1.097775
      2         11           0       -1.909212    0.458338    1.641398
      3         11           0       -1.505765    2.726995   -0.938906
      4         11           0       -2.074775   -2.390316   -0.447815
      5         11           0        1.291079    1.582515    1.201289
      6         11           0       -0.293441   -0.500307   -1.789452
      7         11           0        3.338499   -0.001125   -0.764288
 ---------------------------------------------------------------------

 SCF Done:  E(UB3LYP) =  -1136.13467185     A.U. after   19 cycles

 The electronic state is 2-A.
 Alpha  occ. eigenvalues --  -38.43846 -38.43824 -38.43762 -38.43624 -38.43510
 Alpha  occ. eigenvalues --  -38.43422 -38.43315  -2.19699  -2.19683  -2.19634
 Alpha  occ. eigenvalues --   -2.19571  -2.19328  -2.19313  -2.19193  -1.13409
 Alpha  occ. eigenvalues --   -1.13380  -1.13360  -1.13344  -1.13339  -1.13325
 Alpha  occ. eigenvalues --   -1.13316  -1.13285  -1.13279  -1.13249  -1.13218
 Alpha  occ. eigenvalues --   -1.13184  -1.13013  -1.12996  -1.12984  -1.12978
 Alpha  occ. eigenvalues --   -1.12956  -1.12906  -1.12857  -1.12824  -1.12808
 Alpha  occ. eigenvalues --   -0.18544  -0.12934  -0.12197  -0.11402
 Alpha virt. eigenvalues --   -0.05350  -0.04939  -0.04556  -0.03435  -0.03283
 Alpha virt. eigenvalues --   -0.02854  -0.01336  -0.00955  -0.00579   0.00242
 Alpha virt. eigenvalues --    0.00313   0.00376   0.00678   0.00781   0.00856

  Beta  occ. eigenvalues --  -38.43838 -38.43799 -38.43717 -38.43556 -38.43491
  Beta  occ. eigenvalues --  -38.43400 -38.43311  -2.19669  -2.19655  -2.19553
  Beta  occ. eigenvalues --   -2.19447  -2.19294  -2.19276  -2.19188  -1.13383
  Beta  occ. eigenvalues --   -1.13351  -1.13336  -1.13318  -1.13312  -1.13266
  Beta  occ. eigenvalues --   -1.13257  -1.13243  -1.13222  -1.13192  -1.13135
  Beta  occ. eigenvalues --   -1.13094  -1.12981  -1.12962  -1.12958  -1.12938
  Beta  occ. eigenvalues --   -1.12929  -1.12887  -1.12831  -1.12818  -1.12801
  Beta  occ. eigenvalues --   -0.17772  -0.12761  -0.12010
  Beta virt. eigenvalues --   -0.07474  -0.05165  -0.04797  -0.04306  -0.02988
  Beta virt. eigenvalues --   -0.02666  -0.01890  -0.01254  -0.00883  -0.00235
  Beta virt. eigenvalues --    0.00230   0.00398   0.00420   0.00769   0.00849

 Mulliken charges and spin densities:
               1          2
     1  Na  -0.336899   0.206998
     2  Na   0.014647   0.296606
     3  Na  -0.190686  -0.128812
     4  Na   0.421791  -0.032894
     5  Na  -0.022435   0.238798
     6  Na  -0.201602   0.532157
     7  Na   0.315183  -0.112853
 Sum of Mulliken charges =  -0.00000   1.00000

 Dipole moment (field-independent basis, Debye):
    X=              0.2376    Y=             -0.0442    Z=              0.0405  Tot=              0.2451
 Quadrupole moment (field-independent basis, Debye-Ang):
   XX=            -60.0441   YY=            -66.7797   ZZ=            -67.8525
   XY=              0.4662   XZ=             -1.9048   YZ=             -2.6285

 Normal termination of Gaussian 16 at Tue Dec  5 16:49:43 2023.
