 Gaussian 16, Revision B.01,
 Gaussian 16:  ES64L-G16RevB.01 20-Dec-2017

 -------------------------
 #P B3LYP/6-311+g(d) force
 -------------------------

 -----
 DPGEN
 -----
 Symbolic Z-matrix:
 Charge =  0 Multiplicity = 2

                         Standard orientation:
 ---------------------------------------------------------------------
 Center     Atomic      Atomic             Coordinates (Angstroms)
 Number     Number       Type             X           Y           Z
 ---------------------------------------------------------------------
      1         11           0        2.054936   -2.167487   -0.229947
      2         11           0        2.992908    1.002667   -0.100796
      3         11           0       -0.067958    0.332519    2.090280
      4         11           0       -0.393764    3.038733   -0.176030
      5         11           0       -3.235040    0.114443   -0.220085
      6         11           0       -1.199105   -2.568747    0.069002
      7         11           0       -0.151977    0.247871   -1.432423
 ---------------------------------------------------------------------

 SCF Done:  E(UB3LYP) =  -1136.13632584     A.U. after   19 cycles

 The electronic state is 2-A.
 Alpha  occ. eigenvalues --  -38.44262 -38.44157 -38.43763 -38.43424 -38.43382
 Alpha  occ. eigenvalues --  -38.43287 -38.42906  -2.20088  -2.19980  -2.19606
 Alpha  occ. eigenvalues --   -2.19307  -2.19246  -2.19168  -2.18936  -1.13771
 Alpha  occ. eigenvalues --   -1.13744  -1.13723  -1.13658  -1.13649  -1.13614
 Alpha  occ. eigenvalues --   -1.13333  -1.13264  -1.13218  -1.12979  -1.12946
 Alpha  occ. eigenvalues --   -1.12927  -1.12923  -1.12910  -1.12897  -1.12848
 Alpha  occ. eigenvalues --   -1.12822  -1.12791  -1.12619  -1.12580  -1.12551
 Alpha  occ. eigenvalues --   -0.18686  -0.12993  -0.12610  -0.10536
 Alpha virt. eigenvalues --   -0.05938  -0.04980  -0.04817  -0.02975  -0.02850
 Alpha virt. eigenvalues --   -0.02422  -0.01705  -0.01179  -0.00514  -0.00296
 Alpha virt. eigenvalues --   -0.00001   0.00339   0.00811   0.00838   0.00923

  Beta  occ. eigenvalues --  -38.44257 -38.44154 -38.43757 -38.43379 -38.43320
  Beta  occ. eigenvalues --  -38.43282 -38.42854  -2.20081  -2.19977  -2.19598
  Beta  occ. eigenvalues --   -2.19242  -2.19162  -2.19116  -2.18842  -1.13760
  Beta  occ. eigenvalues --   -1.13727  -1.13720  -1.13655  -1.13630  -1.13613
  Beta  occ. eigenvalues --   -1.13322  -1.13238  -1.13216  -1.12947  -1.12905
  Beta  occ. eigenvalues --   -1.12881  -1.12855  -1.12838  -1.12800  -1.12793
  Beta  occ. eigenvalues --   -1.12791  -1.12778  -1.12547  -1.12514  -1.12481
  Beta  occ. eigenvalues --   -0.17977  -0.12767  -0.12375
  Beta virt. eigenvalues --   -0.06599  -0.05925  -0.04938  -0.04798  -0.02231
  Beta virt. eigenvalues --   -0.02072  -0.01623  -0.01326  -0.01115  -0.00570
  Beta virt. eigenvalues --   -0.00331   0.00154   0.00378   0.00812   0.00873

 Mulliken charges and spin densities:
               1          2
     1  Na   0.076592   0.019071
     2  Na   0.269189  -0.000966
     3  Na  -0.578474   0.755979
     4  Na   0.250907  -0.073242
     5  Na   0.335790  -0.010942
     6  Na   0.252895   0.075002
     7  Na  -0.606899   0.235099
 Sum of Mulliken charges =  -0.00000   1.00000

 Dipole moment (field-independent basis, Debye):
    X=             -0.1275    Y=              0.3790    Z=              0.1641  Tot=              0.4322
 Quadrupole moment (field-independent basis, Debye-Ang):
   XX=            -55.3230   YY=            -61.3576   ZZ=            -75.8552
   XY=              0.2286   XZ=             -0.0814   YZ=             -0.1977

 Normal termination of Gaussian 16 at Tue Dec  5 23:42:16 2023.
