 Gaussian 16, Revision B.01,
 Gaussian 16:  ES64L-G16RevB.01 20-Dec-2017

 -------------------------
 #P B3LYP/6-311+g(d) force
 -------------------------

 -----
 DPGEN
 -----
 Symbolic Z-matrix:
 Charge =  0 Multiplicity = 2

                         Standard orientation:
 ---------------------------------------------------------------------
 Center     Atomic      Atomic             Coordinates (Angstroms)
 Number     Number       Type             X           Y           Z
 ---------------------------------------------------------------------
      1         11           0       -0.160065   -1.910333   -0.858582
      2         11           0       -3.386761   -2.686474    0.325745
      3         11           0       -2.861585    0.410133    1.217768
      4         11           0       -2.521020    3.199770   -0.735592
      5         11           0        0.389785    1.324218    0.076659
      6         11           0        3.252530   -0.542295   -1.328854
      7         11           0        5.287117    0.204982    1.302856
 ---------------------------------------------------------------------

 SCF Done:  E(UB3LYP) =  -1136.12412041     A.U. after   20 cycles

 The electronic state is 2-A.
 Alpha  occ. eigenvalues --  -38.44620 -38.44380 -38.44123 -38.44040 -38.43949
 Alpha  occ. eigenvalues --  -38.43881 -38.43187  -2.20422  -2.20216  -2.19981
 Alpha  occ. eigenvalues --   -2.19843  -2.19779  -2.19674  -2.19012  -1.14058
 Alpha  occ. eigenvalues --   -1.14056  -1.14035  -1.13934  -1.13916  -1.13788
 Alpha  occ. eigenvalues --   -1.13688  -1.13650  -1.13586  -1.13531  -1.13510
 Alpha  occ. eigenvalues --   -1.13492  -1.13473  -1.13464  -1.13361  -1.13344
 Alpha  occ. eigenvalues --   -1.13341  -1.13295  -1.12681  -1.12667  -1.12640
 Alpha  occ. eigenvalues --   -0.16906  -0.14087  -0.12008  -0.11165
 Alpha virt. eigenvalues --   -0.06018  -0.05441  -0.04798  -0.03613  -0.02780
 Alpha virt. eigenvalues --   -0.02335  -0.01966  -0.01932  -0.00741  -0.00456
 Alpha virt. eigenvalues --   -0.00241  -0.00044   0.00086   0.00306   0.00616

  Beta  occ. eigenvalues --  -38.44509 -38.44358 -38.44098 -38.44042 -38.43910
  Beta  occ. eigenvalues --  -38.43879 -38.43168  -2.20214  -2.20179  -2.19937
  Beta  occ. eigenvalues --   -2.19855  -2.19710  -2.19671  -2.18977  -1.13916
  Beta  occ. eigenvalues --   -1.13914  -1.13911  -1.13900  -1.13880  -1.13760
  Beta  occ. eigenvalues --   -1.13656  -1.13624  -1.13547  -1.13546  -1.13524
  Beta  occ. eigenvalues --   -1.13442  -1.13427  -1.13420  -1.13340  -1.13336
  Beta  occ. eigenvalues --   -1.13301  -1.13293  -1.12649  -1.12643  -1.12622
  Beta  occ. eigenvalues --   -0.16393  -0.13262  -0.11917
  Beta virt. eigenvalues --   -0.07547  -0.05936  -0.04973  -0.04449  -0.03416
  Beta virt. eigenvalues --   -0.02521  -0.01989  -0.01712  -0.01495  -0.00453
  Beta virt. eigenvalues --   -0.00269  -0.00148   0.00199   0.00278   0.00444

 Mulliken charges and spin densities:
               1          2
     1  Na  -0.480594   0.045315
     2  Na   0.696882   0.267549
     3  Na  -0.318215   0.129706
     4  Na   0.744603   0.030357
     5  Na  -0.866055   0.043423
     6  Na   0.169288  -0.099267
     7  Na   0.054090   0.582917
 Sum of Mulliken charges =  -0.00000   1.00000

 Dipole moment (field-independent basis, Debye):
    X=             -0.2565    Y=              0.4278    Z=             -0.3374  Tot=              0.6022
 Quadrupole moment (field-independent basis, Debye-Ang):
   XX=            -65.9140   YY=            -68.3442   ZZ=            -65.2949
   XY=             -2.0317   XZ=              1.2317   YZ=              0.2052

 Normal termination of Gaussian 16 at Wed Nov 29 03:36:26 2023.
