 Gaussian 16, Revision B.01,
 Gaussian 16:  ES64L-G16RevB.01 20-Dec-2017

 -------------------------
 #P B3LYP/6-311+g(d) force
 -------------------------

 -----
 DPGEN
 -----
 Symbolic Z-matrix:
 Charge =  0 Multiplicity = 2

                         Standard orientation:
 ---------------------------------------------------------------------
 Center     Atomic      Atomic             Coordinates (Angstroms)
 Number     Number       Type             X           Y           Z
 ---------------------------------------------------------------------
      1         11           0        0.085327   -2.592903   -0.107012
      2         11           0        0.503369    0.288741    1.998261
      3         11           0       -2.905968   -1.543823    0.096791
      4         11           0        0.353445    0.010436   -1.503439
      5         11           0        3.468400   -1.028578   -0.136318
      6         11           0        0.699126    3.402517   -0.164936
      7         11           0       -2.203699    1.463610   -0.183347
 ---------------------------------------------------------------------

 SCF Done:  E(UB3LYP) =  -1136.12953748     A.U. after   19 cycles

 The electronic state is 2-A.
 Alpha  occ. eigenvalues --  -38.44519 -38.44011 -38.43802 -38.43663 -38.43612
 Alpha  occ. eigenvalues --  -38.43430 -38.43254  -2.20292  -2.19803  -2.19720
 Alpha  occ. eigenvalues --   -2.19569  -2.19480  -2.19304  -2.19244  -1.13966
 Alpha  occ. eigenvalues --   -1.13953  -1.13924  -1.13502  -1.13471  -1.13464
 Alpha  occ. eigenvalues --   -1.13447  -1.13382  -1.13341  -1.13308  -1.13259
 Alpha  occ. eigenvalues --   -1.13220  -1.13118  -1.13112  -1.13083  -1.12992
 Alpha  occ. eigenvalues --   -1.12932  -1.12919  -1.12913  -1.12867  -1.12845
 Alpha  occ. eigenvalues --   -0.18595  -0.12879  -0.12648  -0.10380
 Alpha virt. eigenvalues --   -0.06083  -0.05527  -0.04366  -0.02961  -0.02861
 Alpha virt. eigenvalues --   -0.02274  -0.01908  -0.01568  -0.00353  -0.00202
 Alpha virt. eigenvalues --   -0.00015   0.00290   0.00749   0.00797   0.00907

  Beta  occ. eigenvalues --  -38.44519 -38.44011 -38.43790 -38.43652 -38.43612
  Beta  occ. eigenvalues --  -38.43336 -38.43194  -2.20295  -2.19806  -2.19702
  Beta  occ. eigenvalues --   -2.19555  -2.19481  -2.19136  -2.19129  -1.13964
  Beta  occ. eigenvalues --   -1.13945  -1.13928  -1.13483  -1.13471  -1.13453
  Beta  occ. eigenvalues --   -1.13450  -1.13348  -1.13327  -1.13303  -1.13242
  Beta  occ. eigenvalues --   -1.13190  -1.13118  -1.13095  -1.13082  -1.12886
  Beta  occ. eigenvalues --   -1.12840  -1.12802  -1.12791  -1.12785  -1.12766
  Beta  occ. eigenvalues --   -0.17867  -0.12658  -0.12453
  Beta virt. eigenvalues --   -0.06458  -0.06070  -0.05458  -0.04337  -0.02223
  Beta virt. eigenvalues --   -0.02117  -0.01869  -0.01532  -0.01211  -0.00389
  Beta virt. eigenvalues --   -0.00214   0.00148   0.00324   0.00755   0.00814

 Mulliken charges and spin densities:
               1          2
     1  Na   0.409260   0.200711
     2  Na  -0.540776   0.594610
     3  Na  -0.201390   0.004003
     4  Na  -0.277593   0.108865
     5  Na   0.144704  -0.041502
     6  Na   0.163238  -0.037580
     7  Na   0.302557   0.170894
 Sum of Mulliken charges =  -0.00000   1.00000

 Dipole moment (field-independent basis, Debye):
    X=              0.7384    Y=              0.2105    Z=              0.1268  Tot=              0.7782
 Quadrupole moment (field-independent basis, Debye-Ang):
   XX=            -54.8647   YY=            -60.0731   ZZ=            -76.5988
   XY=              1.3488   XZ=             -0.4334   YZ=             -0.6286

 Normal termination of Gaussian 16 at Thu Dec  7 17:52:38 2023.
