 Gaussian 16, Revision B.01,
 Gaussian 16:  ES64L-G16RevB.01 20-Dec-2017

 -------------------------
 #P B3LYP/6-311+g(d) force
 -------------------------

 -----
 DPGEN
 -----
 Symbolic Z-matrix:
 Charge =  0 Multiplicity = 2

                         Standard orientation:
 ---------------------------------------------------------------------
 Center     Atomic      Atomic             Coordinates (Angstroms)
 Number     Number       Type             X           Y           Z
 ---------------------------------------------------------------------
      1         11           0        0.314807    2.849697   -0.094631
      2         11           0       -3.405882    0.725040   -0.123239
      3         11           0        1.788310   -2.452647   -0.349653
      4         11           0       -1.482699   -2.057645   -0.021259
      5         11           0       -0.236669   -0.213497    1.932332
      6         11           0        3.043546    0.940176    0.206324
      7         11           0       -0.021413    0.208876   -1.549873
 ---------------------------------------------------------------------

 SCF Done:  E(UB3LYP) =  -1136.13170166     A.U. after   20 cycles

 The electronic state is 2-A.
 Alpha  occ. eigenvalues --  -38.44449 -38.44246 -38.43506 -38.43459 -38.43257
 Alpha  occ. eigenvalues --  -38.43243 -38.43091  -2.20241  -2.20070  -2.19448
 Alpha  occ. eigenvalues --   -2.19328  -2.19239  -2.19117  -2.19099  -1.13914
 Alpha  occ. eigenvalues --   -1.13903  -1.13878  -1.13740  -1.13729  -1.13717
 Alpha  occ. eigenvalues --   -1.13237  -1.13105  -1.13086  -1.13033  -1.12981
 Alpha  occ. eigenvalues --   -1.12974  -1.12937  -1.12879  -1.12846  -1.12788
 Alpha  occ. eigenvalues --   -1.12772  -1.12747  -1.12731  -1.12729  -1.12691
 Alpha  occ. eigenvalues --   -0.18909  -0.13160  -0.12436  -0.10582
 Alpha virt. eigenvalues --   -0.06069  -0.04885  -0.04593  -0.03149  -0.02720
 Alpha virt. eigenvalues --   -0.02316  -0.01947  -0.01092  -0.00344  -0.00116
 Alpha virt. eigenvalues --    0.00009   0.00313   0.00795   0.00859   0.00912

  Beta  occ. eigenvalues --  -38.44449 -38.44243 -38.43453 -38.43413 -38.43242
  Beta  occ. eigenvalues --  -38.43236 -38.43026  -2.20243  -2.20067  -2.19322
  Beta  occ. eigenvalues --   -2.19278  -2.19218  -2.19089  -2.19000  -1.13915
  Beta  occ. eigenvalues --   -1.13890  -1.13881  -1.13729  -1.13719  -1.13717
  Beta  occ. eigenvalues --   -1.13147  -1.13081  -1.12979  -1.12947  -1.12937
  Beta  occ. eigenvalues --   -1.12934  -1.12915  -1.12839  -1.12808  -1.12759
  Beta  occ. eigenvalues --   -1.12729  -1.12723  -1.12703  -1.12654  -1.12611
  Beta  occ. eigenvalues --   -0.18173  -0.12935  -0.12176
  Beta virt. eigenvalues --   -0.06654  -0.06038  -0.04859  -0.04570  -0.02369
  Beta virt. eigenvalues --   -0.01977  -0.01866  -0.01254  -0.01027  -0.00388
  Beta virt. eigenvalues --   -0.00132   0.00137   0.00337   0.00829   0.00863

 Mulliken charges and spin densities:
               1          2
     1  Na   0.096314  -0.128224
     2  Na   0.068355  -0.110657
     3  Na   0.084520  -0.014522
     4  Na   0.533719   0.109602
     5  Na  -0.470953   0.647050
     6  Na   0.068830   0.002047
     7  Na  -0.380785   0.494705
 Sum of Mulliken charges =  -0.00000   1.00000

 Dipole moment (field-independent basis, Debye):
    X=             -0.0432    Y=              0.3590    Z=              0.1626  Tot=              0.3965
 Quadrupole moment (field-independent basis, Debye-Ang):
   XX=            -52.1715   YY=            -64.3311   ZZ=            -75.4327
   XY=             -1.8501   XZ=              0.6924   YZ=              1.0369

 Normal termination of Gaussian 16 at Thu Dec  7 17:11:00 2023.
