 Gaussian 16, Revision B.01,
 Gaussian 16:  ES64L-G16RevB.01 20-Dec-2017

 -------------------------
 #P B3LYP/6-311+g(d) force
 -------------------------

 -----
 DPGEN
 -----
 Symbolic Z-matrix:
 Charge =  0 Multiplicity = 2

                         Standard orientation:
 ---------------------------------------------------------------------
 Center     Atomic      Atomic             Coordinates (Angstroms)
 Number     Number       Type             X           Y           Z
 ---------------------------------------------------------------------
      1         11           0        0.854518    2.959876    0.440725
      2         11           0       -0.153696   -0.315187    1.882815
      3         11           0        0.702873    0.362943   -1.659277
      4         11           0       -2.698866    1.616605   -0.247076
      5         11           0       -2.896839   -1.669917   -0.356396
      6         11           0        0.753415   -2.551568    0.153127
      7         11           0        3.438596   -0.402752   -0.213919
 ---------------------------------------------------------------------

 SCF Done:  E(UB3LYP) =  -1136.13151801     A.U. after   19 cycles

 The electronic state is 2-A.
 Alpha  occ. eigenvalues --  -38.44659 -38.44068 -38.43866 -38.43635 -38.43439
 Alpha  occ. eigenvalues --  -38.43428 -38.43295  -2.20481  -2.19878  -2.19676
 Alpha  occ. eigenvalues --   -2.19559  -2.19368  -2.19240  -2.19201  -1.14170
 Alpha  occ. eigenvalues --   -1.14126  -1.14119  -1.13559  -1.13554  -1.13511
 Alpha  occ. eigenvalues --   -1.13343  -1.13329  -1.13312  -1.13249  -1.13211
 Alpha  occ. eigenvalues --   -1.13184  -1.13156  -1.13002  -1.12968  -1.12908
 Alpha  occ. eigenvalues --   -1.12900  -1.12870  -1.12862  -1.12841  -1.12790
 Alpha  occ. eigenvalues --   -0.18346  -0.13265  -0.12248  -0.10520
 Alpha virt. eigenvalues --   -0.06122  -0.05243  -0.04572  -0.03220  -0.02903
 Alpha virt. eigenvalues --   -0.02257  -0.01961  -0.01160  -0.00534  -0.00361
 Alpha virt. eigenvalues --   -0.00037   0.00287   0.00750   0.00795   0.00851

  Beta  occ. eigenvalues --  -38.44650 -38.44060 -38.43856 -38.43589 -38.43417
  Beta  occ. eigenvalues --  -38.43347 -38.43282  -2.20467  -2.19865  -2.19660
  Beta  occ. eigenvalues --   -2.19473  -2.19221  -2.19205  -2.19179  -1.14149
  Beta  occ. eigenvalues --   -1.14113  -1.14106  -1.13552  -1.13536  -1.13497
  Beta  occ. eigenvalues --   -1.13331  -1.13316  -1.13294  -1.13190  -1.13152
  Beta  occ. eigenvalues --   -1.13118  -1.13067  -1.12899  -1.12885  -1.12874
  Beta  occ. eigenvalues --   -1.12859  -1.12853  -1.12836  -1.12794  -1.12757
  Beta  occ. eigenvalues --   -0.17686  -0.12936  -0.12015
  Beta virt. eigenvalues --   -0.06795  -0.05948  -0.05217  -0.04494  -0.02546
  Beta virt. eigenvalues --   -0.02164  -0.01847  -0.01319  -0.01094  -0.00543
  Beta virt. eigenvalues --   -0.00360   0.00111   0.00352   0.00809   0.00817

 Mulliken charges and spin densities:
               1          2
     1  Na  -0.118575  -0.069839
     2  Na  -0.090713   0.551950
     3  Na  -0.167436   0.558248
     4  Na   0.007215   0.013020
     5  Na  -0.141209   0.015231
     6  Na   0.202481  -0.018383
     7  Na   0.308237  -0.050227
 Sum of Mulliken charges =  -0.00000   1.00000

 Dipole moment (field-independent basis, Debye):
    X=              0.4122    Y=              0.0815    Z=              0.0213  Tot=              0.4207
 Quadrupole moment (field-independent basis, Debye-Ang):
   XX=            -54.4133   YY=            -64.6299   ZZ=            -74.6164
   XY=              0.1722   XZ=              1.7885   YZ=              1.7065

 Normal termination of Gaussian 16 at Thu Dec  7 01:48:37 2023.
