 Gaussian 16, Revision B.01,
 Gaussian 16:  ES64L-G16RevB.01 20-Dec-2017

 -------------------------
 #P B3LYP/6-311+g(d) force
 -------------------------

 -----
 DPGEN
 -----
 Symbolic Z-matrix:
 Charge =  0 Multiplicity = 2

                         Standard orientation:
 ---------------------------------------------------------------------
 Center     Atomic      Atomic             Coordinates (Angstroms)
 Number     Number       Type             X           Y           Z
 ---------------------------------------------------------------------
      1         11           0        1.938850    2.016899    0.357829
      2         11           0       -1.684920    2.578095    0.018921
      3         11           0       -0.057170   -2.843907   -0.162809
      4         11           0       -0.346168   -0.551618    1.977390
      5         11           0        3.185304   -0.703776   -0.277821
      6         11           0       -2.909858   -0.811527   -0.236032
      7         11           0       -0.126039    0.315834   -1.677479
 ---------------------------------------------------------------------

 SCF Done:  E(UB3LYP) =  -1136.13660546     A.U. after   20 cycles

 The electronic state is 2-A.
 Alpha  occ. eigenvalues --  -38.44110 -38.44044 -38.43529 -38.43475 -38.43416
 Alpha  occ. eigenvalues --  -38.43346 -38.43206  -2.19978  -2.19875  -2.19410
 Alpha  occ. eigenvalues --   -2.19392  -2.19258  -2.19217  -2.19182  -1.13664
 Alpha  occ. eigenvalues --   -1.13654  -1.13598  -1.13592  -1.13531  -1.13504
 Alpha  occ. eigenvalues --   -1.13098  -1.13092  -1.13067  -1.13044  -1.13027
 Alpha  occ. eigenvalues --   -1.13010  -1.12972  -1.12913  -1.12896  -1.12894
 Alpha  occ. eigenvalues --   -1.12875  -1.12846  -1.12832  -1.12810  -1.12783
 Alpha  occ. eigenvalues --   -0.18760  -0.13211  -0.12437  -0.10721
 Alpha virt. eigenvalues --   -0.05744  -0.05079  -0.04648  -0.03276  -0.02931
 Alpha virt. eigenvalues --   -0.02457  -0.01552  -0.01092  -0.00375  -0.00194
 Alpha virt. eigenvalues --   -0.00015   0.00364   0.00816   0.00878   0.00919

  Beta  occ. eigenvalues --  -38.44101 -38.44042 -38.43521 -38.43414 -38.43388
  Beta  occ. eigenvalues --  -38.43339 -38.43141  -2.19965  -2.19873  -2.19398
  Beta  occ. eigenvalues --   -2.19257  -2.19231  -2.19207  -2.19063  -1.13655
  Beta  occ. eigenvalues --   -1.13617  -1.13593  -1.13592  -1.13514  -1.13505
  Beta  occ. eigenvalues --   -1.13086  -1.13044  -1.13032  -1.13010  -1.12959
  Beta  occ. eigenvalues --   -1.12923  -1.12901  -1.12898  -1.12889  -1.12868
  Beta  occ. eigenvalues --   -1.12835  -1.12817  -1.12774  -1.12725  -1.12703
  Beta  occ. eigenvalues --   -0.18028  -0.12991  -0.12204
  Beta virt. eigenvalues --   -0.06814  -0.05701  -0.05069  -0.04570  -0.02506
  Beta virt. eigenvalues --   -0.02167  -0.01490  -0.01406  -0.01030  -0.00417
  Beta virt. eigenvalues --   -0.00219   0.00130   0.00388   0.00846   0.00893

 Mulliken charges and spin densities:
               1          2
     1  Na   0.087608   0.021044
     2  Na   0.110200  -0.047881
     3  Na   0.190720  -0.089392
     4  Na  -0.452733   0.712416
     5  Na  -0.001183  -0.058640
     6  Na   0.306873  -0.077517
     7  Na  -0.241485   0.539971
 Sum of Mulliken charges =  -0.00000   1.00000

 Dipole moment (field-independent basis, Debye):
    X=             -0.1392    Y=             -0.1367    Z=              0.0461  Tot=              0.2005
 Quadrupole moment (field-independent basis, Debye-Ang):
   XX=            -56.3431   YY=            -63.2908   ZZ=            -74.1781
   XY=             -1.0088   XZ=              0.1066   YZ=              2.1712

 Normal termination of Gaussian 16 at Fri Dec  8 05:55:11 2023.
