 Gaussian 16, Revision B.01,
 Gaussian 16:  ES64L-G16RevB.01 20-Dec-2017

 -------------------------
 #P B3LYP/6-311+g(d) force
 -------------------------

 -----
 DPGEN
 -----
 Symbolic Z-matrix:
 Charge =  0 Multiplicity = 2

                         Standard orientation:
 ---------------------------------------------------------------------
 Center     Atomic      Atomic             Coordinates (Angstroms)
 Number     Number       Type             X           Y           Z
 ---------------------------------------------------------------------
      1         11           0        0.419676    2.839543   -0.010087
      2         11           0       -2.918516    1.063127   -0.240981
      3         11           0        0.019740   -0.165568   -1.817901
      4         11           0        1.480124   -2.587086   -0.216268
      5         11           0       -2.061286   -1.861261    0.359283
      6         11           0        2.858000    0.663881    0.002996
      7         11           0        0.202261    0.047363    1.922958
 ---------------------------------------------------------------------

 SCF Done:  E(UB3LYP) =  -1136.13970048     A.U. after   19 cycles

 The electronic state is 2-A.
 Alpha  occ. eigenvalues --  -38.43770 -38.43764 -38.43509 -38.43471 -38.43365
 Alpha  occ. eigenvalues --  -38.43257 -38.43231  -2.19660  -2.19614  -2.19455
 Alpha  occ. eigenvalues --   -2.19373  -2.19329  -2.19120  -2.19098  -1.13355
 Alpha  occ. eigenvalues --   -1.13334  -1.13331  -1.13292  -1.13276  -1.13251
 Alpha  occ. eigenvalues --   -1.13138  -1.13104  -1.13074  -1.13046  -1.13021
 Alpha  occ. eigenvalues --   -1.13004  -1.12988  -1.12972  -1.12947  -1.12788
 Alpha  occ. eigenvalues --   -1.12772  -1.12769  -1.12764  -1.12753  -1.12729
 Alpha  occ. eigenvalues --   -0.19019  -0.13191  -0.12462  -0.11006
 Alpha virt. eigenvalues --   -0.05411  -0.04977  -0.04666  -0.03342  -0.02937
 Alpha virt. eigenvalues --   -0.02684  -0.01352  -0.01044  -0.00200  -0.00109
 Alpha virt. eigenvalues --    0.00007   0.00379   0.00850   0.00927   0.00941

  Beta  occ. eigenvalues --  -38.43764 -38.43761 -38.43461 -38.43422 -38.43287
  Beta  occ. eigenvalues --  -38.43251 -38.43227  -2.19653  -2.19611  -2.19357
  Beta  occ. eigenvalues --   -2.19296  -2.19188  -2.19113  -2.19094  -1.13348
  Beta  occ. eigenvalues --   -1.13332  -1.13307  -1.13284  -1.13255  -1.13249
  Beta  occ. eigenvalues --   -1.13068  -1.13011  -1.13005  -1.12988  -1.12963
  Beta  occ. eigenvalues --   -1.12946  -1.12919  -1.12879  -1.12851  -1.12769
  Beta  occ. eigenvalues --   -1.12762  -1.12755  -1.12744  -1.12741  -1.12721
  Beta  occ. eigenvalues --   -0.18264  -0.12942  -0.12203
  Beta virt. eigenvalues --   -0.07067  -0.05379  -0.04974  -0.04633  -0.02510
  Beta virt. eigenvalues --   -0.02155  -0.01617  -0.01269  -0.00975  -0.00242
  Beta virt. eigenvalues --   -0.00146   0.00117   0.00392   0.00899   0.00923

 Mulliken charges and spin densities:
               1          2
     1  Na   0.035633  -0.102235
     2  Na  -0.005314  -0.082724
     3  Na  -0.369800   0.690951
     4  Na   0.189579  -0.080279
     5  Na   0.227212  -0.000012
     6  Na   0.242861  -0.071572
     7  Na  -0.320172   0.645870
 Sum of Mulliken charges =  -0.00000   1.00000

 Dipole moment (field-independent basis, Debye):
    X=              0.0510    Y=              0.0562    Z=              0.0209  Tot=              0.0787
 Quadrupole moment (field-independent basis, Debye-Ang):
   XX=            -58.3460   YY=            -62.9727   ZZ=            -73.0017
   XY=             -0.8612   XZ=             -0.1548   YZ=             -0.6752

 Normal termination of Gaussian 16 at Fri Dec  8 07:50:39 2023.
