 Gaussian 16, Revision B.01,
 Gaussian 16:  ES64L-G16RevB.01 20-Dec-2017

 -------------------------
 #P B3LYP/6-311+g(d) force
 -------------------------

 -----
 DPGEN
 -----
 Symbolic Z-matrix:
 Charge =  0 Multiplicity = 2

                         Standard orientation:
 ---------------------------------------------------------------------
 Center     Atomic      Atomic             Coordinates (Angstroms)
 Number     Number       Type             X           Y           Z
 ---------------------------------------------------------------------
      1         11           0        3.086927   -1.336373   -0.018659
      2         11           0        0.320890    0.380156   -1.656087
      3         11           0        1.946275    2.396291   -0.130159
      4         11           0       -1.965416    2.204708    0.248680
      5         11           0       -0.276378   -2.677128   -0.004333
      6         11           0       -3.109206   -0.943215   -0.429712
      7         11           0       -0.003092   -0.024440    1.990270
 ---------------------------------------------------------------------

 SCF Done:  E(UB3LYP) =  -1136.13591430     A.U. after   19 cycles

 The electronic state is 2-A.
 Alpha  occ. eigenvalues --  -38.44384 -38.43921 -38.43838 -38.43693 -38.43470
 Alpha  occ. eigenvalues --  -38.43324 -38.43095  -2.20171  -2.19750  -2.19682
 Alpha  occ. eigenvalues --   -2.19536  -2.19376  -2.19286  -2.18968  -1.13849
 Alpha  occ. eigenvalues --   -1.13820  -1.13816  -1.13440  -1.13417  -1.13410
 Alpha  occ. eigenvalues --   -1.13402  -1.13333  -1.13292  -1.13221  -1.13208
 Alpha  occ. eigenvalues --   -1.13159  -1.13054  -1.13007  -1.12986  -1.12957
 Alpha  occ. eigenvalues --   -1.12925  -1.12890  -1.12656  -1.12640  -1.12587
 Alpha  occ. eigenvalues --   -0.18554  -0.13036  -0.12378  -0.10645
 Alpha virt. eigenvalues --   -0.05863  -0.05448  -0.04378  -0.03160  -0.02872
 Alpha virt. eigenvalues --   -0.02465  -0.01752  -0.01273  -0.00450  -0.00218
 Alpha virt. eigenvalues --   -0.00019   0.00330   0.00759   0.00820   0.00912

  Beta  occ. eigenvalues --  -38.44384 -38.43912 -38.43832 -38.43685 -38.43375
  Beta  occ. eigenvalues --  -38.43265 -38.43088  -2.20174  -2.19735  -2.19676
  Beta  occ. eigenvalues --   -2.19525  -2.19201  -2.19177  -2.18959  -1.13840
  Beta  occ. eigenvalues --   -1.13823  -1.13815  -1.13423  -1.13410  -1.13396
  Beta  occ. eigenvalues --   -1.13382  -1.13314  -1.13288  -1.13209  -1.13175
  Beta  occ. eigenvalues --   -1.13156  -1.12941  -1.12887  -1.12877  -1.12861
  Beta  occ. eigenvalues --   -1.12847  -1.12813  -1.12649  -1.12608  -1.12580
  Beta  occ. eigenvalues --   -0.17836  -0.12806  -0.12128
  Beta virt. eigenvalues --   -0.06768  -0.05840  -0.05380  -0.04352  -0.02427
  Beta virt. eigenvalues --   -0.02083  -0.01673  -0.01423  -0.01199  -0.00495
  Beta virt. eigenvalues --   -0.00249   0.00117   0.00357   0.00811   0.00824

 Mulliken charges and spin densities:
               1          2
     1  Na   0.053931  -0.117862
     2  Na  -0.274896   0.564325
     3  Na   0.219044  -0.139499
     4  Na   0.215728  -0.006913
     5  Na   0.131187  -0.018044
     6  Na  -0.031639   0.015423
     7  Na  -0.313355   0.702571
 Sum of Mulliken charges =  -0.00000   1.00000

 Dipole moment (field-independent basis, Debye):
    X=              0.3361    Y=              0.1277    Z=              0.0815  Tot=              0.3686
 Quadrupole moment (field-independent basis, Debye-Ang):
   XX=            -53.7319   YY=            -64.2187   ZZ=            -74.8928
   XY=             -0.5813   XZ=              1.0549   YZ=              1.1191

 Normal termination of Gaussian 16 at Thu Dec  7 23:31:07 2023.
