 Gaussian 16, Revision B.01,
 Gaussian 16:  ES64L-G16RevB.01 20-Dec-2017

 -------------------------
 #P B3LYP/6-311+g(d) force
 -------------------------

 -----
 DPGEN
 -----
 Symbolic Z-matrix:
 Charge =  0 Multiplicity = 2

                         Standard orientation:
 ---------------------------------------------------------------------
 Center     Atomic      Atomic             Coordinates (Angstroms)
 Number     Number       Type             X           Y           Z
 ---------------------------------------------------------------------
      1         11           0        1.483198    0.498092    1.573552
      2         11           0       -3.962293   -1.141526   -0.051281
      3         11           0       -2.180314    1.450928    0.530978
      4         11           0       -0.748742   -2.137917   -0.506840
      5         11           0        1.617034    0.450834   -1.300591
      6         11           0        0.784938    3.183944   -0.487657
      7         11           0        3.006179   -2.304357    0.241838
 ---------------------------------------------------------------------

 SCF Done:  E(UB3LYP) =  -1136.12440899     A.U. after   21 cycles

 The electronic state is 2-A.
 Alpha  occ. eigenvalues --  -38.44257 -38.44224 -38.44153 -38.44129 -38.43736
 Alpha  occ. eigenvalues --  -38.43453 -38.43429  -2.20075  -2.20040  -2.19968
 Alpha  occ. eigenvalues --   -2.19957  -2.19677  -2.19464  -2.19321  -1.13777
 Alpha  occ. eigenvalues --   -1.13737  -1.13730  -1.13718  -1.13701  -1.13676
 Alpha  occ. eigenvalues --   -1.13668  -1.13652  -1.13640  -1.13627  -1.13556
 Alpha  occ. eigenvalues --   -1.13548  -1.13524  -1.13335  -1.13248  -1.13184
 Alpha  occ. eigenvalues --   -1.13109  -1.13078  -1.12964  -1.12936  -1.12908
 Alpha  occ. eigenvalues --   -0.18205  -0.13715  -0.12818  -0.09880
 Alpha virt. eigenvalues --   -0.06264  -0.05797  -0.04961  -0.02952  -0.02733
 Alpha virt. eigenvalues --   -0.02097  -0.01867  -0.01538  -0.00810  -0.00538
 Alpha virt. eigenvalues --   -0.00048   0.00254   0.00633   0.00746   0.00771

  Beta  occ. eigenvalues --  -38.44262 -38.44216 -38.44129 -38.44110 -38.43677
  Beta  occ. eigenvalues --  -38.43413 -38.43401  -2.20086  -2.20029  -2.19926
  Beta  occ. eigenvalues --   -2.19922  -2.19569  -2.19371  -2.19295  -1.13778
  Beta  occ. eigenvalues --   -1.13742  -1.13731  -1.13714  -1.13677  -1.13662
  Beta  occ. eigenvalues --   -1.13642  -1.13614  -1.13607  -1.13597  -1.13541
  Beta  occ. eigenvalues --   -1.13525  -1.13449  -1.13262  -1.13177  -1.13122
  Beta  occ. eigenvalues --   -1.13045  -1.12994  -1.12949  -1.12904  -1.12862
  Beta  occ. eigenvalues --   -0.17615  -0.13532  -0.12532
  Beta virt. eigenvalues --   -0.06337  -0.05950  -0.05574  -0.04802  -0.02515
  Beta virt. eigenvalues --   -0.02174  -0.02012  -0.01592  -0.00917  -0.00803
  Beta virt. eigenvalues --   -0.00355   0.00208   0.00340   0.00720   0.00779

 Mulliken charges and spin densities:
               1          2
     1  Na  -0.244313   0.487473
     2  Na   0.580039   0.015269
     3  Na  -0.655861   0.067966
     4  Na  -0.598406   0.023958
     5  Na  -0.175589   0.367230
     6  Na   0.631295   0.007267
     7  Na   0.462835   0.030837
 Sum of Mulliken charges =  -0.00000   1.00000

 Dipole moment (field-independent basis, Debye):
    X=             -0.3924    Y=             -0.5160    Z=              0.0041  Tot=              0.6483
 Quadrupole moment (field-independent basis, Debye-Ang):
   XX=            -54.6800   YY=            -60.2602   ZZ=            -77.6458
   XY=             -2.1027   XZ=             -0.1650   YZ=             -0.1917

 Normal termination of Gaussian 16 at Fri Dec  8 01:52:49 2023.
