 Gaussian 16, Revision B.01,
 Gaussian 16:  ES64L-G16RevB.01 20-Dec-2017

 -------------------------
 #P B3LYP/6-311+g(d) force
 -------------------------

 -----
 DPGEN
 -----
 Symbolic Z-matrix:
 Charge =  0 Multiplicity = 2

                         Standard orientation:
 ---------------------------------------------------------------------
 Center     Atomic      Atomic             Coordinates (Angstroms)
 Number     Number       Type             X           Y           Z
 ---------------------------------------------------------------------
      1         11           0       -1.976816    2.366698    0.098543
      2         11           0        0.383903   -0.615994    1.852625
      3         11           0       -3.143286   -0.934705    0.136208
      4         11           0        2.990781   -0.601222   -0.279521
      5         11           0        0.178997   -2.818110   -0.315092
      6         11           0        1.855561    2.346363    0.173675
      7         11           0       -0.289140    0.256970   -1.666438
 ---------------------------------------------------------------------

 SCF Done:  E(UB3LYP) =  -1136.13659408     A.U. after   20 cycles

 The electronic state is 2-A.
 Alpha  occ. eigenvalues --  -38.44434 -38.44021 -38.43757 -38.43498 -38.43305
 Alpha  occ. eigenvalues --  -38.43235 -38.43055  -2.20233  -2.19898  -2.19584
 Alpha  occ. eigenvalues --   -2.19348  -2.19236  -2.19120  -2.19018  -1.13909
 Alpha  occ. eigenvalues --   -1.13892  -1.13872  -1.13585  -1.13559  -1.13542
 Alpha  occ. eigenvalues --   -1.13285  -1.13244  -1.13212  -1.13023  -1.13009
 Alpha  occ. eigenvalues --   -1.12987  -1.12975  -1.12884  -1.12848  -1.12800
 Alpha  occ. eigenvalues --   -1.12755  -1.12733  -1.12697  -1.12649  -1.12632
 Alpha  occ. eigenvalues --   -0.18677  -0.13244  -0.12427  -0.10436
 Alpha virt. eigenvalues --   -0.05887  -0.05304  -0.04624  -0.03207  -0.02832
 Alpha virt. eigenvalues --   -0.02218  -0.01695  -0.01089  -0.00453  -0.00418
 Alpha virt. eigenvalues --    0.00007   0.00361   0.00786   0.00866   0.00883

  Beta  occ. eigenvalues --  -38.44432 -38.44013 -38.43755 -38.43493 -38.43228
  Beta  occ. eigenvalues --  -38.43224 -38.42986  -2.20231  -2.19888  -2.19583
  Beta  occ. eigenvalues --   -2.19342  -2.19107  -2.19092  -2.18893  -1.13892
  Beta  occ. eigenvalues --   -1.13890  -1.13873  -1.13580  -1.13542  -1.13518
  Beta  occ. eigenvalues --   -1.13278  -1.13230  -1.13214  -1.13020  -1.12990
  Beta  occ. eigenvalues --   -1.12977  -1.12909  -1.12790  -1.12765  -1.12749
  Beta  occ. eigenvalues --   -1.12721  -1.12695  -1.12613  -1.12557  -1.12544
  Beta  occ. eigenvalues --   -0.17956  -0.13033  -0.12193
  Beta virt. eigenvalues --   -0.06557  -0.05851  -0.05283  -0.04564  -0.02451
  Beta virt. eigenvalues --   -0.02078  -0.01607  -0.01212  -0.01015  -0.00492
  Beta virt. eigenvalues --   -0.00465   0.00156   0.00393   0.00822   0.00878

 Mulliken charges and spin densities:
               1          2
     1  Na   0.001879  -0.085071
     2  Na  -0.440749   0.735826
     3  Na   0.030903  -0.085243
     4  Na   0.327668   0.023842
     5  Na   0.226770  -0.072814
     6  Na  -0.032314  -0.074667
     7  Na  -0.114158   0.558127
 Sum of Mulliken charges =  -0.00000   1.00000

 Dipole moment (field-independent basis, Debye):
    X=             -0.3042    Y=             -0.0405    Z=              0.0671  Tot=              0.3142
 Quadrupole moment (field-independent basis, Debye-Ang):
   XX=            -54.4733   YY=            -62.7608   ZZ=            -75.5623
   XY=              0.4222   XZ=             -1.5566   YZ=              1.9220

 Normal termination of Gaussian 16 at Fri Dec  8 06:00:04 2023.
