 Gaussian 16, Revision B.01,
 Gaussian 16:  ES64L-G16RevB.01 20-Dec-2017

 -------------------------
 #P B3LYP/6-311+g(d) force
 -------------------------

 -----
 DPGEN
 -----
 Symbolic Z-matrix:
 Charge =  0 Multiplicity = 2

                         Standard orientation:
 ---------------------------------------------------------------------
 Center     Atomic      Atomic             Coordinates (Angstroms)
 Number     Number       Type             X           Y           Z
 ---------------------------------------------------------------------
      1         11           0        2.310697   -0.869824    1.951795
      2         11           0       -1.656803    1.807454    0.885485
      3         11           0        2.335875   -1.013796   -1.422262
      4         11           0       -0.714162   -2.310569    0.005273
      5         11           0       -3.687025   -0.621568    0.072183
      6         11           0       -0.340484    0.879145   -1.512087
      7         11           0        1.751902    2.129158    0.019611
 ---------------------------------------------------------------------

 SCF Done:  E(UB3LYP) =  -1136.12628140     A.U. after   20 cycles

 The electronic state is 2-A.
 Alpha  occ. eigenvalues --  -38.44407 -38.44067 -38.43845 -38.43727 -38.43486
 Alpha  occ. eigenvalues --  -38.43445 -38.43381  -2.20227  -2.19903  -2.19739
 Alpha  occ. eigenvalues --   -2.19636  -2.19535  -2.19301  -2.19268  -1.13904
 Alpha  occ. eigenvalues --   -1.13882  -1.13871  -1.13560  -1.13545  -1.13525
 Alpha  occ. eigenvalues --   -1.13507  -1.13442  -1.13386  -1.13361  -1.13318
 Alpha  occ. eigenvalues --   -1.13278  -1.13220  -1.13155  -1.13098  -1.12964
 Alpha  occ. eigenvalues --   -1.12950  -1.12947  -1.12927  -1.12895  -1.12879
 Alpha  occ. eigenvalues --   -0.18617  -0.13816  -0.11918  -0.11106
 Alpha virt. eigenvalues --   -0.06068  -0.05193  -0.04325  -0.03616  -0.02798
 Alpha virt. eigenvalues --   -0.02561  -0.01853  -0.00864  -0.00358  -0.00115
 Alpha virt. eigenvalues --    0.00128   0.00303   0.00502   0.00730   0.00897

  Beta  occ. eigenvalues --  -38.44409 -38.43987 -38.43812 -38.43716 -38.43440
  Beta  occ. eigenvalues --  -38.43435 -38.43369  -2.20230  -2.19754  -2.19683
  Beta  occ. eigenvalues --   -2.19614  -2.19447  -2.19284  -2.19261  -1.13901
  Beta  occ. eigenvalues --   -1.13887  -1.13873  -1.13473  -1.13464  -1.13448
  Beta  occ. eigenvalues --   -1.13420  -1.13389  -1.13342  -1.13307  -1.13279
  Beta  occ. eigenvalues --   -1.13256  -1.13202  -1.13099  -1.13026  -1.12958
  Beta  occ. eigenvalues --   -1.12925  -1.12923  -1.12900  -1.12881  -1.12868
  Beta  occ. eigenvalues --   -0.17949  -0.13528  -0.11766
  Beta virt. eigenvalues --   -0.07167  -0.05929  -0.05110  -0.03754  -0.03448
  Beta virt. eigenvalues --   -0.02149  -0.01853  -0.01535  -0.00827  -0.00098
  Beta virt. eigenvalues --   -0.00002   0.00132   0.00362   0.00700   0.00819

 Mulliken charges and spin densities:
               1          2
     1  Na  -0.372483   0.352588
     2  Na  -0.041549   0.239729
     3  Na   0.283685   0.041387
     4  Na  -0.423135   0.123910
     5  Na   0.297852  -0.160670
     6  Na   0.117723  -0.028002
     7  Na   0.137907   0.431058
 Sum of Mulliken charges =  -0.00000   1.00000

 Dipole moment (field-independent basis, Debye):
    X=             -0.4771    Y=             -0.1486    Z=              0.1718  Tot=              0.5284
 Quadrupole moment (field-independent basis, Debye-Ang):
   XX=            -54.0535   YY=            -72.3901   ZZ=            -69.0216
   XY=              0.9845   XZ=             -1.6785   YZ=              1.5059

 Normal termination of Gaussian 16 at Thu Dec  7 15:26:58 2023.
