 Gaussian 16, Revision B.01,
 Gaussian 16:  ES64L-G16RevB.01 20-Dec-2017

 -------------------------
 #P B3LYP/6-311+g(d) force
 -------------------------

 -----
 DPGEN
 -----
 Symbolic Z-matrix:
 Charge =  0 Multiplicity = 2

                         Standard orientation:
 ---------------------------------------------------------------------
 Center     Atomic      Atomic             Coordinates (Angstroms)
 Number     Number       Type             X           Y           Z
 ---------------------------------------------------------------------
      1         11           0        2.001800   -1.909596   -1.182254
      2         11           0       -3.551068    0.439377   -0.634634
      3         11           0        1.981403   -0.142586    1.603616
      4         11           0        2.137190    2.318154   -0.732664
      5         11           0       -0.615653   -0.153433   -1.605877
      6         11           0       -0.953972    1.418432    1.395742
      7         11           0       -0.999699   -1.970348    1.156071
 ---------------------------------------------------------------------

 SCF Done:  E(UB3LYP) =  -1136.13151133     A.U. after   21 cycles

 The electronic state is 2-A.
 Alpha  occ. eigenvalues --  -38.44289 -38.43797 -38.43700 -38.43537 -38.43385
 Alpha  occ. eigenvalues --  -38.43350 -38.43321  -2.20129  -2.19714  -2.19581
 Alpha  occ. eigenvalues --   -2.19525  -2.19298  -2.19185  -2.19156  -1.13830
 Alpha  occ. eigenvalues --   -1.13772  -1.13756  -1.13424  -1.13379  -1.13327
 Alpha  occ. eigenvalues --   -1.13299  -1.13253  -1.13196  -1.13191  -1.13172
 Alpha  occ. eigenvalues --   -1.13138  -1.13001  -1.12957  -1.12890  -1.12867
 Alpha  occ. eigenvalues --   -1.12836  -1.12828  -1.12810  -1.12789  -1.12787
 Alpha  occ. eigenvalues --   -0.18845  -0.13346  -0.11860  -0.11363
 Alpha virt. eigenvalues --   -0.05769  -0.04845  -0.04457  -0.03259  -0.02953
 Alpha virt. eigenvalues --   -0.02780  -0.01738  -0.00851  -0.00625   0.00238
 Alpha virt. eigenvalues --    0.00317   0.00384   0.00461   0.00707   0.00882

  Beta  occ. eigenvalues --  -38.44279 -38.43762 -38.43659 -38.43481 -38.43351
  Beta  occ. eigenvalues --  -38.43337 -38.43300  -2.20111  -2.19653  -2.19511
  Beta  occ. eigenvalues --   -2.19424  -2.19239  -2.19149  -2.19132  -1.13806
  Beta  occ. eigenvalues --   -1.13762  -1.13745  -1.13367  -1.13332  -1.13283
  Beta  occ. eigenvalues --   -1.13252  -1.13174  -1.13134  -1.13130  -1.13108
  Beta  occ. eigenvalues --   -1.13067  -1.12961  -1.12885  -1.12856  -1.12826
  Beta  occ. eigenvalues --   -1.12817  -1.12807  -1.12792  -1.12771  -1.12760
  Beta  occ. eigenvalues --   -0.18025  -0.13141  -0.11201
  Beta virt. eigenvalues --   -0.07789  -0.05614  -0.04682  -0.03955  -0.02934
  Beta virt. eigenvalues --   -0.02437  -0.01886  -0.01641  -0.00697  -0.00333
  Beta virt. eigenvalues --    0.00299   0.00363   0.00395   0.00596   0.00784

 Mulliken charges and spin densities:
               1          2
     1  Na   0.139622  -0.038688
     2  Na   0.411853  -0.054302
     3  Na   0.337573   0.169314
     4  Na  -0.219685  -0.011380
     5  Na  -0.389421   0.556038
     6  Na  -0.122212   0.203393
     7  Na  -0.157730   0.175626
 Sum of Mulliken charges =  -0.00000   1.00000

 Dipole moment (field-independent basis, Debye):
    X=             -0.6115    Y=             -0.1459    Z=              0.0082  Tot=              0.6287
 Quadrupole moment (field-independent basis, Debye-Ang):
   XX=            -54.6273   YY=            -72.6686   ZZ=            -66.2854
   XY=             -0.8041   XZ=             -0.7554   YZ=             -2.8327

 Normal termination of Gaussian 16 at Wed Dec  6 01:15:47 2023.
