 Gaussian 16, Revision B.01,
 Gaussian 16:  ES64L-G16RevB.01 20-Dec-2017

 -------------------------
 #P B3LYP/6-311+g(d) force
 -------------------------

 -----
 DPGEN
 -----
 Symbolic Z-matrix:
 Charge =  0 Multiplicity = 2

                         Standard orientation:
 ---------------------------------------------------------------------
 Center     Atomic      Atomic             Coordinates (Angstroms)
 Number     Number       Type             X           Y           Z
 ---------------------------------------------------------------------
      1         11           0        0.438771   -0.163894    2.064003
      2         11           0       -1.200267    2.521854   -0.492656
      3         11           0       -3.018306    0.346702    0.112471
      4         11           0        2.435525    1.884876    0.272061
      5         11           0       -1.515084   -2.661655    0.225494
      6         11           0        3.156318   -1.462534   -0.615710
      7         11           0       -0.296957   -0.465349   -1.565663
 ---------------------------------------------------------------------

 SCF Done:  E(UB3LYP) =  -1136.12815252     A.U. after   21 cycles

 The electronic state is 2-A.
 Alpha  occ. eigenvalues --  -38.44608 -38.44259 -38.44065 -38.43839 -38.43525
 Alpha  occ. eigenvalues --  -38.43336 -38.42931  -2.20387  -2.20181  -2.19883
 Alpha  occ. eigenvalues --   -2.19705  -2.19494  -2.19202  -2.18833  -1.14056
 Alpha  occ. eigenvalues --   -1.14035  -1.14023  -1.13917  -1.13833  -1.13813
 Alpha  occ. eigenvalues --   -1.13578  -1.13543  -1.13514  -1.13372  -1.13332
 Alpha  occ. eigenvalues --   -1.13322  -1.13206  -1.13169  -1.13108  -1.12868
 Alpha  occ. eigenvalues --   -1.12848  -1.12836  -1.12529  -1.12492  -1.12443
 Alpha  occ. eigenvalues --   -0.18546  -0.13508  -0.12043  -0.10799
 Alpha virt. eigenvalues --   -0.06115  -0.05465  -0.04198  -0.03546  -0.02728
 Alpha virt. eigenvalues --   -0.02493  -0.01889  -0.01202  -0.00412  -0.00224
 Alpha virt. eigenvalues --   -0.00029   0.00315   0.00716   0.00771   0.00817

  Beta  occ. eigenvalues --  -38.44586 -38.44257 -38.44059 -38.43748 -38.43474
  Beta  occ. eigenvalues --  -38.43333 -38.42925  -2.20347  -2.20180  -2.19875
  Beta  occ. eigenvalues --   -2.19537  -2.19402  -2.19199  -2.18824  -1.14018
  Beta  occ. eigenvalues --   -1.14007  -1.13999  -1.13917  -1.13831  -1.13793
  Beta  occ. eigenvalues --   -1.13557  -1.13530  -1.13509  -1.13262  -1.13216
  Beta  occ. eigenvalues --   -1.13199  -1.13145  -1.13105  -1.13037  -1.12858
  Beta  occ. eigenvalues --   -1.12837  -1.12823  -1.12527  -1.12480  -1.12422
  Beta  occ. eigenvalues --   -0.17868  -0.13248  -0.11803
  Beta virt. eigenvalues --   -0.06990  -0.05977  -0.05358  -0.04158  -0.02824
  Beta virt. eigenvalues --   -0.02045  -0.01737  -0.01535  -0.01105  -0.00448
  Beta virt. eigenvalues --   -0.00200   0.00112   0.00364   0.00779   0.00824

 Mulliken charges and spin densities:
               1          2
     1  Na  -0.316085   0.497971
     2  Na  -0.026662   0.028800
     3  Na   0.229632   0.090813
     4  Na   0.105968   0.078661
     5  Na   0.178159   0.042911
     6  Na  -0.036664   0.034983
     7  Na  -0.134348   0.225861
 Sum of Mulliken charges =  -0.00000   1.00000

 Dipole moment (field-independent basis, Debye):
    X=              0.4902    Y=             -0.3101    Z=              0.2111  Tot=              0.6172
 Quadrupole moment (field-independent basis, Debye-Ang):
   XX=            -55.0116   YY=            -65.7340   ZZ=            -73.8247
   XY=              0.5969   XZ=             -1.8375   YZ=             -0.2289

 Normal termination of Gaussian 16 at Fri Dec  8 02:35:49 2023.
