 Gaussian 16, Revision B.01,
 Gaussian 16:  ES64L-G16RevB.01 20-Dec-2017

 -------------------------
 #P B3LYP/6-311+g(d) force
 -------------------------

 -----
 DPGEN
 -----
 Symbolic Z-matrix:
 Charge =  0 Multiplicity = 2

                         Standard orientation:
 ---------------------------------------------------------------------
 Center     Atomic      Atomic             Coordinates (Angstroms)
 Number     Number       Type             X           Y           Z
 ---------------------------------------------------------------------
      1         11           0       -1.185546    2.826697    0.163686
      2         11           0       -0.476349   -2.963383    0.278120
      3         11           0        2.790635   -1.552210    0.016414
      4         11           0       -0.359430   -0.390311   -1.716723
      5         11           0       -0.053402    0.294476    2.001549
      6         11           0       -3.190871   -0.305254   -0.284087
      7         11           0        2.474964    2.089985   -0.458959
 ---------------------------------------------------------------------

 SCF Done:  E(UB3LYP) =  -1136.13698271     A.U. after   18 cycles

 The electronic state is 2-A.
 Alpha  occ. eigenvalues --  -38.43981 -38.43902 -38.43879 -38.43752 -38.43655
 Alpha  occ. eigenvalues --  -38.43588 -38.43442  -2.19810  -2.19698  -2.19660
 Alpha  occ. eigenvalues --   -2.19571  -2.19497  -2.19464  -2.19370  -1.13519
 Alpha  occ. eigenvalues --   -1.13462  -1.13438  -1.13376  -1.13364  -1.13347
 Alpha  occ. eigenvalues --   -1.13336  -1.13310  -1.13298  -1.13275  -1.13234
 Alpha  occ. eigenvalues --   -1.13205  -1.13196  -1.13167  -1.13125  -1.13118
 Alpha  occ. eigenvalues --   -1.13085  -1.13080  -1.13040  -1.12994  -1.12989
 Alpha  occ. eigenvalues --   -0.18203  -0.12711  -0.12569  -0.10597
 Alpha virt. eigenvalues --   -0.05522  -0.05391  -0.05024  -0.03097  -0.03020
 Alpha virt. eigenvalues --   -0.02451  -0.01487  -0.01254  -0.00628  -0.00550
 Alpha virt. eigenvalues --   -0.00020   0.00351   0.00796   0.00831   0.00847

  Beta  occ. eigenvalues --  -38.43973 -38.43902 -38.43870 -38.43747 -38.43647
  Beta  occ. eigenvalues --  -38.43499 -38.43381  -2.19798  -2.19700  -2.19643
  Beta  occ. eigenvalues --   -2.19564  -2.19486  -2.19300  -2.19259  -1.13500
  Beta  occ. eigenvalues --   -1.13444  -1.13430  -1.13367  -1.13366  -1.13342
  Beta  occ. eigenvalues --   -1.13314  -1.13301  -1.13288  -1.13254  -1.13215
  Beta  occ. eigenvalues --   -1.13196  -1.13191  -1.13139  -1.13110  -1.13022
  Beta  occ. eigenvalues --   -1.12972  -1.12966  -1.12962  -1.12919  -1.12906
  Beta  occ. eigenvalues --   -0.17503  -0.12473  -0.12332
  Beta virt. eigenvalues --   -0.06786  -0.05480  -0.05373  -0.04884  -0.02345
  Beta virt. eigenvalues --   -0.02303  -0.01471  -0.01391  -0.01167  -0.00656
  Beta virt. eigenvalues --   -0.00592   0.00120   0.00388   0.00831   0.00835

 Mulliken charges and spin densities:
               1          2
     1  Na   0.072814  -0.063612
     2  Na   0.103968  -0.062083
     3  Na  -0.042245  -0.068207
     4  Na  -0.081021   0.618386
     5  Na  -0.192741   0.672434
     6  Na   0.247391  -0.081234
     7  Na  -0.108166  -0.015685
 Sum of Mulliken charges =  -0.00000   1.00000

 Dipole moment (field-independent basis, Debye):
    X=             -0.1344    Y=             -0.0387    Z=              0.0599  Tot=              0.1521
 Quadrupole moment (field-independent basis, Debye-Ang):
   XX=            -57.9257   YY=            -60.7195   ZZ=            -74.8995
   XY=             -0.2864   XZ=             -0.6627   YZ=             -1.6936

 Normal termination of Gaussian 16 at Thu Dec  7 02:08:06 2023.
