 Gaussian 16, Revision B.01,
 Gaussian 16:  ES64L-G16RevB.01 20-Dec-2017

 -------------------------
 #P B3LYP/6-311+g(d) force
 -------------------------

 -----
 DPGEN
 -----
 Symbolic Z-matrix:
 Charge =  0 Multiplicity = 2

                         Standard orientation:
 ---------------------------------------------------------------------
 Center     Atomic      Atomic             Coordinates (Angstroms)
 Number     Number       Type             X           Y           Z
 ---------------------------------------------------------------------
      1         11           0        1.744813    1.593797   -0.474038
      2         11           0       -1.147857   -0.200473    0.924173
      3         11           0       -1.724275   -2.796966   -0.503228
      4         11           0        2.028110   -1.738886    0.301261
      5         11           0        4.650566    0.047828   -0.080357
      6         11           0       -4.192732    0.114664   -0.195809
      7         11           0       -1.358625    2.980036    0.027998
 ---------------------------------------------------------------------

 SCF Done:  E(UB3LYP) =  -1136.12864572     A.U. after   20 cycles

 The electronic state is 2-A.
 Alpha  occ. eigenvalues --  -38.44197 -38.44004 -38.43951 -38.43846 -38.43823
 Alpha  occ. eigenvalues --  -38.43306 -38.43151  -2.20030  -2.19865  -2.19772
 Alpha  occ. eigenvalues --   -2.19715  -2.19692  -2.19296  -2.18975  -1.13692
 Alpha  occ. eigenvalues --   -1.13671  -1.13633  -1.13568  -1.13556  -1.13520
 Alpha  occ. eigenvalues --   -1.13507  -1.13441  -1.13400  -1.13385  -1.13380
 Alpha  occ. eigenvalues --   -1.13373  -1.13346  -1.13325  -1.13267  -1.12986
 Alpha  occ. eigenvalues --   -1.12971  -1.12919  -1.12648  -1.12635  -1.12613
 Alpha  occ. eigenvalues --   -0.17596  -0.14511  -0.12211  -0.10643
 Alpha virt. eigenvalues --   -0.05984  -0.05108  -0.04739  -0.03719  -0.02762
 Alpha virt. eigenvalues --   -0.02135  -0.01767  -0.01269  -0.00826  -0.00560
 Alpha virt. eigenvalues --   -0.00243   0.00055   0.00622   0.00644   0.00724

  Beta  occ. eigenvalues --  -38.44106 -38.43987 -38.43953 -38.43808 -38.43781
  Beta  occ. eigenvalues --  -38.43283 -38.43151  -2.19861  -2.19842  -2.19781
  Beta  occ. eigenvalues --   -2.19671  -2.19592  -2.19261  -2.18978  -1.13580
  Beta  occ. eigenvalues --   -1.13560  -1.13551  -1.13545  -1.13524  -1.13511
  Beta  occ. eigenvalues --   -1.13457  -1.13451  -1.13375  -1.13363  -1.13361
  Beta  occ. eigenvalues --   -1.13315  -1.13262  -1.13255  -1.13213  -1.12970
  Beta  occ. eigenvalues --   -1.12904  -1.12893  -1.12652  -1.12637  -1.12597
  Beta  occ. eigenvalues --   -0.16975  -0.13829  -0.11900
  Beta virt. eigenvalues --   -0.07180  -0.05860  -0.04969  -0.04224  -0.03200
  Beta virt. eigenvalues --   -0.02450  -0.01761  -0.01515  -0.00979  -0.00623
  Beta virt. eigenvalues --   -0.00384   0.00014   0.00309   0.00729   0.00747

 Mulliken charges and spin densities:
               1          2
     1  Na  -0.614503   0.077842
     2  Na  -0.635565   0.033525
     3  Na   0.106021   0.008825
     4  Na  -0.145595   0.060702
     5  Na   0.577828   0.343797
     6  Na   0.263030   0.479359
     7  Na   0.448784  -0.004051
 Sum of Mulliken charges =  -0.00000   1.00000

 Dipole moment (field-independent basis, Debye):
    X=              0.2262    Y=             -0.2741    Z=             -0.4194  Tot=              0.5498
 Quadrupole moment (field-independent basis, Debye-Ang):
   XX=            -62.2228   YY=            -65.2226   ZZ=            -69.4814
   XY=             -0.5124   XZ=              1.6490   YZ=              0.5402

 Normal termination of Gaussian 16 at Tue Nov 28 20:39:09 2023.
