 Gaussian 16, Revision B.01,
 Gaussian 16:  ES64L-G16RevB.01 20-Dec-2017

 -------------------------
 #P B3LYP/6-311+g(d) force
 -------------------------

 -----
 DPGEN
 -----
 Symbolic Z-matrix:
 Charge =  0 Multiplicity = 2

                         Standard orientation:
 ---------------------------------------------------------------------
 Center     Atomic      Atomic             Coordinates (Angstroms)
 Number     Number       Type             X           Y           Z
 ---------------------------------------------------------------------
      1         11           0       -0.899765    3.054030    0.077301
      2         11           0        2.312236    1.654067   -0.430391
      3         11           0        0.115245    0.062511    2.123695
      4         11           0        3.294925   -1.431227   -0.171174
      5         11           0       -3.668639   -0.991673    0.026924
      6         11           0       -1.032602    0.319588   -1.410567
      7         11           0       -0.121401   -2.667297   -0.215789
 ---------------------------------------------------------------------

 SCF Done:  E(UB3LYP) =  -1136.12903967     A.U. after   20 cycles

 The electronic state is 2-A.
 Alpha  occ. eigenvalues --  -38.45068 -38.44009 -38.43894 -38.43824 -38.43569
 Alpha  occ. eigenvalues --  -38.43463 -38.43361  -2.20836  -2.19827  -2.19699
 Alpha  occ. eigenvalues --   -2.19669  -2.19411  -2.19325  -2.19308  -1.14515
 Alpha  occ. eigenvalues --   -1.14495  -1.14467  -1.13544  -1.13508  -1.13428
 Alpha  occ. eigenvalues --   -1.13420  -1.13361  -1.13343  -1.13339  -1.13320
 Alpha  occ. eigenvalues --   -1.13272  -1.13157  -1.13061  -1.13041  -1.12996
 Alpha  occ. eigenvalues --   -1.12973  -1.12957  -1.12949  -1.12934  -1.12902
 Alpha  occ. eigenvalues --   -0.18064  -0.13054  -0.12413  -0.10333
 Alpha virt. eigenvalues --   -0.06536  -0.05264  -0.04633  -0.03018  -0.02786
 Alpha virt. eigenvalues --   -0.02425  -0.02160  -0.01300  -0.00637  -0.00414
 Alpha virt. eigenvalues --   -0.00079   0.00206   0.00717   0.00738   0.00772

  Beta  occ. eigenvalues --  -38.45069 -38.44003 -38.43888 -38.43809 -38.43566
  Beta  occ. eigenvalues --  -38.43351 -38.43326  -2.20840  -2.19819  -2.19688
  Beta  occ. eigenvalues --   -2.19644  -2.19408  -2.19245  -2.19118  -1.14512
  Beta  occ. eigenvalues --   -1.14492  -1.14471  -1.13539  -1.13477  -1.13428
  Beta  occ. eigenvalues --   -1.13410  -1.13346  -1.13327  -1.13317  -1.13302
  Beta  occ. eigenvalues --   -1.13257  -1.13146  -1.13042  -1.13036  -1.12940
  Beta  occ. eigenvalues --   -1.12914  -1.12860  -1.12842  -1.12808  -1.12786
  Beta  occ. eigenvalues --   -0.17401  -0.12809  -0.12233
  Beta virt. eigenvalues --   -0.06572  -0.06321  -0.05211  -0.04583  -0.02396
  Beta virt. eigenvalues --   -0.02207  -0.02013  -0.01309  -0.01242  -0.00640
  Beta virt. eigenvalues --   -0.00405   0.00111   0.00279   0.00740   0.00794

 Mulliken charges and spin densities:
               1          2
     1  Na   0.130614   0.019431
     2  Na  -0.024563   0.153903
     3  Na  -0.285680   0.646730
     4  Na  -0.076360  -0.000124
     5  Na   0.089563  -0.054823
     6  Na   0.317283   0.197551
     7  Na  -0.150857   0.037332
 Sum of Mulliken charges =  -0.00000   1.00000

 Dipole moment (field-independent basis, Debye):
    X=             -0.8407    Y=             -0.1757    Z=              0.2788  Tot=              0.9030
 Quadrupole moment (field-independent basis, Debye-Ang):
   XX=            -53.6115   YY=            -63.2240   ZZ=            -76.1776
   XY=             -0.1736   XZ=             -2.1673   YZ=              0.6015

 Normal termination of Gaussian 16 at Thu Dec  7 09:57:30 2023.
