 Gaussian 16, Revision B.01,
 Gaussian 16:  ES64L-G16RevB.01 20-Dec-2017

 -------------------------
 #P B3LYP/6-311+g(d) force
 -------------------------

 -----
 DPGEN
 -----
 Symbolic Z-matrix:
 Charge =  0 Multiplicity = 2

                         Standard orientation:
 ---------------------------------------------------------------------
 Center     Atomic      Atomic             Coordinates (Angstroms)
 Number     Number       Type             X           Y           Z
 ---------------------------------------------------------------------
      1         11           0       -1.537584   -2.254994    0.880748
      2         11           0        3.513878   -1.253389   -0.329218
      3         11           0        0.279969   -0.773189   -1.706481
      4         11           0       -3.445500   -0.056663   -0.814415
      5         11           0       -0.071233    0.323420    2.155744
      6         11           0       -1.116329    2.450846   -0.223093
      7         11           0        2.376799    1.563969    0.036714
 ---------------------------------------------------------------------

 SCF Done:  E(UB3LYP) =  -1136.12752525     A.U. after   22 cycles

 The electronic state is 2-A.
 Alpha  occ. eigenvalues --  -38.44845 -38.44436 -38.44277 -38.43868 -38.43657
 Alpha  occ. eigenvalues --  -38.43382 -38.42591  -2.20662  -2.20280  -2.20100
 Alpha  occ. eigenvalues --   -2.19773  -2.19550  -2.19255  -2.18449  -1.14328
 Alpha  occ. eigenvalues --   -1.14311  -1.14296  -1.13977  -1.13950  -1.13887
 Alpha  occ. eigenvalues --   -1.13811  -1.13748  -1.13730  -1.13446  -1.13417
 Alpha  occ. eigenvalues --   -1.13390  -1.13231  -1.13220  -1.13159  -1.12936
 Alpha  occ. eigenvalues --   -1.12897  -1.12880  -1.12126  -1.12125  -1.12079
 Alpha  occ. eigenvalues --   -0.18353  -0.13765  -0.11571  -0.11317
 Alpha virt. eigenvalues --   -0.06597  -0.05029  -0.04095  -0.03325  -0.03010
 Alpha virt. eigenvalues --   -0.02812  -0.02314  -0.01009  -0.00431  -0.00052
 Alpha virt. eigenvalues --    0.00015   0.00232   0.00543   0.00734   0.00861

  Beta  occ. eigenvalues --  -38.44818 -38.44403 -38.44281 -38.43772 -38.43654
  Beta  occ. eigenvalues --  -38.43345 -38.42582  -2.20611  -2.20219  -2.20108
  Beta  occ. eigenvalues --   -2.19599  -2.19546  -2.19190  -2.18435  -1.14285
  Beta  occ. eigenvalues --   -1.14272  -1.14266  -1.13935  -1.13905  -1.13844
  Beta  occ. eigenvalues --   -1.13818  -1.13747  -1.13733  -1.13330  -1.13302
  Beta  occ. eigenvalues --   -1.13261  -1.13218  -1.13213  -1.13153  -1.12884
  Beta  occ. eigenvalues --   -1.12854  -1.12820  -1.12121  -1.12111  -1.12053
  Beta  occ. eigenvalues --   -0.17650  -0.13515  -0.11266
  Beta virt. eigenvalues --   -0.07478  -0.06407  -0.04964  -0.03654  -0.03016
  Beta virt. eigenvalues --   -0.02416  -0.02163  -0.01776  -0.00977  -0.00224
  Beta virt. eigenvalues --   -0.00007   0.00068   0.00286   0.00640   0.00818

 Mulliken charges and spin densities:
               1          2
     1  Na  -0.070373   0.153414
     2  Na   0.263814  -0.029844
     3  Na  -0.225130   0.358699
     4  Na   0.224186   0.065074
     5  Na   0.158220   0.345812
     6  Na  -0.317217   0.129875
     7  Na  -0.033501  -0.023030
 Sum of Mulliken charges =  -0.00000   1.00000

 Dipole moment (field-independent basis, Debye):
    X=              0.0330    Y=             -0.2733    Z=             -0.1662  Tot=              0.3215
 Quadrupole moment (field-independent basis, Debye-Ang):
   XX=            -52.7527   YY=            -72.4933   ZZ=            -70.4626
   XY=             -0.9866   XZ=              2.3988   YZ=             -2.2843

 Normal termination of Gaussian 16 at Thu Dec  7 21:28:18 2023.
