 Gaussian 16, Revision B.01,
 Gaussian 16:  ES64L-G16RevB.01 20-Dec-2017

 -------------------------
 #P B3LYP/6-311+g(d) force
 -------------------------

 -----
 DPGEN
 -----
 Symbolic Z-matrix:
 Charge =  0 Multiplicity = 2

                         Standard orientation:
 ---------------------------------------------------------------------
 Center     Atomic      Atomic             Coordinates (Angstroms)
 Number     Number       Type             X           Y           Z
 ---------------------------------------------------------------------
      1         11           0       -1.364126    0.775347    1.432097
      2         11           0        2.156477    0.679695    0.668639
      3         11           0        0.669785   -2.424697    0.862668
      4         11           0       -3.693551    0.682204   -0.917269
      5         11           0       -2.325622   -2.323707   -0.669118
      6         11           0        4.539281   -0.379236   -1.102679
      7         11           0        0.017757    2.990394   -0.274338
 ---------------------------------------------------------------------

 SCF Done:  E(UB3LYP) =  -1136.12379639     A.U. after   19 cycles

 The electronic state is 2-A.
 Alpha  occ. eigenvalues --  -38.44432 -38.44163 -38.44149 -38.43973 -38.43909
 Alpha  occ. eigenvalues --  -38.43552 -38.43167  -2.20252  -2.20058  -2.20005
 Alpha  occ. eigenvalues --   -2.19810  -2.19729  -2.19378  -2.19072  -1.13907
 Alpha  occ. eigenvalues --   -1.13881  -1.13864  -1.13776  -1.13750  -1.13699
 Alpha  occ. eigenvalues --   -1.13663  -1.13644  -1.13615  -1.13478  -1.13457
 Alpha  occ. eigenvalues --   -1.13439  -1.13407  -1.13390  -1.13375  -1.13048
 Alpha  occ. eigenvalues --   -1.13042  -1.12998  -1.12766  -1.12750  -1.12710
 Alpha  occ. eigenvalues --   -0.17478  -0.13954  -0.12288  -0.11047
 Alpha virt. eigenvalues --   -0.06104  -0.04954  -0.04863  -0.03876  -0.02643
 Alpha virt. eigenvalues --   -0.02050  -0.01874  -0.01252  -0.00746  -0.00594
 Alpha virt. eigenvalues --   -0.00433   0.00175   0.00403   0.00577   0.00641

  Beta  occ. eigenvalues --  -38.44334 -38.44131 -38.44105 -38.43973 -38.43905
  Beta  occ. eigenvalues --  -38.43519 -38.43161  -2.20069  -2.20028  -2.19896
  Beta  occ. eigenvalues --   -2.19811  -2.19726  -2.19317  -2.19069  -1.13784
  Beta  occ. eigenvalues --   -1.13758  -1.13756  -1.13742  -1.13700  -1.13678
  Beta  occ. eigenvalues --   -1.13589  -1.13579  -1.13542  -1.13480  -1.13449
  Beta  occ. eigenvalues --   -1.13443  -1.13409  -1.13385  -1.13346  -1.13005
  Beta  occ. eigenvalues --   -1.13000  -1.12958  -1.12764  -1.12734  -1.12674
  Beta  occ. eigenvalues --   -0.16965  -0.13081  -0.12062
  Beta virt. eigenvalues --   -0.07599  -0.06003  -0.04739  -0.04245  -0.03698
  Beta virt. eigenvalues --   -0.02340  -0.01646  -0.01326  -0.00918  -0.00706
  Beta virt. eigenvalues --   -0.00463  -0.00223   0.00353   0.00457   0.00675

 Mulliken charges and spin densities:
               1          2
     1  Na   0.900804   0.145692
     2  Na  -0.935986   0.072329
     3  Na  -0.087943   0.063675
     4  Na  -0.129178   0.343354
     5  Na  -0.089957   0.034451
     6  Na   0.408887   0.416790
     7  Na  -0.066626  -0.076291
 Sum of Mulliken charges =  -0.00000   1.00000

 Dipole moment (field-independent basis, Debye):
    X=             -0.4872    Y=              0.2530    Z=             -0.6002  Tot=              0.8134
 Quadrupole moment (field-independent basis, Debye-Ang):
   XX=            -65.9468   YY=            -66.3457   ZZ=            -66.3554
   XY=             -1.7253   XZ=             -1.0605   YZ=             -0.9415

 Normal termination of Gaussian 16 at Wed Nov 29 00:37:47 2023.
