 Gaussian 16, Revision B.01,
 Gaussian 16:  ES64L-G16RevB.01 20-Dec-2017

 -------------------------
 #P B3LYP/6-311+g(d) force
 -------------------------

 -----
 DPGEN
 -----
 Symbolic Z-matrix:
 Charge =  0 Multiplicity = 2

                         Standard orientation:
 ---------------------------------------------------------------------
 Center     Atomic      Atomic             Coordinates (Angstroms)
 Number     Number       Type             X           Y           Z
 ---------------------------------------------------------------------
      1         11           0        2.690505    1.619696   -1.098297
      2         11           0       -3.720958   -0.895928   -0.964439
      3         11           0       -0.997725    2.264654   -0.045305
      4         11           0       -0.170484   -1.048606   -1.638487
      5         11           0        3.312817   -1.988467    0.364717
      6         11           0        1.010214    0.344542    1.600777
      7         11           0       -2.124368   -0.295892    1.781034
 ---------------------------------------------------------------------

 SCF Done:  E(UB3LYP) =  -1136.12325031     A.U. after   25 cycles

 The electronic state is 2-A.
 Alpha  occ. eigenvalues --  -38.44987 -38.44542 -38.44041 -38.43916 -38.43877
 Alpha  occ. eigenvalues --  -38.43249 -38.43088  -2.20789  -2.20337  -2.19954
 Alpha  occ. eigenvalues --   -2.19727  -2.19664  -2.19118  -2.19055  -1.14469
 Alpha  occ. eigenvalues --   -1.14438  -1.14396  -1.14040  -1.14019  -1.13930
 Alpha  occ. eigenvalues --   -1.13657  -1.13610  -1.13575  -1.13395  -1.13380
 Alpha  occ. eigenvalues --   -1.13358  -1.13337  -1.13320  -1.13286  -1.12841
 Alpha  occ. eigenvalues --   -1.12783  -1.12760  -1.12750  -1.12703  -1.12635
 Alpha  occ. eigenvalues --   -0.18242  -0.13816  -0.11349  -0.11108
 Alpha virt. eigenvalues --   -0.06546  -0.05457  -0.04681  -0.03163  -0.02695
 Alpha virt. eigenvalues --   -0.02386  -0.02261  -0.01163  -0.01031  -0.00120
 Alpha virt. eigenvalues --    0.00151   0.00230   0.00354   0.00436   0.00543

  Beta  occ. eigenvalues --  -38.44946 -38.44513 -38.43997 -38.43914 -38.43850
  Beta  occ. eigenvalues --  -38.43246 -38.43044  -2.20713  -2.20285  -2.19873
  Beta  occ. eigenvalues --   -2.19725  -2.19613  -2.19115  -2.18979  -1.14413
  Beta  occ. eigenvalues --   -1.14388  -1.14340  -1.14005  -1.13967  -1.13894
  Beta  occ. eigenvalues --   -1.13591  -1.13560  -1.13526  -1.13385  -1.13376
  Beta  occ. eigenvalues --   -1.13352  -1.13293  -1.13286  -1.13256  -1.12836
  Beta  occ. eigenvalues --   -1.12767  -1.12734  -1.12708  -1.12633  -1.12583
  Beta  occ. eigenvalues --   -0.17569  -0.13596  -0.10823
  Beta virt. eigenvalues --   -0.07589  -0.06374  -0.05061  -0.04280  -0.02875
  Beta virt. eigenvalues --   -0.02323  -0.02138  -0.01613  -0.00946  -0.00649
  Beta virt. eigenvalues --   -0.00059   0.00183   0.00325   0.00415   0.00566

 Mulliken charges and spin densities:
               1          2
     1  Na   0.126326   0.235183
     2  Na   0.206575  -0.022464
     3  Na  -0.055590   0.242138
     4  Na  -0.604128   0.238233
     5  Na   0.209663  -0.038666
     6  Na  -0.066236   0.343547
     7  Na   0.183390   0.002028
 Sum of Mulliken charges =  -0.00000   1.00000

 Dipole moment (field-independent basis, Debye):
    X=              0.1749    Y=              0.5413    Z=             -0.3933  Tot=              0.6915
 Quadrupole moment (field-independent basis, Debye-Ang):
   XX=            -52.9841   YY=            -72.1807   ZZ=            -70.2650
   XY=              0.4847   XZ=             -2.2330   YZ=             -5.1152

 Normal termination of Gaussian 16 at Fri Dec  8 04:08:32 2023.
