 Gaussian 16, Revision B.01,
 Gaussian 16:  ES64L-G16RevB.01 20-Dec-2017

 -------------------------
 #P B3LYP/6-311+g(d) force
 -------------------------

 -----
 DPGEN
 -----
 Symbolic Z-matrix:
 Charge =  0 Multiplicity = 2

                         Standard orientation:
 ---------------------------------------------------------------------
 Center     Atomic      Atomic             Coordinates (Angstroms)
 Number     Number       Type             X           Y           Z
 ---------------------------------------------------------------------
      1         11           0        2.996381   -1.460021   -0.797630
      2         11           0       -3.117375   -1.641104   -0.754906
      3         11           0        0.088989    3.502085   -0.775732
      4         11           0        1.520951    0.655551    1.574807
      5         11           0       -1.777208    1.156475    1.046576
      6         11           0       -0.022811   -2.078065    1.013311
      7         11           0        0.311073   -0.134920   -1.306427
 ---------------------------------------------------------------------

 SCF Done:  E(UB3LYP) =  -1136.13236713     A.U. after   20 cycles

 The electronic state is 2-A.
 Alpha  occ. eigenvalues --  -38.43722 -38.43598 -38.43544 -38.43492 -38.43459
 Alpha  occ. eigenvalues --  -38.43420 -38.43216  -2.19597  -2.19496  -2.19448
 Alpha  occ. eigenvalues --   -2.19392  -2.19316  -2.19265  -2.19261  -1.13345
 Alpha  occ. eigenvalues --   -1.13303  -1.13240  -1.13219  -1.13202  -1.13140
 Alpha  occ. eigenvalues --   -1.13092  -1.13080  -1.13061  -1.13058  -1.13037
 Alpha  occ. eigenvalues --   -1.13017  -1.13012  -1.12986  -1.12945  -1.12931
 Alpha  occ. eigenvalues --   -1.12929  -1.12905  -1.12877  -1.12863  -1.12856
 Alpha  occ. eigenvalues --   -0.18849  -0.12872  -0.12287  -0.10970
 Alpha virt. eigenvalues --   -0.05337  -0.05077  -0.04686  -0.03062  -0.02836
 Alpha virt. eigenvalues --   -0.02291  -0.01479  -0.01274  -0.00700   0.00097
 Alpha virt. eigenvalues --    0.00298   0.00383   0.00722   0.00792   0.00859

  Beta  occ. eigenvalues --  -38.43702 -38.43583 -38.43514 -38.43450 -38.43432
  Beta  occ. eigenvalues --  -38.43402 -38.43169  -2.19562  -2.19447  -2.19367
  Beta  occ. eigenvalues --   -2.19343  -2.19288  -2.19246  -2.19179  -1.13310
  Beta  occ. eigenvalues --   -1.13261  -1.13216  -1.13187  -1.13133  -1.13076
  Beta  occ. eigenvalues --   -1.13051  -1.13042  -1.13034  -1.13015  -1.13005
  Beta  occ. eigenvalues --   -1.12986  -1.12955  -1.12932  -1.12917  -1.12910
  Beta  occ. eigenvalues --   -1.12892  -1.12877  -1.12866  -1.12803  -1.12797
  Beta  occ. eigenvalues --   -0.18075  -0.12645  -0.12105
  Beta virt. eigenvalues --   -0.07014  -0.05180  -0.04884  -0.04523  -0.02554
  Beta virt. eigenvalues --   -0.02398  -0.01458  -0.01298  -0.01184  -0.00292
  Beta virt. eigenvalues --    0.00095   0.00350   0.00448   0.00779   0.00810

 Mulliken charges and spin densities:
               1          2
     1  Na   0.121848  -0.070281
     2  Na   0.242250  -0.103708
     3  Na  -0.158341  -0.106410
     4  Na   0.125765   0.248097
     5  Na   0.067683   0.137121
     6  Na   0.163477   0.173183
     7  Na  -0.562682   0.721999
 Sum of Mulliken charges =  -0.00000   1.00000

 Dipole moment (field-independent basis, Debye):
    X=              0.2807    Y=             -0.0243    Z=              0.0640  Tot=              0.2889
 Quadrupole moment (field-independent basis, Debye-Ang):
   XX=            -58.8294   YY=            -62.1384   ZZ=            -70.1430
   XY=             -0.5417   XZ=              0.2755   YZ=             -0.5104

 Normal termination of Gaussian 16 at Tue Dec  5 23:08:04 2023.
