 Gaussian 16, Revision B.01,
 Gaussian 16:  ES64L-G16RevB.01 20-Dec-2017

 -------------------------
 #P B3LYP/6-311+g(d) force
 -------------------------

 -----
 DPGEN
 -----
 Symbolic Z-matrix:
 Charge =  0 Multiplicity = 2

                         Standard orientation:
 ---------------------------------------------------------------------
 Center     Atomic      Atomic             Coordinates (Angstroms)
 Number     Number       Type             X           Y           Z
 ---------------------------------------------------------------------
      1         11           0        0.114724    0.212817   -0.181942
      2         11           0        2.472382   -2.408916    0.000969
      3         11           0        3.404707    0.891666   -0.606509
      4         11           0        1.276243    3.247546    0.583306
      5         11           0       -3.232829    2.043027    0.067179
      6         11           0       -3.464124   -1.064314   -0.564960
      7         11           0       -0.571102   -2.921827    0.701957
 ---------------------------------------------------------------------

 SCF Done:  E(UB3LYP) =  -1136.12636963     A.U. after   22 cycles

 The electronic state is 2-A.
 Alpha  occ. eigenvalues --  -38.44504 -38.44223 -38.43942 -38.43734 -38.43614
 Alpha  occ. eigenvalues --  -38.43519 -38.43191  -2.20328  -2.20038  -2.19800
 Alpha  occ. eigenvalues --   -2.19656  -2.19480  -2.19357  -2.19073  -1.14010
 Alpha  occ. eigenvalues --   -1.14004  -1.13968  -1.13695  -1.13673  -1.13670
 Alpha  occ. eigenvalues --   -1.13491  -1.13470  -1.13425  -1.13388  -1.13316
 Alpha  occ. eigenvalues --   -1.13285  -1.13150  -1.13147  -1.13130  -1.13009
 Alpha  occ. eigenvalues --   -1.13000  -1.12984  -1.12729  -1.12714  -1.12703
 Alpha  occ. eigenvalues --   -0.17376  -0.14049  -0.13065  -0.09752
 Alpha virt. eigenvalues --   -0.06565  -0.05628  -0.04202  -0.03377  -0.02883
 Alpha virt. eigenvalues --   -0.02136  -0.02013  -0.01552  -0.01098  -0.00308
 Alpha virt. eigenvalues --    0.00054   0.00247   0.00435   0.00567   0.00728

  Beta  occ. eigenvalues --  -38.44490 -38.44182 -38.43906 -38.43733 -38.43590
  Beta  occ. eigenvalues --  -38.43473 -38.43155  -2.20308  -2.19966  -2.19738
  Beta  occ. eigenvalues --   -2.19653  -2.19439  -2.19272  -2.19004  -1.13997
  Beta  occ. eigenvalues --   -1.13991  -1.13922  -1.13648  -1.13631  -1.13601
  Beta  occ. eigenvalues --   -1.13456  -1.13434  -1.13379  -1.13347  -1.13312
  Beta  occ. eigenvalues --   -1.13286  -1.13126  -1.13123  -1.13070  -1.12950
  Beta  occ. eigenvalues --   -1.12942  -1.12933  -1.12683  -1.12668  -1.12662
  Beta  occ. eigenvalues --   -0.17031  -0.13342  -0.12634
  Beta virt. eigenvalues --   -0.06550  -0.06362  -0.05396  -0.04052  -0.02931
  Beta virt. eigenvalues --   -0.02210  -0.01997  -0.01834  -0.01260  -0.00926
  Beta virt. eigenvalues --   -0.00115   0.00304   0.00400   0.00540   0.00649

 Mulliken charges and spin densities:
               1          2
     1  Na  -4.325492  -0.193488
     2  Na   0.844597   0.215956
     3  Na   0.995905   0.278225
     4  Na   0.683273   0.173532
     5  Na   0.815286   0.309259
     6  Na   0.413983   0.119354
     7  Na   0.572448   0.097163
 Sum of Mulliken charges =  -0.00000   1.00000

 Dipole moment (field-independent basis, Debye):
    X=             -0.3755    Y=              0.1630    Z=              0.2182  Tot=              0.4639
 Quadrupole moment (field-independent basis, Debye-Ang):
   XX=            -66.5675   YY=            -59.6467   ZZ=            -71.2692
   XY=              4.1678   XZ=              0.0651   YZ=              1.3159

 Normal termination of Gaussian 16 at Fri Dec  8 18:48:02 2023.
