 Gaussian 16, Revision B.01,
 Gaussian 16:  ES64L-G16RevB.01 20-Dec-2017

 -------------------------
 #P B3LYP/6-311+g(d) force
 -------------------------

 -----
 DPGEN
 -----
 Symbolic Z-matrix:
 Charge =  0 Multiplicity = 2

                         Standard orientation:
 ---------------------------------------------------------------------
 Center     Atomic      Atomic             Coordinates (Angstroms)
 Number     Number       Type             X           Y           Z
 ---------------------------------------------------------------------
      1         11           0       -1.270299    2.726730   -0.104467
      2         11           0       -3.334033   -0.292779   -0.121960
      3         11           0        0.094000    0.180171   -0.947592
      4         11           0        2.597839    1.935369   -0.172200
      5         11           0       -0.208999   -0.345805    1.890178
      6         11           0        2.895187   -1.603140   -0.007827
      7         11           0       -0.773696   -2.600546   -0.536131
 ---------------------------------------------------------------------

 SCF Done:  E(UB3LYP) =  -1136.12613017     A.U. after   20 cycles

 The electronic state is 2-A.
 Alpha  occ. eigenvalues --  -38.44533 -38.44295 -38.44119 -38.43594 -38.43276
 Alpha  occ. eigenvalues --  -38.42954 -38.42785  -2.20356  -2.20104  -2.19942
 Alpha  occ. eigenvalues --   -2.19441  -2.19190  -2.18970  -2.18915  -1.14026
 Alpha  occ. eigenvalues --   -1.14007  -1.14002  -1.13778  -1.13765  -1.13745
 Alpha  occ. eigenvalues --   -1.13643  -1.13596  -1.13561  -1.13198  -1.13091
 Alpha  occ. eigenvalues --   -1.13052  -1.13011  -1.12867  -1.12814  -1.12782
 Alpha  occ. eigenvalues --   -1.12578  -1.12550  -1.12511  -1.12504  -1.12485
 Alpha  occ. eigenvalues --   -0.18847  -0.13323  -0.12400  -0.09925
 Alpha virt. eigenvalues --   -0.06104  -0.05577  -0.04465  -0.02826  -0.02359
 Alpha virt. eigenvalues --   -0.02091  -0.01734  -0.01408  -0.00611  -0.00418
 Alpha virt. eigenvalues --    0.00004   0.00293   0.00695   0.00786   0.00834

  Beta  occ. eigenvalues --  -38.44526 -38.44293 -38.44115 -38.43590 -38.43258
  Beta  occ. eigenvalues --  -38.42850 -38.42751  -2.20345  -2.20103  -2.19936
  Beta  occ. eigenvalues --   -2.19437  -2.19159  -2.18911  -2.18726  -1.14004
  Beta  occ. eigenvalues --   -1.14003  -1.13988  -1.13770  -1.13759  -1.13742
  Beta  occ. eigenvalues --   -1.13637  -1.13580  -1.13561  -1.13193  -1.13067
  Beta  occ. eigenvalues --   -1.13052  -1.12986  -1.12799  -1.12762  -1.12734
  Beta  occ. eigenvalues --   -1.12540  -1.12509  -1.12402  -1.12374  -1.12352
  Beta  occ. eigenvalues --   -0.18138  -0.13086  -0.12155
  Beta virt. eigenvalues --   -0.06139  -0.05951  -0.05550  -0.04398  -0.02138
  Beta virt. eigenvalues --   -0.02006  -0.01674  -0.01368  -0.00765  -0.00628
  Beta virt. eigenvalues --   -0.00409   0.00186   0.00369   0.00738   0.00801

 Mulliken charges and spin densities:
               1          2
     1  Na   0.149866   0.030162
     2  Na   0.415270   0.080355
     3  Na  -1.250217   0.020933
     4  Na   0.239797   0.041830
     5  Na  -0.206646   0.640928
     6  Na   0.335060   0.034175
     7  Na   0.316870   0.151617
 Sum of Mulliken charges =  -0.00000   1.00000

 Dipole moment (field-independent basis, Debye):
    X=              0.0757    Y=              0.0275    Z=              0.3423  Tot=              0.3516
 Quadrupole moment (field-independent basis, Debye-Ang):
   XX=            -48.9413   YY=            -61.6086   ZZ=            -78.2417
   XY=             -0.9480   XZ=              0.3857   YZ=              0.8138

 Normal termination of Gaussian 16 at Thu Dec  7 19:35:49 2023.
