 Gaussian 16, Revision B.01,
 Gaussian 16:  ES64L-G16RevB.01 20-Dec-2017

 -------------------------
 #P B3LYP/6-311+g(d) force
 -------------------------

 -----
 DPGEN
 -----
 Symbolic Z-matrix:
 Charge =  0 Multiplicity = 2

                         Standard orientation:
 ---------------------------------------------------------------------
 Center     Atomic      Atomic             Coordinates (Angstroms)
 Number     Number       Type             X           Y           Z
 ---------------------------------------------------------------------
      1         11           0        3.176034   -1.905588   -0.257694
      2         11           0       -0.062511    3.514129   -0.010548
      3         11           0       -3.653692   -1.940409   -1.438661
      4         11           0       -0.359424    0.969269    2.664386
      5         11           0        0.780004   -2.258218    1.525869
      6         11           0        2.763104    1.031454   -2.078186
      7         11           0       -2.643515    0.589363   -0.405167
 ---------------------------------------------------------------------

 SCF Done:  E(UB3LYP) =  -1136.10825752     A.U. after   22 cycles

 The electronic state is 2-A.
 Alpha  occ. eigenvalues --  -38.45600 -38.45499 -38.44550 -38.44058 -38.44009
 Alpha  occ. eigenvalues --  -38.43550 -38.43525  -2.21360  -2.21288  -2.20376
 Alpha  occ. eigenvalues --   -2.19879  -2.19757  -2.19398  -2.19352  -1.15021
 Alpha  occ. eigenvalues --   -1.14997  -1.14976  -1.14946  -1.14945  -1.14890
 Alpha  occ. eigenvalues --   -1.14083  -1.14026  -1.14005  -1.13547  -1.13533
 Alpha  occ. eigenvalues --   -1.13524  -1.13443  -1.13420  -1.13401  -1.13228
 Alpha  occ. eigenvalues --   -1.13072  -1.13057  -1.12980  -1.12970  -1.12889
 Alpha  occ. eigenvalues --   -0.16490  -0.13444  -0.12208  -0.11888
 Alpha virt. eigenvalues --   -0.06450  -0.05490  -0.04803  -0.03545  -0.03340
 Alpha virt. eigenvalues --   -0.02586  -0.01331  -0.01217  -0.01124  -0.00860
 Alpha virt. eigenvalues --   -0.00574  -0.00183   0.00046   0.00322   0.00676

  Beta  occ. eigenvalues --  -38.45520 -38.45427 -38.44510 -38.44064 -38.44020
  Beta  occ. eigenvalues --  -38.43541 -38.43493  -2.21212  -2.21155  -2.20302
  Beta  occ. eigenvalues --   -2.19892  -2.19780  -2.19383  -2.19295  -1.14921
  Beta  occ. eigenvalues --   -1.14899  -1.14871  -1.14860  -1.14853  -1.14791
  Beta  occ. eigenvalues --   -1.14044  -1.13965  -1.13956  -1.13554  -1.13543
  Beta  occ. eigenvalues --   -1.13513  -1.13457  -1.13435  -1.13412  -1.13196
  Beta  occ. eigenvalues --   -1.13061  -1.13044  -1.12942  -1.12933  -1.12858
  Beta  occ. eigenvalues --   -0.15777  -0.13065  -0.11610
  Beta virt. eigenvalues --   -0.08694  -0.05771  -0.05076  -0.04544  -0.03250
  Beta virt. eigenvalues --   -0.03054  -0.02220  -0.01201  -0.01091  -0.00887
  Beta virt. eigenvalues --   -0.00588  -0.00329   0.00002   0.00258   0.00426

 Mulliken charges and spin densities:
               1          2
     1  Na   0.254308  -0.106186
     2  Na   0.050022  -0.015766
     3  Na   0.453300  -0.025687
     4  Na   0.442864   0.177256
     5  Na  -0.302436   0.308088
     6  Na  -0.063957   0.423769
     7  Na  -0.834101   0.238525
 Sum of Mulliken charges =  -0.00000   1.00000

 Dipole moment (field-independent basis, Debye):
    X=              1.0350    Y=              0.1966    Z=              0.2365  Tot=              1.0798
 Quadrupole moment (field-independent basis, Debye-Ang):
   XX=            -72.0818   YY=            -65.2303   ZZ=            -63.9368
   XY=              0.6561   XZ=             -3.3474   YZ=             -0.5345

 Normal termination of Gaussian 16 at Sun Dec  3 14:57:58 2023.
