 Gaussian 16, Revision B.01,
 Gaussian 16:  ES64L-G16RevB.01 20-Dec-2017

 -------------------------
 #P B3LYP/6-311+g(d) force
 -------------------------

 -----
 DPGEN
 -----
 Symbolic Z-matrix:
 Charge =  0 Multiplicity = 2

                         Standard orientation:
 ---------------------------------------------------------------------
 Center     Atomic      Atomic             Coordinates (Angstroms)
 Number     Number       Type             X           Y           Z
 ---------------------------------------------------------------------
      1         11           0       -4.252235    0.088454   -0.443028
      2         11           0        0.615282   -3.025791    0.261375
      3         11           0        1.226380    2.882750   -0.273716
      4         11           0       -2.380129    3.316176    0.873911
      5         11           0        4.137093    1.274698   -0.747897
      6         11           0        3.669116   -1.848620    0.666951
      7         11           0       -3.015506   -2.687666   -0.337597
 ---------------------------------------------------------------------

 SCF Done:  E(UB3LYP) =  -1136.10816379     A.U. after   23 cycles

 The electronic state is 2-A.
 Alpha  occ. eigenvalues --  -38.45252 -38.45072 -38.44865 -38.44556 -38.44184
 Alpha  occ. eigenvalues --  -38.44174 -38.44009  -2.21045  -2.20819  -2.20661
 Alpha  occ. eigenvalues --   -2.20338  -2.20004  -2.19997  -2.19783  -1.14742
 Alpha  occ. eigenvalues --   -1.14709  -1.14675  -1.14511  -1.14503  -1.14450
 Alpha  occ. eigenvalues --   -1.14336  -1.14330  -1.14305  -1.14008  -1.14002
 Alpha  occ. eigenvalues --   -1.13961  -1.13669  -1.13655  -1.13649  -1.13647
 Alpha  occ. eigenvalues --   -1.13637  -1.13629  -1.13439  -1.13419  -1.13413
 Alpha  occ. eigenvalues --   -0.15684  -0.14266  -0.13227  -0.10972
 Alpha virt. eigenvalues --   -0.07667  -0.04818  -0.04431  -0.03659  -0.03523
 Alpha virt. eigenvalues --   -0.02492  -0.02307  -0.01715  -0.01293  -0.00882
 Alpha virt. eigenvalues --   -0.00766  -0.00199   0.00073   0.00495   0.00604

  Beta  occ. eigenvalues --  -38.45229 -38.45064 -38.44848 -38.44522 -38.44147
  Beta  occ. eigenvalues --  -38.44129 -38.43940  -2.21009  -2.20811  -2.20634
  Beta  occ. eigenvalues --   -2.20279  -2.19950  -2.19902  -2.19654  -1.14707
  Beta  occ. eigenvalues --   -1.14689  -1.14632  -1.14511  -1.14504  -1.14402
  Beta  occ. eigenvalues --   -1.14316  -1.14311  -1.14267  -1.13969  -1.13964
  Beta  occ. eigenvalues --   -1.13909  -1.13631  -1.13616  -1.13594  -1.13586
  Beta  occ. eigenvalues --   -1.13577  -1.13571  -1.13352  -1.13335  -1.13325
  Beta  occ. eigenvalues --   -0.15170  -0.13585  -0.12348
  Beta virt. eigenvalues --   -0.07925  -0.07806  -0.04304  -0.04008  -0.03467
  Beta virt. eigenvalues --   -0.03195  -0.02269  -0.02154  -0.01482  -0.01052
  Beta virt. eigenvalues --   -0.00573  -0.00468  -0.00038   0.00243   0.00533

 Mulliken charges and spin densities:
               1          2
     1  Na  -0.388214   0.125184
     2  Na  -0.401916   0.175766
     3  Na  -0.311777   0.125876
     4  Na   0.150833   0.304612
     5  Na   0.186585   0.184839
     6  Na   0.335777  -0.138681
     7  Na   0.428712   0.222404
 Sum of Mulliken charges =  -0.00000   1.00000

 Dipole moment (field-independent basis, Debye):
    X=              0.2568    Y=             -0.3937    Z=             -0.0826  Tot=              0.4773
 Quadrupole moment (field-independent basis, Debye-Ang):
   XX=            -55.8522   YY=            -71.2992   ZZ=            -72.7696
   XY=             -2.1834   XZ=              0.6535   YZ=             -0.1986

 Normal termination of Gaussian 16 at Mon Dec  4 05:07:03 2023.
