 Gaussian 16, Revision B.01,
 Gaussian 16:  ES64L-G16RevB.01 20-Dec-2017

 -------------------------
 #P B3LYP/6-311+g(d) force
 -------------------------

 -----
 DPGEN
 -----
 Symbolic Z-matrix:
 Charge =  0 Multiplicity = 2

                         Standard orientation:
 ---------------------------------------------------------------------
 Center     Atomic      Atomic             Coordinates (Angstroms)
 Number     Number       Type             X           Y           Z
 ---------------------------------------------------------------------
      1         11           0       -0.386330   -2.078936    1.314860
      2         11           0       -3.022942   -0.952631   -0.671940
      3         11           0       -0.307697   -0.709043   -1.387867
      4         11           0        0.532898    0.631165    1.802111
      5         11           0        1.765224    2.050613   -0.415190
      6         11           0       -1.815098    2.234367    0.020131
      7         11           0        3.233947   -1.175535   -0.662104
 ---------------------------------------------------------------------

 SCF Done:  E(UB3LYP) =  -1136.12274720     A.U. after   20 cycles

 The electronic state is 2-A.
 Alpha  occ. eigenvalues --  -38.44279 -38.44040 -38.43690 -38.43566 -38.43561
 Alpha  occ. eigenvalues --  -38.43507 -38.43227  -2.20072  -2.19950  -2.19725
 Alpha  occ. eigenvalues --   -2.19555  -2.19520  -2.19467  -2.19084  -1.13789
 Alpha  occ. eigenvalues --   -1.13743  -1.13725  -1.13699  -1.13580  -1.13570
 Alpha  occ. eigenvalues --   -1.13555  -1.13465  -1.13315  -1.13309  -1.13187
 Alpha  occ. eigenvalues --   -1.13164  -1.13141  -1.13122  -1.13098  -1.13086
 Alpha  occ. eigenvalues --   -1.13079  -1.13040  -1.12767  -1.12753  -1.12707
 Alpha  occ. eigenvalues --   -0.19140  -0.13422  -0.12069  -0.11441
 Alpha virt. eigenvalues --   -0.05702  -0.05095  -0.03941  -0.03468  -0.03042
 Alpha virt. eigenvalues --   -0.02639  -0.01772  -0.00950  -0.00277   0.00103
 Alpha virt. eigenvalues --    0.00252   0.00303   0.00793   0.00832   0.00946

  Beta  occ. eigenvalues --  -38.44259 -38.44024 -38.43607 -38.43552 -38.43508
  Beta  occ. eigenvalues --  -38.43471 -38.43226  -2.20035  -2.19922  -2.19578
  Beta  occ. eigenvalues --   -2.19489  -2.19452  -2.19419  -2.19084  -1.13759
  Beta  occ. eigenvalues --   -1.13711  -1.13696  -1.13678  -1.13552  -1.13533
  Beta  occ. eigenvalues --   -1.13460  -1.13390  -1.13254  -1.13214  -1.13145
  Beta  occ. eigenvalues --   -1.13108  -1.13095  -1.13088  -1.13047  -1.13026
  Beta  occ. eigenvalues --   -1.13022  -1.12992  -1.12761  -1.12746  -1.12703
  Beta  occ. eigenvalues --   -0.18449  -0.13090  -0.11848
  Beta virt. eigenvalues --   -0.07467  -0.05522  -0.05033  -0.03795  -0.02905
  Beta virt. eigenvalues --   -0.02389  -0.01631  -0.01565  -0.00936  -0.00057
  Beta virt. eigenvalues --    0.00127   0.00271   0.00367   0.00832   0.00866

 Mulliken charges and spin densities:
               1          2
     1  Na  -0.156770   0.061925
     2  Na   0.870795   0.111933
     3  Na  -0.759522   0.459835
     4  Na   0.520717   0.242427
     5  Na   0.011052   0.133160
     6  Na  -0.407307  -0.040473
     7  Na  -0.078965   0.031194
 Sum of Mulliken charges =  -0.00000   1.00000

 Dipole moment (field-independent basis, Debye):
    X=              0.1409    Y=             -0.1060    Z=             -0.1531  Tot=              0.2335
 Quadrupole moment (field-independent basis, Debye-Ang):
   XX=            -54.3643   YY=            -68.4673   ZZ=            -71.0103
   XY=             -0.6954   XZ=             -1.0766   YZ=             -1.3551

 Normal termination of Gaussian 16 at Fri Dec  8 02:45:45 2023.
