 Gaussian 16, Revision B.01,
 Gaussian 16:  ES64L-G16RevB.01 20-Dec-2017

 -------------------------
 #P B3LYP/6-311+g(d) force
 -------------------------

 -----
 DPGEN
 -----
 Symbolic Z-matrix:
 Charge =  0 Multiplicity = 2

                         Standard orientation:
 ---------------------------------------------------------------------
 Center     Atomic      Atomic             Coordinates (Angstroms)
 Number     Number       Type             X           Y           Z
 ---------------------------------------------------------------------
      1         11           0       -0.709792   -2.126135    0.466761
      2         11           0       -1.241682    2.079048    0.363912
      3         11           0       -2.579553   -0.327864   -0.576960
      4         11           0        0.103652    0.334825    1.752823
      5         11           0        0.375502   -0.594473   -1.703731
      6         11           0        2.356775   -0.998266    0.402348
      7         11           0        1.695098    1.632866   -0.705153
 ---------------------------------------------------------------------

 SCF Done:  E(UB3LYP) =  -1136.09239976     A.U. after   19 cycles

 The electronic state is 2-A.
 Alpha  occ. eigenvalues --  -38.44326 -38.44046 -38.43963 -38.43704 -38.43606
 Alpha  occ. eigenvalues --  -38.43502 -38.43334  -2.20552  -2.20238  -2.19993
 Alpha  occ. eigenvalues --   -2.19776  -2.19678  -2.19558  -2.19442  -1.14462
 Alpha  occ. eigenvalues --   -1.14252  -1.14149  -1.14068  -1.13983  -1.13881
 Alpha  occ. eigenvalues --   -1.13760  -1.13697  -1.13602  -1.13521  -1.13432
 Alpha  occ. eigenvalues --   -1.13383  -1.13334  -1.13292  -1.13218  -1.13197
 Alpha  occ. eigenvalues --   -1.13141  -1.13105  -1.13092  -1.13066  -1.12995
 Alpha  occ. eigenvalues --   -0.21176  -0.13776  -0.12768  -0.12308
 Alpha virt. eigenvalues --   -0.05129  -0.04345  -0.04067  -0.03835  -0.03251
 Alpha virt. eigenvalues --   -0.03076  -0.01021  -0.00523  -0.00118   0.00361
 Alpha virt. eigenvalues --    0.00740   0.00821   0.01025   0.01092   0.01111

  Beta  occ. eigenvalues --  -38.44235 -38.43968 -38.43949 -38.43688 -38.43581
  Beta  occ. eigenvalues --  -38.43492 -38.43315  -2.20388  -2.20097  -2.19972
  Beta  occ. eigenvalues --   -2.19752  -2.19638  -2.19543  -2.19414  -1.14344
  Beta  occ. eigenvalues --   -1.14153  -1.14039  -1.13971  -1.13899  -1.13801
  Beta  occ. eigenvalues --   -1.13734  -1.13678  -1.13555  -1.13499  -1.13389
  Beta  occ. eigenvalues --   -1.13346  -1.13305  -1.13230  -1.13196  -1.13158
  Beta  occ. eigenvalues --   -1.13121  -1.13083  -1.13079  -1.13002  -1.12977
  Beta  occ. eigenvalues --   -0.20379  -0.13453  -0.12449
  Beta virt. eigenvalues --   -0.08100  -0.05112  -0.04337  -0.03973  -0.02972
  Beta virt. eigenvalues --   -0.02448  -0.01882  -0.00947  -0.00463   0.00034
  Beta virt. eigenvalues --    0.00396   0.00741   0.00808   0.01044   0.01102

 Mulliken charges and spin densities:
               1          2
     1  Na   0.193524   0.096947
     2  Na   0.336443   0.217955
     3  Na  -0.192449  -0.061382
     4  Na  -0.271390   0.314963
     5  Na  -0.223253   0.459966
     6  Na   0.113158  -0.080362
     7  Na   0.043967   0.051913
 Sum of Mulliken charges =  -0.00000   1.00000

 Dipole moment (field-independent basis, Debye):
    X=              0.0435    Y=             -0.0189    Z=             -0.1554  Tot=              0.1625
 Quadrupole moment (field-independent basis, Debye-Ang):
   XX=            -60.8033   YY=            -69.1669   ZZ=            -67.9353
   XY=             -0.2791   XZ=              1.1838   YZ=             -1.8410

 Normal termination of Gaussian 16 at Sat Dec  9 06:09:32 2023.
