 Gaussian 16, Revision B.01,
 Gaussian 16:  ES64L-G16RevB.01 20-Dec-2017

 -------------------------
 #P B3LYP/6-311+g(d) force
 -------------------------

 -----
 DPGEN
 -----
 Symbolic Z-matrix:
 Charge =  0 Multiplicity = 2

                         Standard orientation:
 ---------------------------------------------------------------------
 Center     Atomic      Atomic             Coordinates (Angstroms)
 Number     Number       Type             X           Y           Z
 ---------------------------------------------------------------------
      1         11           0        1.092016   -1.724231    1.351798
      2         11           0       -0.243087   -0.873898   -1.410735
      3         11           0       -3.167607   -1.074133   -0.496943
      4         11           0       -1.342837    0.233293    1.609269
      5         11           0        3.073070   -0.528309   -1.187464
      6         11           0       -0.980078    2.361271   -0.865811
      7         11           0        1.568523    1.606007    0.999886
 ---------------------------------------------------------------------

 SCF Done:  E(UB3LYP) =  -1136.12731583     A.U. after   21 cycles

 The electronic state is 2-A.
 Alpha  occ. eigenvalues --  -38.44234 -38.44054 -38.43758 -38.43482 -38.43283
 Alpha  occ. eigenvalues --  -38.42984 -38.42862  -2.20090  -2.19929  -2.19704
 Alpha  occ. eigenvalues --   -2.19525  -2.19305  -2.18877  -2.18801  -1.13763
 Alpha  occ. eigenvalues --   -1.13739  -1.13718  -1.13637  -1.13629  -1.13537
 Alpha  occ. eigenvalues --   -1.13461  -1.13353  -1.13307  -1.13211  -1.13163
 Alpha  occ. eigenvalues --   -1.13116  -1.12989  -1.12951  -1.12923  -1.12576
 Alpha  occ. eigenvalues --   -1.12534  -1.12510  -1.12497  -1.12446  -1.12396
 Alpha  occ. eigenvalues --   -0.19437  -0.13582  -0.11957  -0.11522
 Alpha virt. eigenvalues --   -0.05903  -0.04594  -0.04226  -0.03337  -0.02931
 Alpha virt. eigenvalues --   -0.02735  -0.01774  -0.00698  -0.00513   0.00297
 Alpha virt. eigenvalues --    0.00330   0.00473   0.00597   0.00908   0.00936

  Beta  occ. eigenvalues --  -38.44206 -38.44052 -38.43706 -38.43425 -38.43240
  Beta  occ. eigenvalues --  -38.42963 -38.42847  -2.20039  -2.19927  -2.19613
  Beta  occ. eigenvalues --   -2.19426  -2.19229  -2.18840  -2.18778  -1.13717
  Beta  occ. eigenvalues --   -1.13708  -1.13685  -1.13635  -1.13616  -1.13531
  Beta  occ. eigenvalues --   -1.13391  -1.13268  -1.13246  -1.13147  -1.13071
  Beta  occ. eigenvalues --   -1.13047  -1.12933  -1.12885  -1.12865  -1.12554
  Beta  occ. eigenvalues --   -1.12498  -1.12487  -1.12461  -1.12418  -1.12382
  Beta  occ. eigenvalues --   -0.18608  -0.13368  -0.11356
  Beta virt. eigenvalues --   -0.07801  -0.05748  -0.04368  -0.03804  -0.03073
  Beta virt. eigenvalues --   -0.02291  -0.01863  -0.01604  -0.00562  -0.00270
  Beta virt. eigenvalues --    0.00334   0.00374   0.00543   0.00699   0.00930

 Mulliken charges and spin densities:
               1          2
     1  Na  -0.312220   0.242697
     2  Na  -0.156185   0.436562
     3  Na   0.023716   0.044534
     4  Na   0.425977   0.030100
     5  Na   0.379264   0.017239
     6  Na  -0.449545   0.087800
     7  Na   0.088993   0.141067
 Sum of Mulliken charges =  -0.00000   1.00000

 Dipole moment (field-independent basis, Debye):
    X=              0.1231    Y=             -0.1202    Z=             -0.2621  Tot=              0.3135
 Quadrupole moment (field-independent basis, Debye-Ang):
   XX=            -53.7586   YY=            -74.1282   ZZ=            -65.9634
   XY=              0.3251   XZ=             -0.4370   YZ=             -2.5534

 Normal termination of Gaussian 16 at Tue Dec  5 11:59:13 2023.
