 Gaussian 16, Revision B.01,
 Gaussian 16:  ES64L-G16RevB.01 20-Dec-2017

 -------------------------
 #P B3LYP/6-311+g(d) force
 -------------------------

 -----
 DPGEN
 -----
 Symbolic Z-matrix:
 Charge =  0 Multiplicity = 2

                         Standard orientation:
 ---------------------------------------------------------------------
 Center     Atomic      Atomic             Coordinates (Angstroms)
 Number     Number       Type             X           Y           Z
 ---------------------------------------------------------------------
      1         11           0       -0.126203    1.549790    1.062580
      2         11           0        1.819175    3.246753   -0.646981
      3         11           0        3.495269    0.550318    0.261617
      4         11           0        0.436253   -1.310084   -0.883825
      5         11           0       -2.940687   -1.515208    0.261064
      6         11           0        3.253283   -2.882292    0.133468
      7         11           0       -5.937088    0.360723   -0.187924
 ---------------------------------------------------------------------

 SCF Done:  E(UB3LYP) =  -1136.12176823     A.U. after   18 cycles

 The electronic state is 2-A.
 Alpha  occ. eigenvalues --  -38.44779 -38.44352 -38.44248 -38.44026 -38.43823
 Alpha  occ. eigenvalues --  -38.43603 -38.43505  -2.20621  -2.20142  -2.20103
 Alpha  occ. eigenvalues --   -2.19880  -2.19683  -2.19375  -2.19315  -1.14316
 Alpha  occ. eigenvalues --   -1.14299  -1.14229  -1.13805  -1.13779  -1.13777
 Alpha  occ. eigenvalues --   -1.13776  -1.13750  -1.13712  -1.13543  -1.13526
 Alpha  occ. eigenvalues --   -1.13510  -1.13371  -1.13363  -1.13288  -1.13070
 Alpha  occ. eigenvalues --   -1.13046  -1.13022  -1.12980  -1.12973  -1.12951
 Alpha  occ. eigenvalues --   -0.17157  -0.13557  -0.12481  -0.10926
 Alpha virt. eigenvalues --   -0.05990  -0.05531  -0.05048  -0.03553  -0.02524
 Alpha virt. eigenvalues --   -0.02382  -0.02138  -0.01371  -0.01109  -0.00741
 Alpha virt. eigenvalues --   -0.00426  -0.00290   0.00451   0.00490   0.00577

  Beta  occ. eigenvalues --  -38.44759 -38.44238 -38.44214 -38.44020 -38.43786
  Beta  occ. eigenvalues --  -38.43613 -38.43499  -2.20585  -2.20041  -2.19930
  Beta  occ. eigenvalues --   -2.19870  -2.19617  -2.19400  -2.19305  -1.14294
  Beta  occ. eigenvalues --   -1.14274  -1.14198  -1.13762  -1.13734  -1.13665
  Beta  occ. eigenvalues --   -1.13634  -1.13632  -1.13611  -1.13530  -1.13520
  Beta  occ. eigenvalues --   -1.13499  -1.13327  -1.13319  -1.13232  -1.13094
  Beta  occ. eigenvalues --   -1.13070  -1.12988  -1.12973  -1.12960  -1.12944
  Beta  occ. eigenvalues --   -0.16713  -0.12708  -0.12328
  Beta virt. eigenvalues --   -0.07432  -0.05716  -0.05297  -0.04704  -0.03183
  Beta virt. eigenvalues --   -0.02310  -0.02046  -0.01937  -0.01243  -0.00770
  Beta virt. eigenvalues --   -0.00309  -0.00147  -0.00072   0.00512   0.00588

 Mulliken charges and spin densities:
               1          2
     1  Na  -0.027289   0.044188
     2  Na   0.194666   0.016791
     3  Na  -0.025679   0.285102
     4  Na  -0.571737   0.017848
     5  Na  -0.097074   0.065706
     6  Na   0.412425   0.040175
     7  Na   0.114688   0.530190
 Sum of Mulliken charges =  -0.00000   1.00000

 Dipole moment (field-independent basis, Debye):
    X=              1.1302    Y=              0.9057    Z=              0.0609  Tot=              1.4496
 Quadrupole moment (field-independent basis, Debye-Ang):
   XX=            -71.4850   YY=            -62.8038   ZZ=            -67.8660
   XY=             -1.9867   XZ=              0.1744   YZ=             -2.4037

 Normal termination of Gaussian 16 at Tue Nov 28 22:45:52 2023.
