 Gaussian 16, Revision B.01,
 Gaussian 16:  ES64L-G16RevB.01 20-Dec-2017

 -------------------------
 #P B3LYP/6-311+g(d) force
 -------------------------

 -----
 DPGEN
 -----
 Symbolic Z-matrix:
 Charge =  0 Multiplicity = 2

                         Standard orientation:
 ---------------------------------------------------------------------
 Center     Atomic      Atomic             Coordinates (Angstroms)
 Number     Number       Type             X           Y           Z
 ---------------------------------------------------------------------
      1         11           0        2.134732   -2.112066    0.026169
      2         11           0        0.090229    0.436152   -1.681637
      3         11           0       -0.458885    3.234286    0.115524
      4         11           0        2.982318    0.995722   -0.116926
      5         11           0       -0.205830   -0.036251    2.084166
      6         11           0       -3.204725    0.209963   -0.190115
      7         11           0       -1.337838   -2.727806   -0.237180
 ---------------------------------------------------------------------

 SCF Done:  E(UB3LYP) =  -1136.13727275     A.U. after   19 cycles

 The electronic state is 2-A.
 Alpha  occ. eigenvalues --  -38.44271 -38.44023 -38.43934 -38.43612 -38.43521
 Alpha  occ. eigenvalues --  -38.43487 -38.43290  -2.20070  -2.19859  -2.19722
 Alpha  occ. eigenvalues --   -2.19470  -2.19346  -2.19338  -2.19213  -1.13747
 Alpha  occ. eigenvalues --   -1.13732  -1.13705  -1.13549  -1.13524  -1.13494
 Alpha  occ. eigenvalues --   -1.13404  -1.13383  -1.13360  -1.13137  -1.13097
 Alpha  occ. eigenvalues --   -1.13091  -1.13030  -1.13013  -1.13003  -1.12999
 Alpha  occ. eigenvalues --   -1.12996  -1.12964  -1.12896  -1.12844  -1.12841
 Alpha  occ. eigenvalues --   -0.18250  -0.12902  -0.12415  -0.10565
 Alpha virt. eigenvalues --   -0.05872  -0.05142  -0.04965  -0.03105  -0.02918
 Alpha virt. eigenvalues --   -0.02525  -0.01545  -0.01318  -0.00610  -0.00484
 Alpha virt. eigenvalues --   -0.00021   0.00358   0.00781   0.00811   0.00866

  Beta  occ. eigenvalues --  -38.44266 -38.44019 -38.43932 -38.43516 -38.43514
  Beta  occ. eigenvalues --  -38.43483 -38.43231  -2.20064  -2.19855  -2.19721
  Beta  occ. eigenvalues --   -2.19341  -2.19335  -2.19289  -2.19105  -1.13732
  Beta  occ. eigenvalues --   -1.13722  -1.13704  -1.13545  -1.13507  -1.13490
  Beta  occ. eigenvalues --   -1.13396  -1.13372  -1.13362  -1.13036  -1.13015
  Beta  occ. eigenvalues --   -1.13001  -1.12999  -1.12991  -1.12976  -1.12968
  Beta  occ. eigenvalues --   -1.12960  -1.12953  -1.12821  -1.12765  -1.12763
  Beta  occ. eigenvalues --   -0.17533  -0.12685  -0.12216
  Beta virt. eigenvalues --   -0.06676  -0.05880  -0.05043  -0.04937  -0.02341
  Beta virt. eigenvalues --   -0.02177  -0.01484  -0.01452  -0.01230  -0.00662
  Beta virt. eigenvalues --   -0.00537   0.00129   0.00390   0.00784   0.00854

 Mulliken charges and spin densities:
               1          2
     1  Na   0.082057  -0.006689
     2  Na  -0.101931   0.487827
     3  Na   0.033355  -0.136501
     4  Na   0.248771  -0.057463
     5  Na  -0.433332   0.806679
     6  Na   0.126105  -0.076738
     7  Na   0.044974  -0.017114
 Sum of Mulliken charges =  -0.00000   1.00000

 Dipole moment (field-independent basis, Debye):
    X=             -0.1716    Y=              0.3238    Z=              0.0623  Tot=              0.3717
 Quadrupole moment (field-independent basis, Debye-Ang):
   XX=            -57.5678   YY=            -60.4263   ZZ=            -75.4072
   XY=             -0.0476   XZ=              0.6043   YZ=              1.0547

 Normal termination of Gaussian 16 at Fri Dec  8 02:49:49 2023.
