 Gaussian 16, Revision B.01,
 Gaussian 16:  ES64L-G16RevB.01 20-Dec-2017

 -------------------------
 #P B3LYP/6-311+g(d) force
 -------------------------

 -----
 DPGEN
 -----
 Symbolic Z-matrix:
 Charge =  0 Multiplicity = 2

                         Standard orientation:
 ---------------------------------------------------------------------
 Center     Atomic      Atomic             Coordinates (Angstroms)
 Number     Number       Type             X           Y           Z
 ---------------------------------------------------------------------
      1         11           0       -1.528121    0.615978    1.669060
      2         11           0        3.718910   -0.154945   -0.732549
      3         11           0        1.393503   -2.124732    0.803886
      4         11           0       -0.306251   -0.489028   -1.740281
      5         11           0       -3.275360   -1.857092   -0.194908
      6         11           0        1.584620    1.453603    1.037992
      7         11           0       -1.587301    2.556216   -0.843201
 ---------------------------------------------------------------------

 SCF Done:  E(UB3LYP) =  -1136.12659200     A.U. after   21 cycles

 The electronic state is 2-A.
 Alpha  occ. eigenvalues --  -38.44839 -38.44404 -38.44126 -38.43775 -38.43388
 Alpha  occ. eigenvalues --  -38.43327 -38.43262  -2.20662  -2.20227  -2.19892
 Alpha  occ. eigenvalues --   -2.19651  -2.19237  -2.19224  -2.19182  -1.14345
 Alpha  occ. eigenvalues --   -1.14312  -1.14295  -1.13922  -1.13898  -1.13832
 Alpha  occ. eigenvalues --   -1.13572  -1.13553  -1.13528  -1.13341  -1.13305
 Alpha  occ. eigenvalues --   -1.13259  -1.12969  -1.12954  -1.12904  -1.12894
 Alpha  occ. eigenvalues --   -1.12864  -1.12850  -1.12820  -1.12803  -1.12764
 Alpha  occ. eigenvalues --   -0.18256  -0.13632  -0.11411  -0.10841
 Alpha virt. eigenvalues --   -0.06637  -0.05281  -0.04354  -0.03229  -0.02761
 Alpha virt. eigenvalues --   -0.02513  -0.02129  -0.01149  -0.00767  -0.00025
 Alpha virt. eigenvalues --    0.00049   0.00210   0.00428   0.00674   0.00769

  Beta  occ. eigenvalues --  -38.44831 -38.44387 -38.44129 -38.43714 -38.43366
  Beta  occ. eigenvalues --  -38.43302 -38.43214  -2.20648  -2.20198  -2.19898
  Beta  occ. eigenvalues --   -2.19540  -2.19198  -2.19182  -2.19094  -1.14337
  Beta  occ. eigenvalues --   -1.14296  -1.14285  -1.13905  -1.13856  -1.13814
  Beta  occ. eigenvalues --   -1.13571  -1.13553  -1.13533  -1.13265  -1.13218
  Beta  occ. eigenvalues --   -1.13179  -1.12932  -1.12910  -1.12861  -1.12853
  Beta  occ. eigenvalues --   -1.12831  -1.12803  -1.12782  -1.12741  -1.12708
  Beta  occ. eigenvalues --   -0.17524  -0.13462  -0.11244
  Beta virt. eigenvalues --   -0.06970  -0.06477  -0.05196  -0.03898  -0.02975
  Beta virt. eigenvalues --   -0.02217  -0.02081  -0.01501  -0.01035  -0.00415
  Beta virt. eigenvalues --    0.00042   0.00051   0.00248   0.00517   0.00747

 Mulliken charges and spin densities:
               1          2
     1  Na   0.171515   0.339634
     2  Na   0.529710  -0.017263
     3  Na  -0.184301   0.078699
     4  Na  -0.343151   0.520854
     5  Na   0.072084  -0.074104
     6  Na  -0.237549   0.199516
     7  Na  -0.008309  -0.047335
 Sum of Mulliken charges =  -0.00000   1.00000

 Dipole moment (field-independent basis, Debye):
    X=              0.7594    Y=             -0.2727    Z=             -0.2422  Tot=              0.8425
 Quadrupole moment (field-independent basis, Debye-Ang):
   XX=            -50.9926   YY=            -70.4558   ZZ=            -71.4720
   XY=             -0.7166   XZ=             -1.7943   YZ=             -2.6382

 Normal termination of Gaussian 16 at Tue Dec  5 12:23:19 2023.
