 Gaussian 16, Revision B.01,
 Gaussian 16:  ES64L-G16RevB.01 20-Dec-2017

 -------------------------
 #P B3LYP/6-311+g(d) force
 -------------------------

 -----
 DPGEN
 -----
 Symbolic Z-matrix:
 Charge =  0 Multiplicity = 2

                         Standard orientation:
 ---------------------------------------------------------------------
 Center     Atomic      Atomic             Coordinates (Angstroms)
 Number     Number       Type             X           Y           Z
 ---------------------------------------------------------------------
      1         11           0       -3.024119    1.506684   -0.494504
      2         11           0       -2.793501   -0.819558    1.737253
      3         11           0        2.443325   -1.605821   -0.902259
      4         11           0        3.888108    0.449944    1.111379
      5         11           0        0.840852    2.042356   -1.219361
      6         11           0       -1.508987   -1.783547   -1.384055
      7         11           0        0.154322    0.209942    1.151547
 ---------------------------------------------------------------------

 SCF Done:  E(UB3LYP) =  -1136.11655074     A.U. after   31 cycles

 The electronic state is 2-A.
 Alpha  occ. eigenvalues --  -38.45157 -38.44664 -38.44249 -38.44120 -38.43868
 Alpha  occ. eigenvalues --  -38.43854 -38.42890  -2.20968  -2.20486  -2.20197
 Alpha  occ. eigenvalues --   -2.19943  -2.19754  -2.19697  -2.18715  -1.14639
 Alpha  occ. eigenvalues --   -1.14619  -1.14583  -1.14174  -1.14147  -1.14101
 Alpha  occ. eigenvalues --   -1.13943  -1.13863  -1.13820  -1.13617  -1.13609
 Alpha  occ. eigenvalues --   -1.13587  -1.13429  -1.13394  -1.13377  -1.13360
 Alpha  occ. eigenvalues --   -1.13347  -1.13307  -1.12440  -1.12376  -1.12313
 Alpha  occ. eigenvalues --   -0.18205  -0.14459  -0.11070  -0.10624
 Alpha virt. eigenvalues --   -0.07066  -0.05487  -0.04816  -0.03123  -0.02867
 Alpha virt. eigenvalues --   -0.02485  -0.01950  -0.01247  -0.00922  -0.00384
 Alpha virt. eigenvalues --   -0.00036   0.00159   0.00268   0.00490   0.00747

  Beta  occ. eigenvalues --  -38.45126 -38.44643 -38.44231 -38.44114 -38.43819
  Beta  occ. eigenvalues --  -38.43805 -38.42890  -2.20907  -2.20449  -2.20168
  Beta  occ. eigenvalues --   -2.19935  -2.19664  -2.19607  -2.18714  -1.14601
  Beta  occ. eigenvalues --   -1.14577  -1.14544  -1.14130  -1.14127  -1.14078
  Beta  occ. eigenvalues --   -1.13891  -1.13841  -1.13806  -1.13614  -1.13601
  Beta  occ. eigenvalues --   -1.13559  -1.13365  -1.13335  -1.13314  -1.13294
  Beta  occ. eigenvalues --   -1.13278  -1.13240  -1.12445  -1.12365  -1.12309
  Beta  occ. eigenvalues --   -0.17571  -0.14216  -0.10417
  Beta virt. eigenvalues --   -0.07424  -0.06751  -0.05128  -0.04443  -0.02832
  Beta virt. eigenvalues --   -0.02693  -0.01964  -0.01348  -0.00931  -0.00584
  Beta virt. eigenvalues --   -0.00295   0.00051   0.00280   0.00344   0.00555

 Mulliken charges and spin densities:
               1          2
     1  Na   0.213791   0.087808
     2  Na   1.334003   0.027260
     3  Na  -0.110818   0.053217
     4  Na   0.977191   0.143147
     5  Na  -0.184927   0.204797
     6  Na  -0.293520   0.329355
     7  Na  -1.935720   0.154415
 Sum of Mulliken charges =  -0.00000   1.00000

 Dipole moment (field-independent basis, Debye):
    X=              0.3508    Y=              0.1884    Z=              0.0369  Tot=              0.3999
 Quadrupole moment (field-independent basis, Debye-Ang):
   XX=            -46.8976   YY=            -79.2734   ZZ=            -67.5910
   XY=              0.6175   XZ=              2.3739   YZ=              2.0939

 Normal termination of Gaussian 16 at Tue Dec  5 22:34:41 2023.
