 Gaussian 16, Revision B.01,
 Gaussian 16:  ES64L-G16RevB.01 20-Dec-2017

 -------------------------
 #P B3LYP/6-311+g(d) force
 -------------------------

 -----
 DPGEN
 -----
 Symbolic Z-matrix:
 Charge =  0 Multiplicity = 2

                         Standard orientation:
 ---------------------------------------------------------------------
 Center     Atomic      Atomic             Coordinates (Angstroms)
 Number     Number       Type             X           Y           Z
 ---------------------------------------------------------------------
      1         11           0       -0.431826    2.633294    1.005581
      2         11           0       -0.372931   -0.158735   -1.116282
      3         11           0       -1.842897   -1.574004    1.297194
      4         11           0        2.514546    1.583091   -1.217643
      5         11           0        2.172449   -2.251300   -0.765536
      6         11           0       -4.083216    0.071459   -0.898488
      7         11           0        2.043875   -0.303804    1.695173
 ---------------------------------------------------------------------

 SCF Done:  E(UB3LYP) =  -1136.12487072     A.U. after   21 cycles

 The electronic state is 2-A.
 Alpha  occ. eigenvalues --  -38.44935 -38.44303 -38.44075 -38.43915 -38.43453
 Alpha  occ. eigenvalues --  -38.43214 -38.43159  -2.20704  -2.20121  -2.19957
 Alpha  occ. eigenvalues --   -2.19752  -2.19420  -2.19019  -2.19004  -1.14375
 Alpha  occ. eigenvalues --   -1.14358  -1.14323  -1.13846  -1.13775  -1.13718
 Alpha  occ. eigenvalues --   -1.13636  -1.13619  -1.13580  -1.13446  -1.13407
 Alpha  occ. eigenvalues --   -1.13351  -1.13144  -1.13073  -1.13041  -1.12699
 Alpha  occ. eigenvalues --   -1.12685  -1.12679  -1.12667  -1.12638  -1.12624
 Alpha  occ. eigenvalues --   -0.18083  -0.13495  -0.11276  -0.10766
 Alpha virt. eigenvalues --   -0.06510  -0.05279  -0.04381  -0.03159  -0.02674
 Alpha virt. eigenvalues --   -0.02339  -0.02211  -0.01109  -0.00812  -0.00216
 Alpha virt. eigenvalues --    0.00028   0.00230   0.00332   0.00563   0.00738

  Beta  occ. eigenvalues --  -38.44915 -38.44280 -38.44031 -38.43883 -38.43425
  Beta  occ. eigenvalues --  -38.43197 -38.43151  -2.20667  -2.20082  -2.19877
  Beta  occ. eigenvalues --   -2.19694  -2.19373  -2.19008  -2.18973  -1.14346
  Beta  occ. eigenvalues --   -1.14334  -1.14301  -1.13822  -1.13741  -1.13679
  Beta  occ. eigenvalues --   -1.13583  -1.13547  -1.13524  -1.13397  -1.13372
  Beta  occ. eigenvalues --   -1.13304  -1.13081  -1.13045  -1.13007  -1.12687
  Beta  occ. eigenvalues --   -1.12678  -1.12661  -1.12631  -1.12614  -1.12608
  Beta  occ. eigenvalues --   -0.17381  -0.13257  -0.11108
  Beta virt. eigenvalues --   -0.07082  -0.06205  -0.05051  -0.04086  -0.02937
  Beta virt. eigenvalues --   -0.02206  -0.02054  -0.01444  -0.00917  -0.00565
  Beta virt. eigenvalues --   -0.00070   0.00135   0.00286   0.00436   0.00618

 Mulliken charges and spin densities:
               1          2
     1  Na  -0.270061   0.099914
     2  Na  -0.461581   0.058254
     3  Na   0.027729   0.186648
     4  Na   0.187491   0.091824
     5  Na   0.190046   0.080192
     6  Na   0.206197   0.068740
     7  Na   0.120179   0.414427
 Sum of Mulliken charges =  -0.00000   1.00000

 Dipole moment (field-independent basis, Debye):
    X=             -0.7943    Y=              0.0796    Z=              0.1029  Tot=              0.8049
 Quadrupole moment (field-independent basis, Debye-Ang):
   XX=            -50.6653   YY=            -72.2767   ZZ=            -68.3848
   XY=             -0.7898   XZ=              0.2098   YZ=             -0.6926

 Normal termination of Gaussian 16 at Thu Dec  7 07:13:49 2023.
