 Gaussian 16, Revision B.01,
 Gaussian 16:  ES64L-G16RevB.01 20-Dec-2017

 -------------------------
 #P B3LYP/6-311+g(d) force
 -------------------------

 -----
 DPGEN
 -----
 Symbolic Z-matrix:
 Charge =  0 Multiplicity = 2

                         Standard orientation:
 ---------------------------------------------------------------------
 Center     Atomic      Atomic             Coordinates (Angstroms)
 Number     Number       Type             X           Y           Z
 ---------------------------------------------------------------------
      1         11           0        0.322480   -0.221678    1.986254
      2         11           0        3.229944    0.554904    0.126281
      3         11           0        1.196297   -2.721262   -0.147462
      4         11           0        0.498323    0.124412   -1.731932
      5         11           0       -2.924494    1.265493    0.196557
      6         11           0       -2.349066   -2.166660   -0.243009
      7         11           0        0.026517    3.164792   -0.186690
 ---------------------------------------------------------------------

 SCF Done:  E(UB3LYP) =  -1136.13642583     A.U. after   19 cycles

 The electronic state is 2-A.
 Alpha  occ. eigenvalues --  -38.44323 -38.43843 -38.43819 -38.43775 -38.43750
 Alpha  occ. eigenvalues --  -38.43582 -38.43313  -2.20136  -2.19638  -2.19627
 Alpha  occ. eigenvalues --   -2.19618  -2.19548  -2.19459  -2.19238  -1.13816
 Alpha  occ. eigenvalues --   -1.13800  -1.13769  -1.13323  -1.13314  -1.13313
 Alpha  occ. eigenvalues --   -1.13310  -1.13305  -1.13296  -1.13272  -1.13250
 Alpha  occ. eigenvalues --   -1.13241  -1.13221  -1.13202  -1.13184  -1.13125
 Alpha  occ. eigenvalues --   -1.13088  -1.13074  -1.12913  -1.12869  -1.12862
 Alpha  occ. eigenvalues --   -0.18201  -0.12794  -0.12518  -0.10532
 Alpha virt. eigenvalues --   -0.05880  -0.05204  -0.05045  -0.03038  -0.02919
 Alpha virt. eigenvalues --   -0.02485  -0.01590  -0.01261  -0.00660  -0.00562
 Alpha virt. eigenvalues --   -0.00020   0.00353   0.00790   0.00821   0.00854

  Beta  occ. eigenvalues --  -38.44317 -38.43842 -38.43816 -38.43766 -38.43749
  Beta  occ. eigenvalues --  -38.43492 -38.43245  -2.20129  -2.19638  -2.19616
  Beta  occ. eigenvalues --   -2.19614  -2.19548  -2.19294  -2.19112  -1.13804
  Beta  occ. eigenvalues --   -1.13780  -1.13764  -1.13315  -1.13313  -1.13309
  Beta  occ. eigenvalues --   -1.13299  -1.13283  -1.13269  -1.13268  -1.13244
  Beta  occ. eigenvalues --   -1.13242  -1.13210  -1.13200  -1.13184  -1.13016
  Beta  occ. eigenvalues --   -1.12973  -1.12953  -1.12828  -1.12780  -1.12769
  Beta  occ. eigenvalues --   -0.17483  -0.12602  -0.12295
  Beta virt. eigenvalues --   -0.06652  -0.05868  -0.05188  -0.04923  -0.02317
  Beta virt. eigenvalues --   -0.02177  -0.01515  -0.01444  -0.01175  -0.00695
  Beta virt. eigenvalues --   -0.00624   0.00130   0.00393   0.00796   0.00848

 Mulliken charges and spin densities:
               1          2
     1  Na  -0.284771   0.807325
     2  Na   0.220985  -0.136213
     3  Na   0.266991  -0.048348
     4  Na  -0.005420   0.622747
     5  Na  -0.066781  -0.052695
     6  Na  -0.120815  -0.063850
     7  Na  -0.010190  -0.128967
 Sum of Mulliken charges =  -0.00000   1.00000

 Dipole moment (field-independent basis, Debye):
    X=              0.3813    Y=              0.0600    Z=              0.0649  Tot=              0.3914
 Quadrupole moment (field-independent basis, Debye-Ang):
   XX=            -56.9802   YY=            -60.7405   ZZ=            -75.6872
   XY=              0.6103   XZ=              0.2584   YZ=              0.8563

 Normal termination of Gaussian 16 at Fri Dec  8 06:43:23 2023.
