 Gaussian 16, Revision B.01,
 Gaussian 16:  ES64L-G16RevB.01 20-Dec-2017

 -------------------------
 #P B3LYP/6-311+g(d) force
 -------------------------

 -----
 DPGEN
 -----
 Symbolic Z-matrix:
 Charge =  0 Multiplicity = 2

                         Standard orientation:
 ---------------------------------------------------------------------
 Center     Atomic      Atomic             Coordinates (Angstroms)
 Number     Number       Type             X           Y           Z
 ---------------------------------------------------------------------
      1         11           0       -1.714840   -1.931012   -0.973791
      2         11           0        3.985837   -0.652845    0.868798
      3         11           0       -1.641625    1.864312   -0.867344
      4         11           0       -0.014734   -0.114707    1.566754
      5         11           0        1.630908   -1.397966   -1.230364
      6         11           0        1.521046    2.465633   -0.403128
      7         11           0       -3.766592   -0.233415    1.039074
 ---------------------------------------------------------------------

 SCF Done:  E(UB3LYP) =  -1136.12669964     A.U. after   22 cycles

 The electronic state is 2-A.
 Alpha  occ. eigenvalues --  -38.45516 -38.44407 -38.44274 -38.43430 -38.43400
 Alpha  occ. eigenvalues --  -38.43310 -38.42981  -2.21355  -2.20215  -2.20117
 Alpha  occ. eigenvalues --   -2.19314  -2.19279  -2.19174  -2.18813  -1.15073
 Alpha  occ. eigenvalues --   -1.15005  -1.14970  -1.13885  -1.13860  -1.13837
 Alpha  occ. eigenvalues --   -1.13776  -1.13763  -1.13744  -1.13022  -1.12969
 Alpha  occ. eigenvalues --   -1.12959  -1.12941  -1.12935  -1.12894  -1.12858
 Alpha  occ. eigenvalues --   -1.12846  -1.12808  -1.12489  -1.12478  -1.12438
 Alpha  occ. eigenvalues --   -0.18194  -0.14044  -0.11597  -0.10675
 Alpha virt. eigenvalues --   -0.06952  -0.05059  -0.04712  -0.03383  -0.02844
 Alpha virt. eigenvalues --   -0.02461  -0.01909  -0.01141  -0.01056  -0.00311
 Alpha virt. eigenvalues --    0.00019   0.00225   0.00307   0.00535   0.00760

  Beta  occ. eigenvalues --  -38.45504 -38.44365 -38.44229 -38.43396 -38.43360
  Beta  occ. eigenvalues --  -38.43301 -38.42978  -2.21333  -2.20136  -2.20030
  Beta  occ. eigenvalues --   -2.19255  -2.19212  -2.19160  -2.18810  -1.15040
  Beta  occ. eigenvalues --   -1.14997  -1.14953  -1.13834  -1.13807  -1.13783
  Beta  occ. eigenvalues --   -1.13716  -1.13704  -1.13687  -1.12974  -1.12921
  Beta  occ. eigenvalues --   -1.12915  -1.12895  -1.12879  -1.12848  -1.12820
  Beta  occ. eigenvalues --   -1.12816  -1.12798  -1.12483  -1.12474  -1.12433
  Beta  occ. eigenvalues --   -0.17613  -0.13675  -0.11228
  Beta virt. eigenvalues --   -0.07147  -0.06692  -0.05047  -0.04050  -0.03196
  Beta virt. eigenvalues --   -0.02563  -0.01964  -0.01354  -0.00982  -0.00677
  Beta virt. eigenvalues --   -0.00219   0.00117   0.00296   0.00431   0.00662

 Mulliken charges and spin densities:
               1          2
     1  Na  -0.193091   0.106463
     2  Na   0.670060   0.262227
     3  Na  -0.252767   0.117988
     4  Na  -0.834214   0.051427
     5  Na  -0.372198   0.128337
     6  Na  -0.049694  -0.003889
     7  Na   1.031904   0.337447
 Sum of Mulliken charges =  -0.00000   1.00000

 Dipole moment (field-independent basis, Debye):
    X=             -0.0978    Y=              0.0352    Z=              0.3208  Tot=              0.3373
 Quadrupole moment (field-independent basis, Debye-Ang):
   XX=            -52.6317   YY=            -77.0486   ZZ=            -67.5130
   XY=              1.2622   XZ=              0.8855   YZ=             -0.3520

 Normal termination of Gaussian 16 at Thu Dec  7 04:18:36 2023.
