 Gaussian 16, Revision B.01,
 Gaussian 16:  ES64L-G16RevB.01 20-Dec-2017

 -------------------------
 #P B3LYP/6-311+g(d) force
 -------------------------

 -----
 DPGEN
 -----
 Symbolic Z-matrix:
 Charge =  0 Multiplicity = 2

                         Standard orientation:
 ---------------------------------------------------------------------
 Center     Atomic      Atomic             Coordinates (Angstroms)
 Number     Number       Type             X           Y           Z
 ---------------------------------------------------------------------
      1         11           0        2.191312    2.162476   -0.000131
      2         11           0        3.384175   -0.912895    0.271113
      3         11           0       -2.273755    2.252693   -0.118521
      4         11           0       -3.099874   -1.246784    0.079107
      5         11           0       -0.026533    0.612297   -1.674006
      6         11           0        0.181992   -2.596887   -0.872381
      7         11           0       -0.357317   -0.270900    2.314818
 ---------------------------------------------------------------------

 SCF Done:  E(UB3LYP) =  -1136.12805818     A.U. after   19 cycles

 The electronic state is 2-A.
 Alpha  occ. eigenvalues --  -38.44625 -38.44568 -38.44559 -38.43836 -38.43760
 Alpha  occ. eigenvalues --  -38.43445 -38.43016  -2.20407  -2.20364  -2.20359
 Alpha  occ. eigenvalues --   -2.19666  -2.19577  -2.19386  -2.18847  -1.14078
 Alpha  occ. eigenvalues --   -1.14075  -1.14049  -1.14040  -1.14021  -1.14010
 Alpha  occ. eigenvalues --   -1.14007  -1.13993  -1.13977  -1.13381  -1.13323
 Alpha  occ. eigenvalues --   -1.13296  -1.13290  -1.13232  -1.13208  -1.13054
 Alpha  occ. eigenvalues --   -1.13023  -1.13005  -1.12546  -1.12495  -1.12464
 Alpha  occ. eigenvalues --   -0.17985  -0.13263  -0.11736  -0.11010
 Alpha virt. eigenvalues --   -0.06287  -0.05639  -0.03953  -0.03533  -0.03022
 Alpha virt. eigenvalues --   -0.02735  -0.01933  -0.01293  -0.00494  -0.00262
 Alpha virt. eigenvalues --   -0.00073   0.00326   0.00578   0.00653   0.00772

  Beta  occ. eigenvalues --  -38.44625 -38.44569 -38.44463 -38.43834 -38.43757
  Beta  occ. eigenvalues --  -38.43384 -38.42989  -2.20409  -2.20364  -2.20185
  Beta  occ. eigenvalues --   -2.19664  -2.19574  -2.19276  -2.18800  -1.14080
  Beta  occ. eigenvalues --   -1.14066  -1.14049  -1.14024  -1.14020  -1.14007
  Beta  occ. eigenvalues --   -1.13896  -1.13872  -1.13853  -1.13372  -1.13311
  Beta  occ. eigenvalues --   -1.13294  -1.13279  -1.13222  -1.13205  -1.12982
  Beta  occ. eigenvalues --   -1.12939  -1.12931  -1.12506  -1.12454  -1.12436
  Beta  occ. eigenvalues --   -0.17271  -0.13101  -0.11506
  Beta virt. eigenvalues --   -0.07134  -0.06046  -0.05678  -0.03865  -0.02815
  Beta virt. eigenvalues --   -0.02269  -0.01825  -0.01776  -0.01241  -0.00545
  Beta virt. eigenvalues --   -0.00200   0.00068   0.00355   0.00719   0.00786

 Mulliken charges and spin densities:
               1          2
     1  Na   0.043487   0.010034
     2  Na  -0.077975   0.026489
     3  Na  -0.000627  -0.044162
     4  Na   0.102677   0.034171
     5  Na   0.423413   0.192027
     6  Na  -0.043660   0.112518
     7  Na  -0.447316   0.668924
 Sum of Mulliken charges =  -0.00000   1.00000

 Dipole moment (field-independent basis, Debye):
    X=             -0.0694    Y=             -0.0250    Z=              0.4624  Tot=              0.4683
 Quadrupole moment (field-independent basis, Debye-Ang):
   XX=            -52.4673   YY=            -68.8783   ZZ=            -73.1925
   XY=             -0.3382   XZ=              0.9007   YZ=              1.3356

 Normal termination of Gaussian 16 at Thu Dec  7 23:37:22 2023.
