 Gaussian 16, Revision B.01,
 Gaussian 16:  ES64L-G16RevB.01 20-Dec-2017

 -------------------------
 #P B3LYP/6-311+g(d) force
 -------------------------

 -----
 DPGEN
 -----
 Symbolic Z-matrix:
 Charge =  0 Multiplicity = 2

                         Standard orientation:
 ---------------------------------------------------------------------
 Center     Atomic      Atomic             Coordinates (Angstroms)
 Number     Number       Type             X           Y           Z
 ---------------------------------------------------------------------
      1         11           0        0.622341   -2.915005   -0.392874
      2         11           0        3.352564   -0.452505    0.181465
      3         11           0       -0.141698   -0.050253    2.063756
      4         11           0       -3.136390   -1.086397    0.166254
      5         11           0       -2.246804    2.163443   -0.229992
      6         11           0        1.813681    2.596912   -0.259172
      7         11           0       -0.263694   -0.256194   -1.529438
 ---------------------------------------------------------------------

 SCF Done:  E(UB3LYP) =  -1136.13245215     A.U. after   21 cycles

 The electronic state is 2-A.
 Alpha  occ. eigenvalues --  -38.44622 -38.44614 -38.43861 -38.43759 -38.43546
 Alpha  occ. eigenvalues --  -38.43212 -38.43131  -2.20433  -2.20407  -2.19688
 Alpha  occ. eigenvalues --   -2.19611  -2.19337  -2.19106  -2.19057  -1.14106
 Alpha  occ. eigenvalues --   -1.14093  -1.14084  -1.14074  -1.14064  -1.14046
 Alpha  occ. eigenvalues --   -1.13373  -1.13349  -1.13321  -1.13285  -1.13239
 Alpha  occ. eigenvalues --   -1.13223  -1.13015  -1.12999  -1.12980  -1.12903
 Alpha  occ. eigenvalues --   -1.12782  -1.12722  -1.12700  -1.12670  -1.12655
 Alpha  occ. eigenvalues --   -0.18220  -0.13249  -0.12026  -0.10459
 Alpha virt. eigenvalues --   -0.06200  -0.05476  -0.04528  -0.03245  -0.02593
 Alpha virt. eigenvalues --   -0.02411  -0.01961  -0.01240  -0.00677  -0.00518
 Alpha virt. eigenvalues --   -0.00029   0.00322   0.00708   0.00801   0.00830

  Beta  occ. eigenvalues --  -38.44622 -38.44609 -38.43853 -38.43664 -38.43545
  Beta  occ. eigenvalues --  -38.43203 -38.43072  -2.20426  -2.20409  -2.19678
  Beta  occ. eigenvalues --   -2.19436  -2.19337  -2.19046  -2.18996  -1.14096
  Beta  occ. eigenvalues --   -1.14074  -1.14074  -1.14068  -1.14065  -1.14050
  Beta  occ. eigenvalues --   -1.13361  -1.13328  -1.13315  -1.13167  -1.13118
  Beta  occ. eigenvalues --   -1.13095  -1.13009  -1.12994  -1.12979  -1.12857
  Beta  occ. eigenvalues --   -1.12706  -1.12675  -1.12671  -1.12636  -1.12602
  Beta  occ. eigenvalues --   -0.17517  -0.13078  -0.11776
  Beta virt. eigenvalues --   -0.06594  -0.06085  -0.05486  -0.04470  -0.02524
  Beta virt. eigenvalues --   -0.01910  -0.01827  -0.01361  -0.01171  -0.00699
  Beta virt. eigenvalues --   -0.00560   0.00131   0.00360   0.00772   0.00807

 Mulliken charges and spin densities:
               1          2
     1  Na   0.142309  -0.055579
     2  Na   0.057022  -0.008932
     3  Na  -0.383237   0.744647
     4  Na   0.294920   0.019239
     5  Na   0.040944  -0.044031
     6  Na  -0.095590  -0.064700
     7  Na  -0.056368   0.409356
 Sum of Mulliken charges =  -0.00000   1.00000

 Dipole moment (field-independent basis, Debye):
    X=             -0.2105    Y=             -0.1173    Z=              0.2311  Tot=              0.3339
 Quadrupole moment (field-independent basis, Debye-Ang):
   XX=            -51.8303   YY=            -64.1786   ZZ=            -76.4761
   XY=             -0.2133   XZ=              0.1084   YZ=             -0.8442

 Normal termination of Gaussian 16 at Thu Dec  7 13:51:56 2023.
