 Gaussian 16, Revision B.01,
 Gaussian 16:  ES64L-G16RevB.01 20-Dec-2017

 -------------------------
 #P B3LYP/6-311+g(d) force
 -------------------------

 -----
 DPGEN
 -----
 Symbolic Z-matrix:
 Charge =  0 Multiplicity = 2

                         Standard orientation:
 ---------------------------------------------------------------------
 Center     Atomic      Atomic             Coordinates (Angstroms)
 Number     Number       Type             X           Y           Z
 ---------------------------------------------------------------------
      1         11           0       -1.416088   -2.400215   -0.012615
      2         11           0       -0.121996    0.773099    2.035432
      3         11           0       -3.337719    0.092277    0.000801
      4         11           0       -0.524797    2.761866   -0.616454
      5         11           0        0.145405   -0.470058   -1.480280
      6         11           0        2.801171    1.091115   -0.157211
      7         11           0        2.454022   -1.848084    0.230327
 ---------------------------------------------------------------------

 SCF Done:  E(UB3LYP) =  -1136.12932426     A.U. after   20 cycles

 The electronic state is 2-A.
 Alpha  occ. eigenvalues --  -38.44753 -38.44173 -38.43779 -38.43496 -38.43454
 Alpha  occ. eigenvalues --  -38.43144 -38.43107  -2.20569  -2.20065  -2.19666
 Alpha  occ. eigenvalues --   -2.19371  -2.19360  -2.19182  -2.18957  -1.14254
 Alpha  occ. eigenvalues --   -1.14232  -1.14201  -1.13807  -1.13726  -1.13693
 Alpha  occ. eigenvalues --   -1.13348  -1.13305  -1.13299  -1.13208  -1.13043
 Alpha  occ. eigenvalues --   -1.13009  -1.12994  -1.12986  -1.12975  -1.12840
 Alpha  occ. eigenvalues --   -1.12793  -1.12776  -1.12628  -1.12617  -1.12583
 Alpha  occ. eigenvalues --   -0.18803  -0.13535  -0.12263  -0.10581
 Alpha virt. eigenvalues --   -0.06201  -0.05071  -0.04353  -0.03338  -0.02914
 Alpha virt. eigenvalues --   -0.02257  -0.01907  -0.00991  -0.00359  -0.00215
 Alpha virt. eigenvalues --   -0.00013   0.00355   0.00768   0.00871   0.00898

  Beta  occ. eigenvalues --  -38.44753 -38.44167 -38.43774 -38.43448 -38.43413
  Beta  occ. eigenvalues --  -38.43090 -38.43086  -2.20571  -2.20057  -2.19659
  Beta  occ. eigenvalues --   -2.19353  -2.19217  -2.19079  -2.18930  -1.14257
  Beta  occ. eigenvalues --   -1.14215  -1.14205  -1.13805  -1.13698  -1.13682
  Beta  occ. eigenvalues --   -1.13341  -1.13301  -1.13275  -1.13182  -1.12980
  Beta  occ. eigenvalues --   -1.12966  -1.12940  -1.12899  -1.12877  -1.12769
  Beta  occ. eigenvalues --   -1.12720  -1.12710  -1.12606  -1.12576  -1.12565
  Beta  occ. eigenvalues --   -0.18093  -0.13325  -0.12028
  Beta virt. eigenvalues --   -0.06685  -0.06138  -0.05061  -0.04277  -0.02576
  Beta virt. eigenvalues --   -0.02166  -0.01813  -0.01246  -0.00929  -0.00386
  Beta virt. eigenvalues --   -0.00245   0.00157   0.00387   0.00817   0.00877

 Mulliken charges and spin densities:
               1          2
     1  Na   0.312587   0.010990
     2  Na  -0.695808   0.653271
     3  Na   0.107410  -0.018254
     4  Na   0.102455   0.001517
     5  Na  -0.282810   0.275854
     6  Na   0.350886   0.035391
     7  Na   0.105281   0.041231
 Sum of Mulliken charges =  -0.00000   1.00000

 Dipole moment (field-independent basis, Debye):
    X=             -0.2693    Y=              0.1418    Z=              0.2253  Tot=              0.3787
 Quadrupole moment (field-independent basis, Debye-Ang):
   XX=            -52.6414   YY=            -65.8444   ZZ=            -74.9048
   XY=             -0.8281   XZ=              0.4442   YZ=             -2.5234

 Normal termination of Gaussian 16 at Thu Dec  7 15:36:38 2023.
