 Gaussian 16, Revision B.01,
 Gaussian 16:  ES64L-G16RevB.01 20-Dec-2017

 -------------------------
 #P B3LYP/6-311+g(d) force
 -------------------------

 -----
 DPGEN
 -----
 Symbolic Z-matrix:
 Charge =  0 Multiplicity = 2

                         Standard orientation:
 ---------------------------------------------------------------------
 Center     Atomic      Atomic             Coordinates (Angstroms)
 Number     Number       Type             X           Y           Z
 ---------------------------------------------------------------------
      1         11           0       -0.773322   -2.012778   -0.659926
      2         11           0        0.866237    0.375197    1.765231
      3         11           0       -2.998985   -0.513561    1.811859
      4         11           0       -3.296026    0.032036   -1.744618
      5         11           0        3.252872   -2.051500    0.012988
      6         11           0        0.695293    3.877161   -0.175703
      7         11           0        2.253931    0.293445   -1.009832
 ---------------------------------------------------------------------

 SCF Done:  E(UB3LYP) =  -1136.11226510     A.U. after   22 cycles

 The electronic state is 2-A.
 Alpha  occ. eigenvalues --  -38.44748 -38.44698 -38.44551 -38.44417 -38.44288
 Alpha  occ. eigenvalues --  -38.44202 -38.43027  -2.20557  -2.20492  -2.20354
 Alpha  occ. eigenvalues --   -2.20302  -2.20229  -2.20048  -2.18770  -1.14274
 Alpha  occ. eigenvalues --   -1.14270  -1.14251  -1.14167  -1.14157  -1.14139
 Alpha  occ. eigenvalues --   -1.14109  -1.14012  -1.13997  -1.13982  -1.13963
 Alpha  occ. eigenvalues --   -1.13924  -1.13886  -1.13855  -1.13737  -1.13693
 Alpha  occ. eigenvalues --   -1.13684  -1.13644  -1.12443  -1.12440  -1.12390
 Alpha  occ. eigenvalues --   -0.17570  -0.14003  -0.11293  -0.10736
 Alpha virt. eigenvalues --   -0.06531  -0.05574  -0.04897  -0.03716  -0.02797
 Alpha virt. eigenvalues --   -0.02412  -0.02139  -0.01161  -0.00972  -0.00289
 Alpha virt. eigenvalues --   -0.00001   0.00105   0.00239   0.00322   0.00588

  Beta  occ. eigenvalues --  -38.44736 -38.44654 -38.44493 -38.44420 -38.44277
  Beta  occ. eigenvalues --  -38.44164 -38.43015  -2.20541  -2.20411  -2.20304
  Beta  occ. eigenvalues --   -2.20246  -2.20211  -2.19979  -2.18748  -1.14268
  Beta  occ. eigenvalues --   -1.14260  -1.14206  -1.14149  -1.14107  -1.14078
  Beta  occ. eigenvalues --   -1.14051  -1.13967  -1.13932  -1.13923  -1.13922
  Beta  occ. eigenvalues --   -1.13897  -1.13881  -1.13845  -1.13697  -1.13682
  Beta  occ. eigenvalues --   -1.13631  -1.13587  -1.12427  -1.12424  -1.12378
  Beta  occ. eigenvalues --   -0.17081  -0.13653  -0.11091
  Beta virt. eigenvalues --   -0.07151  -0.06383  -0.05030  -0.04605  -0.03531
  Beta virt. eigenvalues --   -0.02243  -0.02198  -0.01667  -0.01049  -0.00492
  Beta virt. eigenvalues --   -0.00229   0.00100   0.00253   0.00285   0.00510

 Mulliken charges and spin densities:
               1          2
     1  Na  -0.370581   0.358080
     2  Na   0.239875   0.216100
     3  Na   0.024415   0.062493
     4  Na   0.053375   0.218675
     5  Na   0.548209   0.037384
     6  Na  -0.163347   0.067577
     7  Na  -0.331945   0.039690
 Sum of Mulliken charges =  -0.00000   1.00000

 Dipole moment (field-independent basis, Debye):
    X=             -0.6021    Y=             -1.1246    Z=              0.1418  Tot=              1.2835
 Quadrupole moment (field-independent basis, Debye-Ang):
   XX=            -56.7526   YY=            -71.0907   ZZ=            -69.6524
   XY=             -6.8322   XZ=             -0.6694   YZ=             -2.8563

 Normal termination of Gaussian 16 at Tue Dec  5 23:19:54 2023.
