 Gaussian 16, Revision B.01,
 Gaussian 16:  ES64L-G16RevB.01 20-Dec-2017

 -------------------------
 #P B3LYP/6-311+g(d) force
 -------------------------

 -----
 DPGEN
 -----
 Symbolic Z-matrix:
 Charge =  0 Multiplicity = 2

                         Standard orientation:
 ---------------------------------------------------------------------
 Center     Atomic      Atomic             Coordinates (Angstroms)
 Number     Number       Type             X           Y           Z
 ---------------------------------------------------------------------
      1         11           0       -2.581291   -1.794232    0.076104
      2         11           0        0.543484   -2.445315   -0.206103
      3         11           0        3.136826   -0.570533   -0.142295
      4         11           0       -0.464806   -0.029939    1.927753
      5         11           0       -0.024527    0.429297   -1.857863
      6         11           0       -2.202659    2.250568   -0.337981
      7         11           0        1.592973    2.160154    0.540385
 ---------------------------------------------------------------------

 SCF Done:  E(UB3LYP) =  -1136.13597694     A.U. after   18 cycles

 The electronic state is 2-A.
 Alpha  occ. eigenvalues --  -38.43833 -38.43754 -38.43749 -38.43612 -38.43563
 Alpha  occ. eigenvalues --  -38.43548 -38.42976  -2.19683  -2.19613  -2.19579
 Alpha  occ. eigenvalues --   -2.19549  -2.19493  -2.19453  -2.18909  -1.13377
 Alpha  occ. eigenvalues --   -1.13355  -1.13317  -1.13308  -1.13299  -1.13291
 Alpha  occ. eigenvalues --   -1.13261  -1.13245  -1.13227  -1.13211  -1.13190
 Alpha  occ. eigenvalues --   -1.13170  -1.13163  -1.13147  -1.13105  -1.13095
 Alpha  occ. eigenvalues --   -1.13084  -1.13053  -1.12592  -1.12573  -1.12535
 Alpha  occ. eigenvalues --   -0.18918  -0.13048  -0.12506  -0.11108
 Alpha virt. eigenvalues --   -0.05417  -0.05392  -0.04242  -0.03277  -0.03082
 Alpha virt. eigenvalues --   -0.02755  -0.01492  -0.01185  -0.00160  -0.00000
 Alpha virt. eigenvalues --    0.00029   0.00349   0.00790   0.00894   0.00955

  Beta  occ. eigenvalues --  -38.43831 -38.43749 -38.43746 -38.43545 -38.43530
  Beta  occ. eigenvalues --  -38.43471 -38.42966  -2.19681  -2.19615  -2.19566
  Beta  occ. eigenvalues --   -2.19424  -2.19399  -2.19353  -2.18895  -1.13370
  Beta  occ. eigenvalues --   -1.13342  -1.13311  -1.13309  -1.13290  -1.13270
  Beta  occ. eigenvalues --   -1.13243  -1.13215  -1.13205  -1.13159  -1.13107
  Beta  occ. eigenvalues --   -1.13099  -1.13066  -1.13062  -1.13043  -1.13030
  Beta  occ. eigenvalues --   -1.13010  -1.12996  -1.12585  -1.12548  -1.12513
  Beta  occ. eigenvalues --   -0.18172  -0.12820  -0.12230
  Beta virt. eigenvalues --   -0.07172  -0.05380  -0.05331  -0.04208  -0.02532
  Beta virt. eigenvalues --   -0.02292  -0.01701  -0.01404  -0.01114  -0.00140
  Beta virt. eigenvalues --   -0.00006   0.00099   0.00371   0.00839   0.00896

 Mulliken charges and spin densities:
               1          2
     1  Na   0.243171  -0.078817
     2  Na   0.197265   0.045014
     3  Na  -0.070911  -0.062990
     4  Na  -0.386216   0.524935
     5  Na  -0.454630   0.620545
     6  Na   0.095523  -0.112192
     7  Na   0.375798   0.063504
 Sum of Mulliken charges =  -0.00000   1.00000

 Dipole moment (field-independent basis, Debye):
    X=             -0.2993    Y=              0.1903    Z=              0.0168  Tot=              0.3551
 Quadrupole moment (field-independent basis, Debye-Ang):
   XX=            -56.1779   YY=            -65.7610   ZZ=            -72.4604
   XY=             -0.0419   XZ=              0.4514   YZ=              0.9607

 Normal termination of Gaussian 16 at Wed Nov 29 16:38:18 2023.
