 Gaussian 16, Revision B.01,
 Gaussian 16:  ES64L-G16RevB.01 20-Dec-2017

 -------------------------
 #P B3LYP/6-311+g(d) force
 -------------------------

 -----
 DPGEN
 -----
 Symbolic Z-matrix:
 Charge =  0 Multiplicity = 2

                         Standard orientation:
 ---------------------------------------------------------------------
 Center     Atomic      Atomic             Coordinates (Angstroms)
 Number     Number       Type             X           Y           Z
 ---------------------------------------------------------------------
      1         11           0       -1.024751    3.601725    0.347820
      2         11           0       -3.739553   -1.532439   -0.476492
      3         11           0        0.752970    0.779279    2.028485
      4         11           0        3.647677   -1.353916    0.160944
      5         11           0        2.682562    0.700870   -1.761644
      6         11           0       -1.762338    0.655155   -0.845388
      7         11           0       -0.556567   -2.850674    0.546276
 ---------------------------------------------------------------------

 SCF Done:  E(UB3LYP) =  -1136.11824505     A.U. after   19 cycles

 The electronic state is 2-A.
 Alpha  occ. eigenvalues --  -38.44573 -38.44512 -38.44445 -38.44244 -38.43946
 Alpha  occ. eigenvalues --  -38.43559 -38.43505  -2.20336  -2.20304  -2.20276
 Alpha  occ. eigenvalues --   -2.20057  -2.19787  -2.19406  -2.19354  -1.14022
 Alpha  occ. eigenvalues --   -1.14018  -1.14007  -1.13981  -1.13959  -1.13944
 Alpha  occ. eigenvalues --   -1.13921  -1.13901  -1.13890  -1.13713  -1.13691
 Alpha  occ. eigenvalues --   -1.13682  -1.13545  -1.13428  -1.13392  -1.13095
 Alpha  occ. eigenvalues --   -1.13078  -1.13065  -1.13014  -1.12998  -1.12954
 Alpha  occ. eigenvalues --   -0.16924  -0.13605  -0.12175  -0.10679
 Alpha virt. eigenvalues --   -0.06028  -0.05571  -0.05014  -0.03425  -0.02789
 Alpha virt. eigenvalues --   -0.02417  -0.02006  -0.01527  -0.00846  -0.00526
 Alpha virt. eigenvalues --   -0.00225   0.00241   0.00459   0.00472   0.00642

  Beta  occ. eigenvalues --  -38.44543 -38.44442 -38.44384 -38.44246 -38.43928
  Beta  occ. eigenvalues --  -38.43565 -38.43485  -2.20281  -2.20175  -2.20162
  Beta  occ. eigenvalues --   -2.20065  -2.19755  -2.19370  -2.19365  -1.13980
  Beta  occ. eigenvalues --   -1.13966  -1.13964  -1.13903  -1.13893  -1.13872
  Beta  occ. eigenvalues --   -1.13844  -1.13809  -1.13804  -1.13722  -1.13684
  Beta  occ. eigenvalues --   -1.13655  -1.13516  -1.13406  -1.13371  -1.13082
  Beta  occ. eigenvalues --   -1.13059  -1.13034  -1.13021  -1.12997  -1.12944
  Beta  occ. eigenvalues --   -0.16339  -0.13157  -0.12065
  Beta virt. eigenvalues --   -0.07186  -0.05551  -0.05372  -0.04739  -0.03014
  Beta virt. eigenvalues --   -0.02314  -0.01955  -0.01796  -0.01457  -0.00733
  Beta virt. eigenvalues --   -0.00279   0.00034   0.00319   0.00591   0.00683

 Mulliken charges and spin densities:
               1          2
     1  Na   0.304189  -0.101260
     2  Na   0.461522   0.021038
     3  Na  -0.059341   0.411977
     4  Na   0.226477  -0.059879
     5  Na  -0.094893   0.298488
     6  Na  -0.726389   0.289844
     7  Na  -0.111565   0.139792
 Sum of Mulliken charges =  -0.00000   1.00000

 Dipole moment (field-independent basis, Debye):
    X=              0.1021    Y=             -0.2699    Z=              0.3802  Tot=              0.4773
 Quadrupole moment (field-independent basis, Debye-Ang):
   XX=            -64.0195   YY=            -61.9136   ZZ=            -71.1409
   XY=             -1.1856   XZ=              2.3516   YZ=             -1.5923

 Normal termination of Gaussian 16 at Mon Dec  4 00:55:18 2023.
