 Gaussian 16, Revision B.01,
 Gaussian 16:  ES64L-G16RevB.01 20-Dec-2017

 -------------------------
 #P B3LYP/6-311+g(d) force
 -------------------------

 -----
 DPGEN
 -----
 Symbolic Z-matrix:
 Charge =  0 Multiplicity = 2

                         Standard orientation:
 ---------------------------------------------------------------------
 Center     Atomic      Atomic             Coordinates (Angstroms)
 Number     Number       Type             X           Y           Z
 ---------------------------------------------------------------------
      1         11           0        2.833968    1.596607   -1.623283
      2         11           0        3.432323    1.150000    2.129371
      3         11           0        4.852800   -0.997157   -0.104180
      4         11           0        1.131043   -1.686278   -0.716236
      5         11           0       -2.435321   -1.671440    0.251894
      6         11           0       -5.695565   -0.525731    0.331197
      7         11           0       -4.119248    2.134000   -0.268763
 ---------------------------------------------------------------------

 SCF Done:  E(UB3LYP) =  -1136.09930253     A.U. after   30 cycles

 The electronic state is 2-A.
 Alpha  occ. eigenvalues --  -38.45854 -38.45112 -38.44962 -38.44838 -38.44110
 Alpha  occ. eigenvalues --  -38.43126 -38.42669  -2.21645  -2.20903  -2.20745
 Alpha  occ. eigenvalues --   -2.20651  -2.19936  -2.18920  -2.18432  -1.15319
 Alpha  occ. eigenvalues --   -1.15292  -1.15278  -1.14575  -1.14560  -1.14543
 Alpha  occ. eigenvalues --   -1.14408  -1.14403  -1.14367  -1.14313  -1.14309
 Alpha  occ. eigenvalues --   -1.14282  -1.13605  -1.13561  -1.13544  -1.12606
 Alpha  occ. eigenvalues --   -1.12595  -1.12518  -1.12134  -1.12125  -1.12062
 Alpha  occ. eigenvalues --   -0.16186  -0.14898  -0.10726  -0.10039
 Alpha virt. eigenvalues --   -0.07228  -0.06794  -0.04860  -0.03265  -0.02768
 Alpha virt. eigenvalues --   -0.02363  -0.02141  -0.01649  -0.01440  -0.01214
 Alpha virt. eigenvalues --   -0.00793  -0.00028   0.00092   0.00107   0.00266

  Beta  occ. eigenvalues --  -38.45837 -38.45079 -38.44927 -38.44846 -38.44013
  Beta  occ. eigenvalues --  -38.43093 -38.42697  -2.21618  -2.20841  -2.20681
  Beta  occ. eigenvalues --   -2.20668  -2.19754  -2.18857  -2.18485  -1.15301
  Beta  occ. eigenvalues --   -1.15265  -1.15248  -1.14538  -1.14517  -1.14499
  Beta  occ. eigenvalues --   -1.14363  -1.14347  -1.14327  -1.14327  -1.14310
  Beta  occ. eigenvalues --   -1.14284  -1.13479  -1.13438  -1.13422  -1.12562
  Beta  occ. eigenvalues --   -1.12552  -1.12485  -1.12170  -1.12155  -1.12089
  Beta  occ. eigenvalues --   -0.15725  -0.14635  -0.10442
  Beta virt. eigenvalues --   -0.07106  -0.06703  -0.06030  -0.04788  -0.03193
  Beta virt. eigenvalues --   -0.02599  -0.01985  -0.01708  -0.01320  -0.00994
  Beta virt. eigenvalues --   -0.00899  -0.00658   0.00042   0.00209   0.00312

 Mulliken charges and spin densities:
               1          2
     1  Na  -0.260951   0.506394
     2  Na  -0.084029   0.148895
     3  Na   0.907388   0.270405
     4  Na  -0.562435  -0.200732
     5  Na  -0.525091   0.145747
     6  Na   0.606214  -0.039216
     7  Na  -0.081095   0.168507
 Sum of Mulliken charges =  -0.00000   1.00000

 Dipole moment (field-independent basis, Debye):
    X=             -0.1449    Y=              0.9977    Z=              0.5309  Tot=              1.1395
 Quadrupole moment (field-independent basis, Debye-Ang):
   XX=            -52.4029   YY=            -68.1179   ZZ=            -75.4968
   XY=             -2.6109   XZ=             -6.1838   YZ=              2.4210

 Normal termination of Gaussian 16 at Fri Dec  8 19:49:38 2023.
