 Gaussian 16, Revision B.01,
 Gaussian 16:  ES64L-G16RevB.01 20-Dec-2017

 -------------------------
 #P B3LYP/6-311+g(d) force
 -------------------------

 -----
 DPGEN
 -----
 Symbolic Z-matrix:
 Charge =  0 Multiplicity = 2

                         Standard orientation:
 ---------------------------------------------------------------------
 Center     Atomic      Atomic             Coordinates (Angstroms)
 Number     Number       Type             X           Y           Z
 ---------------------------------------------------------------------
      1         11           0        1.270786   -2.585820   -1.505072
      2         11           0        5.191067   -0.333627    1.898624
      3         11           0        3.012441    0.129553   -0.712410
      4         11           0        0.604813    3.272178   -1.141942
      5         11           0       -0.123829   -0.125931   -0.037833
      6         11           0       -3.876977    0.212124    1.816160
      7         11           0       -6.078301   -0.568478   -0.317526
 ---------------------------------------------------------------------

 SCF Done:  E(UB3LYP) =  -1136.10153938     A.U. after   24 cycles

 The electronic state is 2-A.
 Alpha  occ. eigenvalues --  -38.44993 -38.44744 -38.44416 -38.44250 -38.44196
 Alpha  occ. eigenvalues --  -38.43895 -38.43535  -2.20850  -2.20510  -2.20198
 Alpha  occ. eigenvalues --   -2.20111  -2.19982  -2.19770  -2.19311  -1.14514
 Alpha  occ. eigenvalues --   -1.14488  -1.14457  -1.14183  -1.14172  -1.14169
 Alpha  occ. eigenvalues --   -1.13862  -1.13849  -1.13826  -1.13808  -1.13795
 Alpha  occ. eigenvalues --   -1.13737  -1.13630  -1.13623  -1.13604  -1.13476
 Alpha  occ. eigenvalues --   -1.13455  -1.13365  -1.12973  -1.12970  -1.12927
 Alpha  occ. eigenvalues --   -0.16660  -0.13433  -0.11931  -0.11384
 Alpha virt. eigenvalues --   -0.06801  -0.05139  -0.04887  -0.03338  -0.02919
 Alpha virt. eigenvalues --   -0.02443  -0.02177  -0.01575  -0.01202  -0.00921
 Alpha virt. eigenvalues --   -0.00662  -0.00558   0.00128   0.00408   0.00429

  Beta  occ. eigenvalues --  -38.44905 -38.44754 -38.44412 -38.44246 -38.44113
  Beta  occ. eigenvalues --  -38.43890 -38.43492  -2.20688  -2.20529  -2.20190
  Beta  occ. eigenvalues --   -2.20111  -2.19828  -2.19764  -2.19231  -1.14396
  Beta  occ. eigenvalues --   -1.14382  -1.14353  -1.14194  -1.14185  -1.14182
  Beta  occ. eigenvalues --   -1.13856  -1.13844  -1.13826  -1.13814  -1.13792
  Beta  occ. eigenvalues --   -1.13704  -1.13524  -1.13518  -1.13507  -1.13477
  Beta  occ. eigenvalues --   -1.13414  -1.13357  -1.12918  -1.12914  -1.12876
  Beta  occ. eigenvalues --   -0.15977  -0.13419  -0.10657
  Beta virt. eigenvalues --   -0.08189  -0.06765  -0.04778  -0.04483  -0.03090
  Beta virt. eigenvalues --   -0.02729  -0.02267  -0.01691  -0.01374  -0.00936
  Beta virt. eigenvalues --   -0.00730  -0.00401  -0.00334   0.00181   0.00474

 Mulliken charges and spin densities:
               1          2
     1  Na   0.899508   0.280459
     2  Na   0.344942   0.400287
     3  Na   0.264210   0.168559
     4  Na   0.166712   0.257755
     5  Na  -1.612461  -0.073234
     6  Na  -0.240426   0.011782
     7  Na   0.177515  -0.045608
 Sum of Mulliken charges =  -0.00000   1.00000

 Dipole moment (field-independent basis, Debye):
    X=             -1.2510    Y=             -0.8432    Z=             -0.4788  Tot=              1.5828
 Quadrupole moment (field-independent basis, Debye-Ang):
   XX=            -66.5251   YY=            -68.2334   ZZ=            -63.3127
   XY=              2.3851   XZ=              5.0299   YZ=              3.1371

 Normal termination of Gaussian 16 at Wed Nov 29 01:56:32 2023.
