 Gaussian 16, Revision B.01,
 Gaussian 16:  ES64L-G16RevB.01 20-Dec-2017

 -------------------------
 #P B3LYP/6-311+g(d) force
 -------------------------

 -----
 DPGEN
 -----
 Symbolic Z-matrix:
 Charge =  0 Multiplicity = 2

                         Standard orientation:
 ---------------------------------------------------------------------
 Center     Atomic      Atomic             Coordinates (Angstroms)
 Number     Number       Type             X           Y           Z
 ---------------------------------------------------------------------
      1         11           0        2.147605   -1.543076   -0.928192
      2         11           0        3.604056    0.191252    1.336782
      3         11           0       -2.155866    2.056530   -0.228765
      4         11           0       -1.316509   -1.373036   -1.303673
      5         11           0       -3.872681   -0.650152    0.906328
      6         11           0        1.543265    1.785972   -1.027983
      7         11           0        0.050131   -0.467490    1.245503
 ---------------------------------------------------------------------

 SCF Done:  E(UB3LYP) =  -1136.12156066     A.U. after   27 cycles

 The electronic state is 2-A.
 Alpha  occ. eigenvalues --  -38.44904 -38.44833 -38.44406 -38.43525 -38.43279
 Alpha  occ. eigenvalues --  -38.43195 -38.43189  -2.20842  -2.20662  -2.20277
 Alpha  occ. eigenvalues --   -2.19461  -2.19139  -2.19107  -2.19024  -1.14598
 Alpha  occ. eigenvalues --   -1.14474  -1.14472  -1.14328  -1.14300  -1.14282
 Alpha  occ. eigenvalues --   -1.13944  -1.13919  -1.13891  -1.13148  -1.13131
 Alpha  occ. eigenvalues --   -1.13084  -1.12833  -1.12818  -1.12806  -1.12761
 Alpha  occ. eigenvalues --   -1.12747  -1.12719  -1.12709  -1.12690  -1.12653
 Alpha  occ. eigenvalues --   -0.18684  -0.14747  -0.11011  -0.10802
 Alpha virt. eigenvalues --   -0.06852  -0.05241  -0.05015  -0.02999  -0.02937
 Alpha virt. eigenvalues --   -0.02277  -0.01962  -0.01129  -0.00902  -0.00257
 Alpha virt. eigenvalues --    0.00043   0.00301   0.00359   0.00517   0.00666

  Beta  occ. eigenvalues --  -38.44901 -38.44786 -38.44341 -38.43506 -38.43253
  Beta  occ. eigenvalues --  -38.43192 -38.43161  -2.20838  -2.20573  -2.20157
  Beta  occ. eigenvalues --   -2.19432  -2.19094  -2.19060  -2.19022  -1.14564
  Beta  occ. eigenvalues --   -1.14477  -1.14475  -1.14266  -1.14240  -1.14226
  Beta  occ. eigenvalues --   -1.13863  -1.13835  -1.13811  -1.13132  -1.13102
  Beta  occ. eigenvalues --   -1.13036  -1.12805  -1.12789  -1.12767  -1.12720
  Beta  occ. eigenvalues --   -1.12714  -1.12708  -1.12688  -1.12659  -1.12630
  Beta  occ. eigenvalues --   -0.18046  -0.14303  -0.10521
  Beta virt. eigenvalues --   -0.07427  -0.06574  -0.05130  -0.04380  -0.02844
  Beta virt. eigenvalues --   -0.02666  -0.01736  -0.01294  -0.00867  -0.00693
  Beta virt. eigenvalues --   -0.00139   0.00142   0.00365   0.00430   0.00644

 Mulliken charges and spin densities:
               1          2
     1  Na   0.292625   0.168158
     2  Na   1.149070   0.264954
     3  Na  -0.300905   0.038406
     4  Na  -0.175706   0.203451
     5  Na   1.182962   0.323079
     6  Na  -0.631329   0.147146
     7  Na  -1.516717  -0.145194
 Sum of Mulliken charges =  -0.00000   1.00000

 Dipole moment (field-independent basis, Debye):
    X=             -0.2025    Y=             -0.4068    Z=              0.2308  Tot=              0.5097
 Quadrupole moment (field-independent basis, Debye-Ang):
   XX=            -50.1455   YY=            -80.1232   ZZ=            -65.4262
   XY=              0.8397   XZ=             -1.5945   YZ=             -0.4215

 Normal termination of Gaussian 16 at Fri Dec  8 04:23:40 2023.
