 Gaussian 16, Revision B.01,
 Gaussian 16:  ES64L-G16RevB.01 20-Dec-2017

 -------------------------
 #P B3LYP/6-311+g(d) force
 -------------------------

 -----
 DPGEN
 -----
 Symbolic Z-matrix:
 Charge =  0 Multiplicity = 2

                         Standard orientation:
 ---------------------------------------------------------------------
 Center     Atomic      Atomic             Coordinates (Angstroms)
 Number     Number       Type             X           Y           Z
 ---------------------------------------------------------------------
      1         11           0        0.446654   -2.749770   -0.174377
      2         11           0        3.140045    2.100029    0.052495
      3         11           0       -3.665165    1.182611   -1.121803
      4         11           0        3.650880   -1.011448   -1.078194
      5         11           0        0.597058   -0.492986    1.676528
      6         11           0       -0.951334    2.683123    0.358944
      7         11           0       -3.218138   -1.711560    0.286406
 ---------------------------------------------------------------------

 SCF Done:  E(UB3LYP) =  -1136.11801970     A.U. after   20 cycles

 The electronic state is 2-A.
 Alpha  occ. eigenvalues --  -38.44864 -38.44562 -38.44315 -38.44315 -38.43958
 Alpha  occ. eigenvalues --  -38.43955 -38.43705  -2.20646  -2.20330  -2.20189
 Alpha  occ. eigenvalues --   -2.20130  -2.19775  -2.19734  -2.19551  -1.14332
 Alpha  occ. eigenvalues --   -1.14314  -1.14272  -1.14016  -1.14004  -1.13969
 Alpha  occ. eigenvalues --   -1.13933  -1.13833  -1.13792  -1.13790  -1.13762
 Alpha  occ. eigenvalues --   -1.13749  -1.13439  -1.13432  -1.13430  -1.13411
 Alpha  occ. eigenvalues --   -1.13400  -1.13340  -1.13246  -1.13202  -1.13151
 Alpha  occ. eigenvalues --   -0.16923  -0.13997  -0.12196  -0.10750
 Alpha virt. eigenvalues --   -0.06868  -0.05306  -0.04400  -0.03775  -0.03324
 Alpha virt. eigenvalues --   -0.02012  -0.01779  -0.01687  -0.01038  -0.00601
 Alpha virt. eigenvalues --   -0.00140   0.00097   0.00242   0.00529   0.00653

  Beta  occ. eigenvalues --  -38.44844 -38.44557 -38.44253 -38.44246 -38.43937
  Beta  occ. eigenvalues --  -38.43922 -38.43699  -2.20614  -2.20325  -2.20076
  Beta  occ. eigenvalues --   -2.20001  -2.19716  -2.19698  -2.19543  -1.14309
  Beta  occ. eigenvalues --   -1.14296  -1.14229  -1.14015  -1.14001  -1.13937
  Beta  occ. eigenvalues --   -1.13856  -1.13751  -1.13717  -1.13703  -1.13678
  Beta  occ. eigenvalues --   -1.13658  -1.13408  -1.13393  -1.13387  -1.13380
  Beta  occ. eigenvalues --   -1.13368  -1.13309  -1.13227  -1.13196  -1.13144
  Beta  occ. eigenvalues --   -0.16335  -0.13301  -0.11996
  Beta virt. eigenvalues --   -0.07304  -0.06839  -0.05047  -0.03772  -0.03653
  Beta virt. eigenvalues --   -0.02653  -0.01850  -0.01583  -0.01297  -0.00873
  Beta virt. eigenvalues --   -0.00567   0.00078   0.00316   0.00360   0.00626

 Mulliken charges and spin densities:
               1          2
     1  Na  -0.263819   0.053293
     2  Na   0.102649   0.108899
     3  Na   0.215882   0.236133
     4  Na  -0.044708   0.396131
     5  Na   0.594402   0.020971
     6  Na  -0.456605   0.042314
     7  Na  -0.147801   0.142260
 Sum of Mulliken charges =  -0.00000   1.00000

 Dipole moment (field-independent basis, Debye):
    X=             -0.0237    Y=             -0.2435    Z=             -0.0635  Tot=              0.2528
 Quadrupole moment (field-independent basis, Debye-Ang):
   XX=            -65.8861   YY=            -65.0779   ZZ=            -69.3297
   XY=              1.9674   XZ=              0.0707   YZ=              0.6371

 Normal termination of Gaussian 16 at Sun Dec  3 12:40:53 2023.
