 Gaussian 16, Revision B.01,
 Gaussian 16:  ES64L-G16RevB.01 20-Dec-2017

 -------------------------
 #P B3LYP/6-311+g(d) force
 -------------------------

 -----
 DPGEN
 -----
 Symbolic Z-matrix:
 Charge =  0 Multiplicity = 2

                         Standard orientation:
 ---------------------------------------------------------------------
 Center     Atomic      Atomic             Coordinates (Angstroms)
 Number     Number       Type             X           Y           Z
 ---------------------------------------------------------------------
      1         11           0        3.772407    0.035892    0.766474
      2         11           0       -0.579036   -3.610897   -0.425498
      3         11           0       -1.148623    3.277164    0.143519
      4         11           0       -4.324532    1.365064   -0.321156
      5         11           0        2.716337    3.419784   -0.447204
      6         11           0       -2.983688   -1.732287    0.699736
      7         11           0        2.547135   -2.754720   -0.415871
 ---------------------------------------------------------------------

 SCF Done:  E(UB3LYP) =  -1136.10862907     A.U. after   23 cycles

 The electronic state is 2-A.
 Alpha  occ. eigenvalues --  -38.46000 -38.45060 -38.44840 -38.44256 -38.44090
 Alpha  occ. eigenvalues --  -38.43965 -38.43882  -2.21714  -2.20851  -2.20622
 Alpha  occ. eigenvalues --   -2.20078  -2.19857  -2.19758  -2.19713  -1.15413
 Alpha  occ. eigenvalues --   -1.15398  -1.15318  -1.14529  -1.14526  -1.14481
 Alpha  occ. eigenvalues --   -1.14300  -1.14295  -1.14251  -1.13741  -1.13738
 Alpha  occ. eigenvalues --   -1.13735  -1.13522  -1.13499  -1.13492  -1.13415
 Alpha  occ. eigenvalues --   -1.13406  -1.13390  -1.13373  -1.13365  -1.13356
 Alpha  occ. eigenvalues --   -0.15632  -0.13872  -0.13513  -0.10758
 Alpha virt. eigenvalues --   -0.07656  -0.05206  -0.04046  -0.03613  -0.03248
 Alpha virt. eigenvalues --   -0.02559  -0.02444  -0.01970  -0.01531  -0.00556
 Alpha virt. eigenvalues --   -0.00290  -0.00102   0.00121   0.00405   0.00577

  Beta  occ. eigenvalues --  -38.45981 -38.45033 -38.44812 -38.44233 -38.44042
  Beta  occ. eigenvalues --  -38.43918 -38.43854  -2.21684  -2.20807  -2.20576
  Beta  occ. eigenvalues --   -2.20038  -2.19770  -2.19670  -2.19664  -1.15397
  Beta  occ. eigenvalues --   -1.15383  -1.15263  -1.14504  -1.14498  -1.14420
  Beta  occ. eigenvalues --   -1.14268  -1.14265  -1.14198  -1.13718  -1.13713
  Beta  occ. eigenvalues --   -1.13691  -1.13463  -1.13445  -1.13427  -1.13355
  Beta  occ. eigenvalues --   -1.13349  -1.13336  -1.13333  -1.13329  -1.13317
  Beta  occ. eigenvalues --   -0.15129  -0.13191  -0.12784
  Beta virt. eigenvalues --   -0.07870  -0.07518  -0.04771  -0.03590  -0.03446
  Beta virt. eigenvalues --   -0.02821  -0.02338  -0.02162  -0.01790  -0.01396
  Beta virt. eigenvalues --   -0.00193  -0.00121   0.00093   0.00200   0.00367

 Mulliken charges and spin densities:
               1          2
     1  Na  -0.067374   0.049811
     2  Na   0.202048   0.112267
     3  Na  -0.198343   0.169722
     4  Na   0.225160   0.227785
     5  Na   0.086967   0.205094
     6  Na  -0.275313   0.096138
     7  Na   0.026856   0.139183
 Sum of Mulliken charges =  -0.00000   1.00000

 Dipole moment (field-independent basis, Debye):
    X=             -0.2605    Y=              0.1917    Z=              0.1135  Tot=              0.3428
 Quadrupole moment (field-independent basis, Debye-Ang):
   XX=            -62.8772   YY=            -67.0337   ZZ=            -71.0131
   XY=              0.0183   XZ=              0.0047   YZ=              0.6113

 Normal termination of Gaussian 16 at Sun Dec  3 13:10:08 2023.
