 Gaussian 16, Revision B.01,
 Gaussian 16:  ES64L-G16RevB.01 20-Dec-2017

 -------------------------
 #P B3LYP/6-311+g(d) force
 -------------------------

 -----
 DPGEN
 -----
 Symbolic Z-matrix:
 Charge =  0 Multiplicity = 2

                         Standard orientation:
 ---------------------------------------------------------------------
 Center     Atomic      Atomic             Coordinates (Angstroms)
 Number     Number       Type             X           Y           Z
 ---------------------------------------------------------------------
      1         11           0       -0.505165    0.931995    2.124268
      2         11           0        2.258367   -0.519779    1.941802
      3         11           0        2.966766   -0.688543   -1.262920
      4         11           0        0.952235    2.183500   -1.038611
      5         11           0       -2.227116    2.251684   -0.792201
      6         11           0       -0.027056   -2.238926   -1.080577
      7         11           0       -3.418031   -1.919932    0.108239
 ---------------------------------------------------------------------

 SCF Done:  E(UB3LYP) =  -1136.12340191     A.U. after   21 cycles

 The electronic state is 2-A.
 Alpha  occ. eigenvalues --  -38.44755 -38.44707 -38.44136 -38.43968 -38.43833
 Alpha  occ. eigenvalues --  -38.43714 -38.43597  -2.20624  -2.20557  -2.19943
 Alpha  occ. eigenvalues --   -2.19833  -2.19684  -2.19499  -2.19341  -1.14386
 Alpha  occ. eigenvalues --   -1.14257  -1.14242  -1.14206  -1.14178  -1.14159
 Alpha  occ. eigenvalues --   -1.13648  -1.13593  -1.13571  -1.13505  -1.13479
 Alpha  occ. eigenvalues --   -1.13476  -1.13360  -1.13331  -1.13298  -1.13190
 Alpha  occ. eigenvalues --   -1.13176  -1.13114  -1.13019  -1.12997  -1.12982
 Alpha  occ. eigenvalues --   -0.17793  -0.13005  -0.12235  -0.11707
 Alpha virt. eigenvalues --   -0.05733  -0.05503  -0.04829  -0.03672  -0.03207
 Alpha virt. eigenvalues --   -0.02844  -0.01593  -0.01061  -0.00725  -0.00158
 Alpha virt. eigenvalues --    0.00037   0.00271   0.00310   0.00514   0.00527

  Beta  occ. eigenvalues --  -38.44687 -38.44633 -38.44124 -38.43941 -38.43798
  Beta  occ. eigenvalues --  -38.43702 -38.43604  -2.20503  -2.20427  -2.19922
  Beta  occ. eigenvalues --   -2.19783  -2.19621  -2.19477  -2.19352  -1.14275
  Beta  occ. eigenvalues --   -1.14179  -1.14156  -1.14121  -1.14095  -1.14043
  Beta  occ. eigenvalues --   -1.13623  -1.13582  -1.13555  -1.13460  -1.13448
  Beta  occ. eigenvalues --   -1.13441  -1.13314  -1.13286  -1.13252  -1.13170
  Beta  occ. eigenvalues --   -1.13162  -1.13098  -1.13025  -1.13006  -1.12989
  Beta  occ. eigenvalues --   -0.17006  -0.12880  -0.11601
  Beta virt. eigenvalues --   -0.08024  -0.05584  -0.05344  -0.04236  -0.03368
  Beta virt. eigenvalues --   -0.02413  -0.02342  -0.01524  -0.00962  -0.00353
  Beta virt. eigenvalues --   -0.00075   0.00115   0.00363   0.00461   0.00642

 Mulliken charges and spin densities:
               1          2
     1  Na  -0.414710   0.465688
     2  Na   0.385399   0.020276
     3  Na   0.371966   0.373011
     4  Na  -0.299655   0.159124
     5  Na   0.378727   0.014954
     6  Na  -0.677583   0.076263
     7  Na   0.255854  -0.109315
 Sum of Mulliken charges =  -0.00000   1.00000

 Dipole moment (field-independent basis, Debye):
    X=              0.5196    Y=              0.5565    Z=              0.2014  Tot=              0.7876
 Quadrupole moment (field-independent basis, Debye-Ang):
   XX=            -57.7609   YY=            -74.3254   ZZ=            -66.5859
   XY=             -3.9871   XZ=             -1.2928   YZ=             -1.9943

 Normal termination of Gaussian 16 at Tue Nov 28 21:03:35 2023.
