 Gaussian 16, Revision B.01,
 Gaussian 16:  ES64L-G16RevB.01 20-Dec-2017

 -------------------------
 #P B3LYP/6-311+g(d) force
 -------------------------

 -----
 DPGEN
 -----
 Symbolic Z-matrix:
 Charge =  0 Multiplicity = 2

                         Standard orientation:
 ---------------------------------------------------------------------
 Center     Atomic      Atomic             Coordinates (Angstroms)
 Number     Number       Type             X           Y           Z
 ---------------------------------------------------------------------
      1         11           0       -3.588053    1.952175    0.600491
      2         11           0        3.433285    1.898758   -0.810920
      3         11           0        0.023859    3.473898   -0.332770
      4         11           0        2.215447   -2.987185   -0.307815
      5         11           0       -1.406688   -2.908828   -0.394202
      6         11           0       -4.739414   -0.992164   -0.001881
      7         11           0        4.061563   -0.436653    1.247098
 ---------------------------------------------------------------------

 SCF Done:  E(UB3LYP) =  -1136.10636531     A.U. after   23 cycles

 The electronic state is 2-A.
 Alpha  occ. eigenvalues --  -38.45258 -38.44985 -38.44763 -38.44502 -38.44501
 Alpha  occ. eigenvalues --  -38.44302 -38.43880  -2.21021  -2.20759  -2.20514
 Alpha  occ. eigenvalues --   -2.20329  -2.20262  -2.20108  -2.19646  -1.14700
 Alpha  occ. eigenvalues --   -1.14688  -1.14667  -1.14459  -1.14430  -1.14402
 Alpha  occ. eigenvalues --   -1.14193  -1.14183  -1.14126  -1.13976  -1.13974
 Alpha  occ. eigenvalues --   -1.13973  -1.13945  -1.13930  -1.13885  -1.13761
 Alpha  occ. eigenvalues --   -1.13761  -1.13741  -1.13305  -1.13296  -1.13262
 Alpha  occ. eigenvalues --   -0.15501  -0.14241  -0.12842  -0.10794
 Alpha virt. eigenvalues --   -0.07617  -0.05077  -0.04564  -0.03496  -0.03458
 Alpha virt. eigenvalues --   -0.02658  -0.02169  -0.01669  -0.01067  -0.00982
 Alpha virt. eigenvalues --   -0.00655  -0.00389   0.00104   0.00355   0.00649

  Beta  occ. eigenvalues --  -38.45245 -38.44989 -38.44720 -38.44497 -38.44454
  Beta  occ. eigenvalues --  -38.44263 -38.43807  -2.21002  -2.20771  -2.20437
  Beta  occ. eigenvalues --   -2.20259  -2.20239  -2.20036  -2.19511  -1.14692
  Beta  occ. eigenvalues --   -1.14680  -1.14618  -1.14460  -1.14444  -1.14387
  Beta  occ. eigenvalues --   -1.14142  -1.14133  -1.14059  -1.13955  -1.13940
  Beta  occ. eigenvalues --   -1.13918  -1.13911  -1.13904  -1.13851  -1.13713
  Beta  occ. eigenvalues --   -1.13709  -1.13692  -1.13214  -1.13205  -1.13173
  Beta  occ. eigenvalues --   -0.15012  -0.13674  -0.11965
  Beta virt. eigenvalues --   -0.07825  -0.07649  -0.04677  -0.04041  -0.03257
  Beta virt. eigenvalues --   -0.03164  -0.02389  -0.02044  -0.01580  -0.00824
  Beta virt. eigenvalues --   -0.00707  -0.00386  -0.00189   0.00280   0.00364

 Mulliken charges and spin densities:
               1          2
     1  Na  -0.121739   0.058863
     2  Na  -0.019704  -0.038716
     3  Na   0.038428   0.410963
     4  Na  -0.128124  -0.124709
     5  Na  -0.097276   0.241200
     6  Na   0.389739   0.234350
     7  Na  -0.061325   0.218049
 Sum of Mulliken charges =  -0.00000   1.00000

 Dipole moment (field-independent basis, Debye):
    X=              0.1161    Y=             -0.3216    Z=              0.1922  Tot=              0.3923
 Quadrupole moment (field-independent basis, Debye-Ang):
   XX=            -58.8831   YY=            -70.9153   ZZ=            -69.9952
   XY=              0.3203   XZ=             -0.3221   YZ=              0.4447

 Normal termination of Gaussian 16 at Sun Dec  3 22:47:44 2023.
