 Gaussian 16, Revision B.01,
 Gaussian 16:  ES64L-G16RevB.01 20-Dec-2017

 -------------------------
 #P B3LYP/6-311+g(d) force
 -------------------------

 -----
 DPGEN
 -----
 Symbolic Z-matrix:
 Charge =  0 Multiplicity = 2

                         Standard orientation:
 ---------------------------------------------------------------------
 Center     Atomic      Atomic             Coordinates (Angstroms)
 Number     Number       Type             X           Y           Z
 ---------------------------------------------------------------------
      1         11           0       -2.572715    1.253560   -0.454036
      2         11           0        0.209892    0.091188    1.829994
      3         11           0        2.464705   -2.231718   -0.121547
      4         11           0        0.221998    2.876046   -0.004506
      5         11           0       -0.438718   -0.871291   -1.686307
      6         11           0        2.745513    0.882629   -0.156880
      7         11           0       -2.630675   -2.000415    0.593280
 ---------------------------------------------------------------------

 SCF Done:  E(UB3LYP) =  -1136.13352031     A.U. after   20 cycles

 The electronic state is 2-A.
 Alpha  occ. eigenvalues --  -38.44082 -38.43975 -38.43936 -38.43872 -38.43493
 Alpha  occ. eigenvalues --  -38.43491 -38.42833  -2.19911  -2.19880  -2.19826
 Alpha  occ. eigenvalues --   -2.19708  -2.19415  -2.19400  -2.18723  -1.13585
 Alpha  occ. eigenvalues --   -1.13578  -1.13576  -1.13562  -1.13559  -1.13537
 Alpha  occ. eigenvalues --   -1.13525  -1.13481  -1.13445  -1.13361  -1.13353
 Alpha  occ. eigenvalues --   -1.13343  -1.13105  -1.13073  -1.13046  -1.13042
 Alpha  occ. eigenvalues --   -1.13035  -1.13015  -1.12395  -1.12391  -1.12365
 Alpha  occ. eigenvalues --   -0.18671  -0.13590  -0.12302  -0.10596
 Alpha virt. eigenvalues --   -0.05758  -0.05608  -0.04460  -0.03480  -0.02755
 Alpha virt. eigenvalues --   -0.02321  -0.01639  -0.01248  -0.00498  -0.00152
 Alpha virt. eigenvalues --    0.00016   0.00346   0.00747   0.00799   0.00870

  Beta  occ. eigenvalues --  -38.44066 -38.43970 -38.43920 -38.43870 -38.43437
  Beta  occ. eigenvalues --  -38.43412 -38.42830  -2.19884  -2.19875  -2.19799
  Beta  occ. eigenvalues --   -2.19706  -2.19298  -2.19270  -2.18721  -1.13586
  Beta  occ. eigenvalues --   -1.13563  -1.13558  -1.13557  -1.13524  -1.13509
  Beta  occ. eigenvalues --   -1.13499  -1.13451  -1.13423  -1.13355  -1.13344
  Beta  occ. eigenvalues --   -1.13340  -1.13022  -1.12990  -1.12963  -1.12944
  Beta  occ. eigenvalues --   -1.12940  -1.12927  -1.12397  -1.12390  -1.12338
  Beta  occ. eigenvalues --   -0.17978  -0.13354  -0.12074
  Beta virt. eigenvalues --   -0.06776  -0.05701  -0.05487  -0.04372  -0.02751
  Beta virt. eigenvalues --   -0.02092  -0.01540  -0.01346  -0.01105  -0.00545
  Beta virt. eigenvalues --   -0.00126   0.00157   0.00392   0.00812   0.00838

 Mulliken charges and spin densities:
               1          2
     1  Na   0.196578   0.148313
     2  Na  -0.145275   0.482723
     3  Na   0.142804  -0.021353
     4  Na  -0.076418   0.011247
     5  Na  -0.107808   0.277771
     6  Na   0.028841   0.070860
     7  Na  -0.038721   0.030440
 Sum of Mulliken charges =  -0.00000   1.00000

 Dipole moment (field-independent basis, Debye):
    X=             -0.1237    Y=             -0.4923    Z=              0.0388  Tot=              0.5091
 Quadrupole moment (field-independent basis, Debye-Ang):
   XX=            -56.3894   YY=            -63.4390   ZZ=            -74.5194
   XY=              0.2436   XZ=             -1.0379   YZ=             -1.9452

 Normal termination of Gaussian 16 at Fri Dec  8 06:09:28 2023.
