 Gaussian 16, Revision B.01,
 Gaussian 16:  ES64L-G16RevB.01 20-Dec-2017

 -------------------------
 #P B3LYP/6-311+g(d) force
 -------------------------

 -----
 DPGEN
 -----
 Symbolic Z-matrix:
 Charge =  0 Multiplicity = 2

                         Standard orientation:
 ---------------------------------------------------------------------
 Center     Atomic      Atomic             Coordinates (Angstroms)
 Number     Number       Type             X           Y           Z
 ---------------------------------------------------------------------
      1         11           0        0.814560   -2.489809    0.326409
      2         11           0        1.199126    0.109508   -1.623747
      3         11           0       -2.292210   -1.447036   -1.350147
      4         11           0       -3.264865    0.940856    0.601367
      5         11           0        3.899238    0.467392    0.262789
      6         11           0       -0.251212   -0.561423    1.967022
      7         11           0       -0.104636    2.980512   -0.183692
 ---------------------------------------------------------------------

 SCF Done:  E(UB3LYP) =  -1136.11742137     A.U. after   22 cycles

 The electronic state is 2-A.
 Alpha  occ. eigenvalues --  -38.45691 -38.44312 -38.43969 -38.43960 -38.43913
 Alpha  occ. eigenvalues --  -38.43614 -38.43250  -2.21435  -2.20119  -2.19897
 Alpha  occ. eigenvalues --   -2.19800  -2.19673  -2.19517  -2.19178  -1.15117
 Alpha  occ. eigenvalues --   -1.15080  -1.15076  -1.13817  -1.13784  -1.13747
 Alpha  occ. eigenvalues --   -1.13729  -1.13510  -1.13482  -1.13458  -1.13451
 Alpha  occ. eigenvalues --   -1.13419  -1.13373  -1.13348  -1.13291  -1.13202
 Alpha  occ. eigenvalues --   -1.13175  -1.13137  -1.12865  -1.12814  -1.12747
 Alpha  occ. eigenvalues --   -0.18044  -0.13216  -0.11800  -0.10943
 Alpha virt. eigenvalues --   -0.07052  -0.04666  -0.04376  -0.03521  -0.02963
 Alpha virt. eigenvalues --   -0.02668  -0.02351  -0.00981  -0.00539  -0.00237
 Alpha virt. eigenvalues --   -0.00027   0.00184   0.00368   0.00759   0.00881

  Beta  occ. eigenvalues --  -38.45695 -38.44306 -38.43915 -38.43910 -38.43883
  Beta  occ. eigenvalues --  -38.43572 -38.43235  -2.21443  -2.20109  -2.19741
  Beta  occ. eigenvalues --   -2.19708  -2.19678  -2.19439  -2.19157  -1.15117
  Beta  occ. eigenvalues --   -1.15086  -1.15081  -1.13803  -1.13766  -1.13742
  Beta  occ. eigenvalues --   -1.13627  -1.13400  -1.13392  -1.13382  -1.13374
  Beta  occ. eigenvalues --   -1.13372  -1.13357  -1.13346  -1.13295  -1.13151
  Beta  occ. eigenvalues --   -1.13126  -1.13070  -1.12835  -1.12774  -1.12729
  Beta  occ. eigenvalues --   -0.17344  -0.13039  -0.11555
  Beta virt. eigenvalues --   -0.07085  -0.06986  -0.04465  -0.04204  -0.03073
  Beta virt. eigenvalues --   -0.02425  -0.02065  -0.01696  -0.00818  -0.00511
  Beta virt. eigenvalues --   -0.00159   0.00011   0.00241   0.00460   0.00788

 Mulliken charges and spin densities:
               1          2
     1  Na   0.275741   0.200010
     2  Na   0.144339   0.203160
     3  Na  -0.220678   0.185580
     4  Na   0.156741   0.058128
     5  Na   0.132180  -0.035953
     6  Na  -0.252957   0.413751
     7  Na  -0.235365  -0.024677
 Sum of Mulliken charges =  -0.00000   1.00000

 Dipole moment (field-independent basis, Debye):
    X=              0.8410    Y=              0.2356    Z=              0.2404  Tot=              0.9059
 Quadrupole moment (field-independent basis, Debye-Ang):
   XX=            -50.0522   YY=            -71.0479   ZZ=            -72.4758
   XY=              0.2925   XZ=              2.5628   YZ=              2.4635

 Normal termination of Gaussian 16 at Tue Dec  5 12:24:43 2023.
