 Gaussian 16, Revision B.01,
 Gaussian 16:  ES64L-G16RevB.01 20-Dec-2017

 -------------------------
 #P B3LYP/6-311+g(d) force
 -------------------------

 -----
 DPGEN
 -----
 Symbolic Z-matrix:
 Charge =  0 Multiplicity = 2

                         Standard orientation:
 ---------------------------------------------------------------------
 Center     Atomic      Atomic             Coordinates (Angstroms)
 Number     Number       Type             X           Y           Z
 ---------------------------------------------------------------------
      1         11           0        1.284146   -1.768569    1.128025
      2         11           0       -2.021263   -0.472672    1.794463
      3         11           0        3.319015    1.692395    0.672208
      4         11           0        0.155679    1.373366   -0.386302
      5         11           0       -3.654797    1.441689   -0.497956
      6         11           0        2.545198   -0.703406   -1.491635
      7         11           0       -1.627977   -1.562803   -1.218802
 ---------------------------------------------------------------------

 SCF Done:  E(UB3LYP) =  -1136.12465097     A.U. after   25 cycles

 The electronic state is 2-A.
 Alpha  occ. eigenvalues --  -38.44428 -38.44140 -38.44012 -38.43951 -38.43882
 Alpha  occ. eigenvalues --  -38.43806 -38.43014  -2.20331  -2.19947  -2.19906
 Alpha  occ. eigenvalues --   -2.19817  -2.19783  -2.19641  -2.18898  -1.14027
 Alpha  occ. eigenvalues --   -1.14010  -1.13926  -1.13628  -1.13623  -1.13611
 Alpha  occ. eigenvalues --   -1.13601  -1.13587  -1.13539  -1.13521  -1.13495
 Alpha  occ. eigenvalues --   -1.13456  -1.13410  -1.13401  -1.13370  -1.13306
 Alpha  occ. eigenvalues --   -1.13288  -1.13276  -1.12585  -1.12573  -1.12509
 Alpha  occ. eigenvalues --   -0.18498  -0.14430  -0.11070  -0.10652
 Alpha virt. eigenvalues --   -0.06484  -0.05647  -0.04985  -0.03019  -0.02517
 Alpha virt. eigenvalues --   -0.02305  -0.02063  -0.01275  -0.00770  -0.00274
 Alpha virt. eigenvalues --    0.00144   0.00246   0.00359   0.00454   0.00606

  Beta  occ. eigenvalues --  -38.44397 -38.44136 -38.43996 -38.43921 -38.43828
  Beta  occ. eigenvalues --  -38.43794 -38.42995  -2.20273  -2.19939  -2.19883
  Beta  occ. eigenvalues --   -2.19762  -2.19683  -2.19618  -2.18868  -1.13992
  Beta  occ. eigenvalues --   -1.13966  -1.13878  -1.13614  -1.13601  -1.13591
  Beta  occ. eigenvalues --   -1.13580  -1.13564  -1.13512  -1.13489  -1.13452
  Beta  occ. eigenvalues --   -1.13386  -1.13368  -1.13344  -1.13293  -1.13287
  Beta  occ. eigenvalues --   -1.13269  -1.13263  -1.12563  -1.12529  -1.12487
  Beta  occ. eigenvalues --   -0.17833  -0.14244  -0.10828
  Beta virt. eigenvalues --   -0.06951  -0.06315  -0.05488  -0.04324  -0.02842
  Beta virt. eigenvalues --   -0.02408  -0.01814  -0.01408  -0.01076  -0.00318
  Beta virt. eigenvalues --   -0.00180   0.00193   0.00275   0.00471   0.00566

 Mulliken charges and spin densities:
               1          2
     1  Na  -0.164353   0.264712
     2  Na  -0.010102   0.021124
     3  Na   0.338387  -0.115037
     4  Na  -1.250819   0.435149
     5  Na   0.537019   0.059873
     6  Na   0.645965   0.049818
     7  Na  -0.096097   0.284361
 Sum of Mulliken charges =  -0.00000   1.00000

 Dipole moment (field-independent basis, Debye):
    X=             -0.1052    Y=             -0.2266    Z=             -0.1683  Tot=              0.3012
 Quadrupole moment (field-independent basis, Debye-Ang):
   XX=            -50.4357   YY=            -74.7487   ZZ=            -69.0517
   XY=             -1.4165   XZ=              0.7884   YZ=              1.9595

 Normal termination of Gaussian 16 at Tue Dec  5 18:32:44 2023.
