 Gaussian 16, Revision B.01,
 Gaussian 16:  ES64L-G16RevB.01 20-Dec-2017

 -------------------------
 #P B3LYP/6-311+g(d) force
 -------------------------

 -----
 DPGEN
 -----
 Symbolic Z-matrix:
 Charge =  0 Multiplicity = 2

                         Standard orientation:
 ---------------------------------------------------------------------
 Center     Atomic      Atomic             Coordinates (Angstroms)
 Number     Number       Type             X           Y           Z
 ---------------------------------------------------------------------
      1         11           0        4.612473   -0.494552    0.247535
      2         11           0       -4.205206    0.364524   -0.273667
      3         11           0        1.874052    2.568408   -0.122078
      4         11           0       -1.247689    2.371051   -0.631035
      5         11           0        1.728995   -1.650904   -0.744093
      6         11           0       -1.186700   -0.421824    2.148033
      7         11           0       -1.575925   -2.736702   -0.624696
 ---------------------------------------------------------------------

 SCF Done:  E(UB3LYP) =  -1136.11565548     A.U. after   23 cycles

 The electronic state is 2-A.
 Alpha  occ. eigenvalues --  -38.46576 -38.44338 -38.43864 -38.43833 -38.43807
 Alpha  occ. eigenvalues --  -38.43781 -38.43479  -2.22317  -2.20123  -2.19675
 Alpha  occ. eigenvalues --   -2.19631  -2.19625  -2.19583  -2.19304  -1.15986
 Alpha  occ. eigenvalues --   -1.15966  -1.15951  -1.13810  -1.13777  -1.13760
 Alpha  occ. eigenvalues --   -1.13359  -1.13333  -1.13322  -1.13298  -1.13297
 Alpha  occ. eigenvalues --   -1.13282  -1.13275  -1.13260  -1.13256  -1.13252
 Alpha  occ. eigenvalues --   -1.13236  -1.13192  -1.12985  -1.12965  -1.12937
 Alpha  occ. eigenvalues --   -0.16802  -0.13650  -0.12316  -0.10369
 Alpha virt. eigenvalues --   -0.07403  -0.05623  -0.04046  -0.03548  -0.03039
 Alpha virt. eigenvalues --   -0.02522  -0.01936  -0.01861  -0.01087  -0.00692
 Alpha virt. eigenvalues --   -0.00504  -0.00205   0.00261   0.00475   0.00726

  Beta  occ. eigenvalues --  -38.46559 -38.44339 -38.43814 -38.43796 -38.43785
  Beta  occ. eigenvalues --  -38.43711 -38.43465  -2.22285  -2.20126  -2.19600
  Beta  occ. eigenvalues --   -2.19595  -2.19549  -2.19446  -2.19285  -1.15958
  Beta  occ. eigenvalues --   -1.15946  -1.15927  -1.13815  -1.13767  -1.13763
  Beta  occ. eigenvalues --   -1.13315  -1.13304  -1.13273  -1.13269  -1.13258
  Beta  occ. eigenvalues --   -1.13234  -1.13231  -1.13212  -1.13159  -1.13159
  Beta  occ. eigenvalues --   -1.13138  -1.13118  -1.12977  -1.12953  -1.12889
  Beta  occ. eigenvalues --   -0.16391  -0.12890  -0.11932
  Beta virt. eigenvalues --   -0.07254  -0.06961  -0.05586  -0.03662  -0.03117
  Beta virt. eigenvalues --   -0.02706  -0.02376  -0.01647  -0.01472  -0.00904
  Beta virt. eigenvalues --   -0.00272  -0.00175  -0.00100   0.00370   0.00576

 Mulliken charges and spin densities:
               1          2
     1  Na   0.475862   0.297587
     2  Na   0.209503   0.571213
     3  Na  -0.053159   0.055792
     4  Na  -0.143698   0.001088
     5  Na  -0.544314   0.009595
     6  Na  -0.102990   0.061494
     7  Na   0.158795   0.003230
 Sum of Mulliken charges =  -0.00000   1.00000

 Dipole moment (field-independent basis, Debye):
    X=             -0.2760    Y=             -0.5725    Z=              1.2517  Tot=              1.4039
 Quadrupole moment (field-independent basis, Debye-Ang):
   XX=            -69.8657   YY=            -73.5375   ZZ=            -62.0193
   XY=              7.0637   XZ=              1.1527   YZ=              1.5044

 Normal termination of Gaussian 16 at Mon Dec  4 04:09:32 2023.
