 Gaussian 16, Revision B.01,
 Gaussian 16:  ES64L-G16RevB.01 20-Dec-2017

 -------------------------
 #P B3LYP/6-311+g(d) force
 -------------------------

 -----
 DPGEN
 -----
 Symbolic Z-matrix:
 Charge =  0 Multiplicity = 2

                         Standard orientation:
 ---------------------------------------------------------------------
 Center     Atomic      Atomic             Coordinates (Angstroms)
 Number     Number       Type             X           Y           Z
 ---------------------------------------------------------------------
      1         11           0        2.263221    1.593531    0.065265
      2         11           0        5.707849    0.278263    0.114541
      3         11           0        3.323788   -2.071202   -0.073855
      4         11           0        0.102572   -1.266990   -0.314008
      5         11           0       -1.087042    2.329596   -0.202297
      6         11           0       -3.829332   -0.468627    0.722480
      7         11           0       -6.481057   -0.394571   -0.312126
 ---------------------------------------------------------------------

 SCF Done:  E(UB3LYP) =  -1136.11935607     A.U. after   20 cycles

 The electronic state is 2-A.
 Alpha  occ. eigenvalues --  -38.44589 -38.44422 -38.44288 -38.44260 -38.44107
 Alpha  occ. eigenvalues --  -38.43905 -38.43712  -2.20419  -2.20269  -2.20135
 Alpha  occ. eigenvalues --   -2.20059  -2.19914  -2.19728  -2.19557  -1.14121
 Alpha  occ. eigenvalues --   -1.14106  -1.14012  -1.13954  -1.13943  -1.13871
 Alpha  occ. eigenvalues --   -1.13806  -1.13791  -1.13760  -1.13729  -1.13707
 Alpha  occ. eigenvalues --   -1.13680  -1.13571  -1.13568  -1.13568  -1.13534
 Alpha  occ. eigenvalues --   -1.13366  -1.13365  -1.13209  -1.13195  -1.13118
 Alpha  occ. eigenvalues --   -0.16935  -0.14074  -0.12017  -0.11619
 Alpha virt. eigenvalues --   -0.06479  -0.05596  -0.04323  -0.03383  -0.03198
 Alpha virt. eigenvalues --   -0.02603  -0.02391  -0.01309  -0.01026  -0.00739
 Alpha virt. eigenvalues --   -0.00553  -0.00060   0.00083   0.00302   0.00743

  Beta  occ. eigenvalues --  -38.44552 -38.44351 -38.44247 -38.44233 -38.44073
  Beta  occ. eigenvalues --  -38.43911 -38.43711  -2.20353  -2.20141  -2.20066
  Beta  occ. eigenvalues --   -2.20010  -2.19852  -2.19739  -2.19554  -1.14079
  Beta  occ. eigenvalues --   -1.14051  -1.13956  -1.13865  -1.13859  -1.13773
  Beta  occ. eigenvalues --   -1.13765  -1.13737  -1.13697  -1.13679  -1.13663
  Beta  occ. eigenvalues --   -1.13652  -1.13574  -1.13529  -1.13519  -1.13495
  Beta  occ. eigenvalues --   -1.13373  -1.13372  -1.13204  -1.13193  -1.13123
  Beta  occ. eigenvalues --   -0.16179  -0.13961  -0.11816
  Beta virt. eigenvalues --   -0.07673  -0.06287  -0.05056  -0.04110  -0.03161
  Beta virt. eigenvalues --   -0.02718  -0.02307  -0.02050  -0.01240  -0.00878
  Beta virt. eigenvalues --   -0.00349  -0.00209   0.00108   0.00202   0.00444

 Mulliken charges and spin densities:
               1          2
     1  Na  -0.548881   0.234786
     2  Na   0.371894   0.190584
     3  Na   0.890993  -0.150682
     4  Na  -1.069822   0.689025
     5  Na   0.387040   0.099882
     6  Na  -0.575060  -0.015688
     7  Na   0.543835  -0.047907
 Sum of Mulliken charges =  -0.00000   1.00000

 Dipole moment (field-independent basis, Debye):
    X=              0.8636    Y=              0.4039    Z=             -0.2809  Tot=              0.9939
 Quadrupole moment (field-independent basis, Debye-Ang):
   XX=            -58.1698   YY=            -67.2168   ZZ=            -72.4778
   XY=             -2.9321   XZ=              3.7491   YZ=             -0.3347

 Normal termination of Gaussian 16 at Tue Nov 28 23:26:07 2023.
