 Gaussian 16, Revision B.01,
 Gaussian 16:  ES64L-G16RevB.01 20-Dec-2017

 -------------------------
 #P B3LYP/6-311+g(d) force
 -------------------------

 -----
 DPGEN
 -----
 Symbolic Z-matrix:
 Charge =  0 Multiplicity = 2

                         Standard orientation:
 ---------------------------------------------------------------------
 Center     Atomic      Atomic             Coordinates (Angstroms)
 Number     Number       Type             X           Y           Z
 ---------------------------------------------------------------------
      1         11           0        2.235206   -2.446601   -0.367791
      2         11           0        0.118897   -0.369483   -1.569791
      3         11           0       -0.023148    0.248563    2.120392
      4         11           0       -0.063607    3.136404   -0.329980
      5         11           0       -2.070092   -2.411481    0.360635
      6         11           0       -3.009503    0.765404   -0.409446
      7         11           0        2.812246    1.077195    0.195980
 ---------------------------------------------------------------------

 SCF Done:  E(UB3LYP) =  -1136.13725950     A.U. after   19 cycles

 The electronic state is 2-A.
 Alpha  occ. eigenvalues --  -38.43946 -38.43935 -38.43918 -38.43797 -38.43729
 Alpha  occ. eigenvalues --  -38.43448 -38.43228  -2.19772  -2.19755  -2.19740
 Alpha  occ. eigenvalues --   -2.19652  -2.19542  -2.19256  -2.19170  -1.13457
 Alpha  occ. eigenvalues --   -1.13450  -1.13445  -1.13424  -1.13416  -1.13407
 Alpha  occ. eigenvalues --   -1.13395  -1.13393  -1.13350  -1.13315  -1.13283
 Alpha  occ. eigenvalues --   -1.13263  -1.13244  -1.13190  -1.13175  -1.12933
 Alpha  occ. eigenvalues --   -1.12915  -1.12900  -1.12857  -1.12801  -1.12797
 Alpha  occ. eigenvalues --   -0.18194  -0.12973  -0.12287  -0.10666
 Alpha virt. eigenvalues --   -0.05507  -0.05357  -0.05003  -0.03209  -0.02847
 Alpha virt. eigenvalues --   -0.02520  -0.01484  -0.01325  -0.00612  -0.00485
 Alpha virt. eigenvalues --   -0.00029   0.00341   0.00780   0.00818   0.00837

  Beta  occ. eigenvalues --  -38.43939 -38.43929 -38.43909 -38.43723 -38.43700
  Beta  occ. eigenvalues --  -38.43443 -38.43175  -2.19764  -2.19744  -2.19727
  Beta  occ. eigenvalues --   -2.19534  -2.19474  -2.19250  -2.19076  -1.13449
  Beta  occ. eigenvalues --   -1.13440  -1.13426  -1.13403  -1.13396  -1.13391
  Beta  occ. eigenvalues --   -1.13391  -1.13384  -1.13341  -1.13228  -1.13197
  Beta  occ. eigenvalues --   -1.13178  -1.13172  -1.13160  -1.13132  -1.12920
  Beta  occ. eigenvalues --   -1.12911  -1.12886  -1.12789  -1.12736  -1.12725
  Beta  occ. eigenvalues --   -0.17496  -0.12761  -0.12049
  Beta virt. eigenvalues --   -0.06816  -0.05434  -0.05308  -0.04908  -0.02461
  Beta virt. eigenvalues --   -0.02173  -0.01524  -0.01370  -0.01222  -0.00631
  Beta virt. eigenvalues --   -0.00516   0.00122   0.00382   0.00820   0.00844

 Mulliken charges and spin densities:
               1          2
     1  Na   0.132224  -0.041099
     2  Na  -0.081301   0.386226
     3  Na  -0.336637   0.669599
     4  Na  -0.058490  -0.037227
     5  Na   0.052123   0.033539
     6  Na   0.095999  -0.023451
     7  Na   0.196082   0.012413
 Sum of Mulliken charges =  -0.00000   1.00000

 Dipole moment (field-independent basis, Debye):
    X=             -0.0385    Y=             -0.1453    Z=              0.1668  Tot=              0.2245
 Quadrupole moment (field-independent basis, Debye-Ang):
   XX=            -58.0570   YY=            -60.4892   ZZ=            -74.8774
   XY=              0.1684   XZ=              0.5437   YZ=             -1.5613

 Normal termination of Gaussian 16 at Thu Dec  7 02:49:05 2023.
