 Gaussian 16, Revision B.01,
 Gaussian 16:  ES64L-G16RevB.01 20-Dec-2017

 -------------------------
 #P B3LYP/6-311+g(d) force
 -------------------------

 -----
 DPGEN
 -----
 Symbolic Z-matrix:
 Charge =  0 Multiplicity = 2

                         Standard orientation:
 ---------------------------------------------------------------------
 Center     Atomic      Atomic             Coordinates (Angstroms)
 Number     Number       Type             X           Y           Z
 ---------------------------------------------------------------------
      1         11           0       -2.538330   -0.061856    2.023046
      2         11           0       -1.782308    0.617619   -1.516916
      3         11           0        0.706694   -1.477885   -0.100396
      4         11           0        4.008753   -1.927796    0.132532
      5         11           0       -4.446042   -0.957334   -0.645020
      6         11           0        3.922086    1.309857   -0.240016
      7         11           0        0.129147    2.497395    0.346770
 ---------------------------------------------------------------------

 SCF Done:  E(UB3LYP) =  -1136.10813353     A.U. after   32 cycles

 The electronic state is 2-A.
 Alpha  occ. eigenvalues --  -38.47360 -38.45485 -38.43979 -38.43517 -38.43347
 Alpha  occ. eigenvalues --  -38.43242 -38.42396  -2.23125  -2.21375  -2.19786
 Alpha  occ. eigenvalues --   -2.19371  -2.19194  -2.19060  -2.18220  -1.16812
 Alpha  occ. eigenvalues --   -1.16768  -1.16751  -1.15072  -1.15026  -1.15003
 Alpha  occ. eigenvalues --   -1.13450  -1.13421  -1.13415  -1.13064  -1.12997
 Alpha  occ. eigenvalues --   -1.12990  -1.12882  -1.12835  -1.12824  -1.12724
 Alpha  occ. eigenvalues --   -1.12719  -1.12714  -1.11908  -1.11873  -1.11870
 Alpha  occ. eigenvalues --   -0.17519  -0.14230  -0.11160  -0.10306
 Alpha virt. eigenvalues --   -0.08092  -0.05583  -0.04442  -0.03453  -0.02740
 Alpha virt. eigenvalues --   -0.02394  -0.01943  -0.01894  -0.01102  -0.00716
 Alpha virt. eigenvalues --   -0.00457   0.00076   0.00208   0.00463   0.00648

  Beta  occ. eigenvalues --  -38.47355 -38.45474 -38.43905 -38.43433 -38.43325
  Beta  occ. eigenvalues --  -38.43246 -38.42396  -2.23118  -2.21358  -2.19649
  Beta  occ. eigenvalues --   -2.19217  -2.19153  -2.19072  -2.18220  -1.16797
  Beta  occ. eigenvalues --   -1.16766  -1.16740  -1.15041  -1.15014  -1.14995
  Beta  occ. eigenvalues --   -1.13356  -1.13332  -1.13316  -1.12958  -1.12897
  Beta  occ. eigenvalues --   -1.12881  -1.12856  -1.12802  -1.12797  -1.12735
  Beta  occ. eigenvalues --   -1.12724  -1.12695  -1.11907  -1.11873  -1.11864
  Beta  occ. eigenvalues --   -0.17024  -0.13696  -0.10970
  Beta virt. eigenvalues --   -0.08006  -0.06813  -0.05123  -0.03880  -0.03192
  Beta virt. eigenvalues --   -0.02540  -0.02371  -0.01877  -0.01392  -0.00677
  Beta virt. eigenvalues --   -0.00391  -0.00308   0.00204   0.00289   0.00596

 Mulliken charges and spin densities:
               1          2
     1  Na   0.181502   0.103301
     2  Na   0.529974   0.228987
     3  Na  -1.120400   0.065422
     4  Na   0.508404   0.142119
     5  Na   0.235457   0.065993
     6  Na  -0.142131   0.387653
     7  Na  -0.192806   0.006526
 Sum of Mulliken charges =  -0.00000   1.00000

 Dipole moment (field-independent basis, Debye):
    X=             -1.5882    Y=             -0.0493    Z=              0.9789  Tot=              1.8663
 Quadrupole moment (field-independent basis, Debye-Ang):
   XX=            -74.5733   YY=            -76.1271   ZZ=            -56.7499
   XY=             -1.8448   XZ=             -1.9242   YZ=              0.2241

 Normal termination of Gaussian 16 at Mon Dec  4 01:04:50 2023.
