 Gaussian 16, Revision B.01,
 Gaussian 16:  ES64L-G16RevB.01 20-Dec-2017

 -------------------------
 #P B3LYP/6-311+g(d) force
 -------------------------

 -----
 DPGEN
 -----
 Symbolic Z-matrix:
 Charge =  0 Multiplicity = 2

                         Standard orientation:
 ---------------------------------------------------------------------
 Center     Atomic      Atomic             Coordinates (Angstroms)
 Number     Number       Type             X           Y           Z
 ---------------------------------------------------------------------
      1         11           0       -3.042963    0.653201   -0.237870
      2         11           0       -1.550153   -2.486426    0.158312
      3         11           0       -0.250322    2.842155    0.198180
      4         11           0        0.169007   -0.225121    1.823307
      5         11           0        0.035342    0.035767   -1.630240
      6         11           0        2.090992   -2.121887   -0.251281
      7         11           0        2.548096    1.302311   -0.060407
 ---------------------------------------------------------------------

 SCF Done:  E(UB3LYP) =  -1136.14001832     A.U. after   19 cycles

 The electronic state is 2-A.
 Alpha  occ. eigenvalues --  -38.43748 -38.43611 -38.43534 -38.43479 -38.43306
 Alpha  occ. eigenvalues --  -38.43142 -38.42966  -2.19580  -2.19474  -2.19411
 Alpha  occ. eigenvalues --   -2.19400  -2.19196  -2.19118  -2.18993  -1.13260
 Alpha  occ. eigenvalues --   -1.13239  -1.13229  -1.13169  -1.13144  -1.13128
 Alpha  occ. eigenvalues --   -1.13101  -1.13093  -1.13085  -1.13065  -1.13050
 Alpha  occ. eigenvalues --   -1.13013  -1.12878  -1.12861  -1.12821  -1.12796
 Alpha  occ. eigenvalues --   -1.12738  -1.12727  -1.12669  -1.12616  -1.12607
 Alpha  occ. eigenvalues --   -0.19165  -0.13025  -0.12789  -0.10678
 Alpha virt. eigenvalues --   -0.05323  -0.05110  -0.04842  -0.03045  -0.02926
 Alpha virt. eigenvalues --   -0.02314  -0.01354  -0.01180  -0.00289  -0.00159
 Alpha virt. eigenvalues --    0.00032   0.00366   0.00874   0.00902   0.00929

  Beta  occ. eigenvalues --  -38.43744 -38.43604 -38.43525 -38.43470 -38.43299
  Beta  occ. eigenvalues --  -38.43057 -38.42895  -2.19576  -2.19465  -2.19399
  Beta  occ. eigenvalues --   -2.19390  -2.19188  -2.18962  -2.18865  -1.13250
  Beta  occ. eigenvalues --   -1.13230  -1.13225  -1.13158  -1.13122  -1.13116
  Beta  occ. eigenvalues --   -1.13096  -1.13091  -1.13058  -1.13037  -1.13022
  Beta  occ. eigenvalues --   -1.13007  -1.12871  -1.12831  -1.12813  -1.12698
  Beta  occ. eigenvalues --   -1.12627  -1.12616  -1.12580  -1.12527  -1.12510
  Beta  occ. eigenvalues --   -0.18433  -0.12753  -0.12521
  Beta virt. eigenvalues --   -0.06749  -0.05308  -0.05098  -0.04823  -0.02233
  Beta virt. eigenvalues --   -0.02141  -0.01305  -0.01234  -0.01107  -0.00331
  Beta virt. eigenvalues --   -0.00219   0.00153   0.00387   0.00893   0.00911

 Mulliken charges and spin densities:
               1          2
     1  Na   0.015133  -0.072684
     2  Na   0.115558  -0.092452
     3  Na   0.091801  -0.036710
     4  Na  -0.358933   0.701468
     5  Na  -0.391569   0.607107
     6  Na   0.223579  -0.078797
     7  Na   0.304431  -0.027931
 Sum of Mulliken charges =  -0.00000   1.00000

 Dipole moment (field-independent basis, Debye):
    X=             -0.1114    Y=             -0.1476    Z=              0.0666  Tot=              0.1965
 Quadrupole moment (field-independent basis, Debye-Ang):
   XX=            -57.6388   YY=            -60.2325   ZZ=            -74.8754
   XY=             -0.4200   XZ=             -0.2408   YZ=              0.6071

 Normal termination of Gaussian 16 at Fri Dec  8 07:25:26 2023.
