 Gaussian 16, Revision B.01,
 Gaussian 16:  ES64L-G16RevB.01 20-Dec-2017

 -------------------------
 #P B3LYP/6-311+g(d) force
 -------------------------

 -----
 DPGEN
 -----
 Symbolic Z-matrix:
 Charge =  0 Multiplicity = 2

                         Standard orientation:
 ---------------------------------------------------------------------
 Center     Atomic      Atomic             Coordinates (Angstroms)
 Number     Number       Type             X           Y           Z
 ---------------------------------------------------------------------
      1         11           0       -3.264162    0.898312    0.173648
      2         11           0        1.500124   -2.400536   -0.128638
      3         11           0        0.301478    0.023069    1.712971
      4         11           0        0.185702    2.930831   -0.067690
      5         11           0       -2.146978   -2.196633   -0.128206
      6         11           0        0.239897    0.375638   -1.682810
      7         11           0        3.183939    0.369318    0.120725
 ---------------------------------------------------------------------

 SCF Done:  E(UB3LYP) =  -1136.13359477     A.U. after   22 cycles

 The electronic state is 2-A.
 Alpha  occ. eigenvalues --  -38.44593 -38.44510 -38.43587 -38.43308 -38.43241
 Alpha  occ. eigenvalues --  -38.43213 -38.43010  -2.20380  -2.20378  -2.19411
 Alpha  occ. eigenvalues --   -2.19180  -2.19174  -2.19139  -2.18994  -1.14057
 Alpha  occ. eigenvalues --   -1.14053  -1.14047  -1.14047  -1.14012  -1.14009
 Alpha  occ. eigenvalues --   -1.13079  -1.13077  -1.13059  -1.12953  -1.12907
 Alpha  occ. eigenvalues --   -1.12869  -1.12814  -1.12809  -1.12795  -1.12780
 Alpha  occ. eigenvalues --   -1.12769  -1.12758  -1.12660  -1.12599  -1.12596
 Alpha  occ. eigenvalues --   -0.18785  -0.13304  -0.12365  -0.10357
 Alpha virt. eigenvalues --   -0.06228  -0.05113  -0.04613  -0.03109  -0.02675
 Alpha virt. eigenvalues --   -0.02137  -0.01947  -0.01082  -0.00564  -0.00350
 Alpha virt. eigenvalues --    0.00009   0.00329   0.00778   0.00837   0.00899

  Beta  occ. eigenvalues --  -38.44593 -38.44501 -38.43586 -38.43301 -38.43232
  Beta  occ. eigenvalues --  -38.43139 -38.42932  -2.20380  -2.20366  -2.19410
  Beta  occ. eigenvalues --   -2.19165  -2.19127  -2.19044  -2.18853  -1.14052
  Beta  occ. eigenvalues --   -1.14051  -1.14038  -1.14015  -1.14012  -1.13995
  Beta  occ. eigenvalues --   -1.13079  -1.13068  -1.13054  -1.12926  -1.12859
  Beta  occ. eigenvalues --   -1.12819  -1.12780  -1.12776  -1.12761  -1.12753
  Beta  occ. eigenvalues --   -1.12694  -1.12682  -1.12567  -1.12503  -1.12497
  Beta  occ. eigenvalues --   -0.18066  -0.13092  -0.12095
  Beta virt. eigenvalues --   -0.06479  -0.06154  -0.05114  -0.04588  -0.02377
  Beta virt. eigenvalues --   -0.01904  -0.01857  -0.01118  -0.01020  -0.00601
  Beta virt. eigenvalues --   -0.00400   0.00156   0.00359   0.00801   0.00841

 Mulliken charges and spin densities:
               1          2
     1  Na  -0.020804  -0.072124
     2  Na   0.078693  -0.024652
     3  Na  -0.329044   0.710295
     4  Na   0.048275  -0.196394
     5  Na  -0.067406  -0.080274
     6  Na  -0.237945   0.684514
     7  Na   0.528230  -0.021365
 Sum of Mulliken charges =  -0.00000   1.00000

 Dipole moment (field-independent basis, Debye):
    X=             -0.0183    Y=              0.2319    Z=              0.0594  Tot=              0.2401
 Quadrupole moment (field-independent basis, Debye-Ang):
   XX=            -52.0762   YY=            -63.3039   ZZ=            -76.6441
   XY=             -0.5308   XZ=             -0.2728   YZ=              1.0520

 Normal termination of Gaussian 16 at Tue Dec  5 21:59:08 2023.
