 Gaussian 16, Revision B.01,
 Gaussian 16:  ES64L-G16RevB.01 20-Dec-2017

 -------------------------
 #P B3LYP/6-311+g(d) force
 -------------------------

 -----
 DPGEN
 -----
 Symbolic Z-matrix:
 Charge =  0 Multiplicity = 2

                         Standard orientation:
 ---------------------------------------------------------------------
 Center     Atomic      Atomic             Coordinates (Angstroms)
 Number     Number       Type             X           Y           Z
 ---------------------------------------------------------------------
      1         11           0       -2.792174    2.074491    0.022187
      2         11           0        0.247870   -0.061425   -1.525593
      3         11           0       -0.084555   -2.772858    0.050927
      4         11           0       -2.727534   -1.136122   -0.390723
      5         11           0        3.407569   -0.507270   -0.226051
      6         11           0        1.730026    2.433145   -0.201009
      7         11           0        0.218799   -0.029960    2.270262
 ---------------------------------------------------------------------

 SCF Done:  E(UB3LYP) =  -1136.12898380     A.U. after   21 cycles

 The electronic state is 2-A.
 Alpha  occ. eigenvalues --  -38.44948 -38.43949 -38.43925 -38.43780 -38.43730
 Alpha  occ. eigenvalues --  -38.43509 -38.42762  -2.20752  -2.19795  -2.19763
 Alpha  occ. eigenvalues --   -2.19628  -2.19564  -2.19490  -2.18663  -1.14426
 Alpha  occ. eigenvalues --   -1.14402  -1.14394  -1.13486  -1.13449  -1.13428
 Alpha  occ. eigenvalues --   -1.13412  -1.13407  -1.13381  -1.13333  -1.13320
 Alpha  occ. eigenvalues --   -1.13286  -1.13227  -1.13203  -1.13190  -1.13179
 Alpha  occ. eigenvalues --   -1.13143  -1.13098  -1.12353  -1.12313  -1.12298
 Alpha  occ. eigenvalues --   -0.18415  -0.13481  -0.11839  -0.10863
 Alpha virt. eigenvalues --   -0.06256  -0.05281  -0.04247  -0.03362  -0.02818
 Alpha virt. eigenvalues --   -0.02624  -0.02023  -0.01086  -0.00535  -0.00253
 Alpha virt. eigenvalues --   -0.00066   0.00285   0.00706   0.00793   0.00835

  Beta  occ. eigenvalues --  -38.44942 -38.43920 -38.43834 -38.43785 -38.43723
  Beta  occ. eigenvalues --  -38.43461 -38.42757  -2.20744  -2.19756  -2.19616
  Beta  occ. eigenvalues --   -2.19583  -2.19573  -2.19403  -2.18657  -1.14407
  Beta  occ. eigenvalues --   -1.14399  -1.14384  -1.13475  -1.13402  -1.13374
  Beta  occ. eigenvalues --   -1.13331  -1.13314  -1.13303  -1.13269  -1.13262
  Beta  occ. eigenvalues --   -1.13261  -1.13225  -1.13208  -1.13193  -1.13118
  Beta  occ. eigenvalues --   -1.13081  -1.13034  -1.12350  -1.12304  -1.12271
  Beta  occ. eigenvalues --   -0.17699  -0.13267  -0.11658
  Beta virt. eigenvalues --   -0.06855  -0.06200  -0.05253  -0.04218  -0.02621
  Beta virt. eigenvalues --   -0.01956  -0.01895  -0.01675  -0.01005  -0.00576
  Beta virt. eigenvalues --   -0.00274   0.00099   0.00328   0.00779   0.00814

 Mulliken charges and spin densities:
               1          2
     1  Na  -0.033362  -0.030964
     2  Na  -0.123015   0.178665
     3  Na   0.254809   0.052664
     4  Na   0.222989   0.029813
     5  Na   0.255643   0.011272
     6  Na   0.022984  -0.001318
     7  Na  -0.600047   0.759868
 Sum of Mulliken charges =  -0.00000   1.00000

 Dipole moment (field-independent basis, Debye):
    X=              0.8906    Y=              0.1128    Z=              0.1512  Tot=              0.9104
 Quadrupole moment (field-independent basis, Debye-Ang):
   XX=            -54.1888   YY=            -65.6366   ZZ=            -74.4372
   XY=             -0.8397   XZ=             -0.0096   YZ=              0.2346

 Normal termination of Gaussian 16 at Thu Dec  7 18:40:14 2023.
