 Gaussian 16, Revision B.01,
 Gaussian 16:  ES64L-G16RevB.01 20-Dec-2017

 -------------------------
 #P B3LYP/6-311+g(d) force
 -------------------------

 -----
 DPGEN
 -----
 Symbolic Z-matrix:
 Charge =  0 Multiplicity = 2

                         Standard orientation:
 ---------------------------------------------------------------------
 Center     Atomic      Atomic             Coordinates (Angstroms)
 Number     Number       Type             X           Y           Z
 ---------------------------------------------------------------------
      1         11           0       -3.360006    2.394930    0.445378
      2         11           0       -4.011227   -1.563064    0.173921
      3         11           0        2.874547    1.702815   -1.620102
      4         11           0       -0.266445    3.057807   -0.008171
      5         11           0       -1.256133   -2.982279   -0.380661
      6         11           0        2.148696   -2.354378   -0.576205
      7         11           0        3.870569   -0.255831    1.965840
 ---------------------------------------------------------------------

 SCF Done:  E(UB3LYP) =  -1136.10470902     A.U. after   25 cycles

 The electronic state is 2-A.
 Alpha  occ. eigenvalues --  -38.45308 -38.45250 -38.45221 -38.44585 -38.44247
 Alpha  occ. eigenvalues --  -38.44093 -38.43791  -2.21061  -2.21010  -2.20978
 Alpha  occ. eigenvalues --   -2.20371  -2.20017  -2.19879  -2.19602  -1.14751
 Alpha  occ. eigenvalues --   -1.14738  -1.14700  -1.14689  -1.14688  -1.14648
 Alpha  occ. eigenvalues --   -1.14647  -1.14623  -1.14594  -1.14020  -1.14012
 Alpha  occ. eigenvalues --   -1.13973  -1.13716  -1.13700  -1.13675  -1.13543
 Alpha  occ. eigenvalues --   -1.13526  -1.13498  -1.13261  -1.13259  -1.13251
 Alpha  occ. eigenvalues --   -0.15736  -0.13644  -0.12993  -0.10543
 Alpha virt. eigenvalues --   -0.07870  -0.06170  -0.03766  -0.03329  -0.03160
 Alpha virt. eigenvalues --   -0.02700  -0.02398  -0.01836  -0.01570  -0.00848
 Alpha virt. eigenvalues --   -0.00651  -0.00298   0.00146   0.00203   0.00358

  Beta  occ. eigenvalues --  -38.45302 -38.45271 -38.45158 -38.44482 -38.44254
  Beta  occ. eigenvalues --  -38.44076 -38.43771  -2.21056  -2.21049  -2.20864
  Beta  occ. eigenvalues --   -2.20179  -2.20032  -2.19846  -2.19562  -1.14749
  Beta  occ. eigenvalues --   -1.14730  -1.14727  -1.14715  -1.14668  -1.14662
  Beta  occ. eigenvalues --   -1.14568  -1.14545  -1.14509  -1.13889  -1.13876
  Beta  occ. eigenvalues --   -1.13848  -1.13726  -1.13711  -1.13672  -1.13519
  Beta  occ. eigenvalues --   -1.13506  -1.13481  -1.13238  -1.13232  -1.13226
  Beta  occ. eigenvalues --   -0.15300  -0.13239  -0.12743
  Beta virt. eigenvalues --   -0.07680  -0.07019  -0.05655  -0.03516  -0.03140
  Beta virt. eigenvalues --   -0.03001  -0.02288  -0.02090  -0.01671  -0.01139
  Beta virt. eigenvalues --   -0.00772  -0.00441   0.00046   0.00235   0.00406

 Mulliken charges and spin densities:
               1          2
     1  Na   0.478179   0.136693
     2  Na  -0.499630  -0.007612
     3  Na   0.451659   0.265608
     4  Na  -0.723206  -0.013685
     5  Na   0.611602   0.040624
     6  Na  -0.516420   0.076591
     7  Na   0.197815   0.501780
 Sum of Mulliken charges =  -0.00000   1.00000

 Dipole moment (field-independent basis, Debye):
    X=              0.0188    Y=             -0.1824    Z=             -0.1948  Tot=              0.2675
 Quadrupole moment (field-independent basis, Debye-Ang):
   XX=            -58.7926   YY=            -71.0680   ZZ=            -71.6478
   XY=              3.2231   XZ=             -4.4283   YZ=              2.5389

 Normal termination of Gaussian 16 at Sun Dec  3 21:03:59 2023.
