 Gaussian 16, Revision B.01,
 Gaussian 16:  ES64L-G16RevB.01 20-Dec-2017

 -------------------------
 #P B3LYP/6-311+g(d) force
 -------------------------

 -----
 DPGEN
 -----
 Symbolic Z-matrix:
 Charge =  0 Multiplicity = 2

                         Standard orientation:
 ---------------------------------------------------------------------
 Center     Atomic      Atomic             Coordinates (Angstroms)
 Number     Number       Type             X           Y           Z
 ---------------------------------------------------------------------
      1         11           0        2.746737    1.416579    0.772283
      2         11           0        0.697601    3.429490   -0.683960
      3         11           0        4.067359   -1.975610   -0.295054
      4         11           0        0.852839   -1.724631   -0.155334
      5         11           0       -4.650058    0.450458   -0.027244
      6         11           0       -1.176885    0.931057    0.403950
      7         11           0       -2.537594   -2.527342   -0.014641
 ---------------------------------------------------------------------

 SCF Done:  E(UB3LYP) =  -1136.12685544     A.U. after   23 cycles

 The electronic state is 2-A.
 Alpha  occ. eigenvalues --  -38.44831 -38.44518 -38.44135 -38.43966 -38.43708
 Alpha  occ. eigenvalues --  -38.43340 -38.43093  -2.20648  -2.20323  -2.20003
 Alpha  occ. eigenvalues --   -2.19798  -2.19534  -2.19162  -2.18984  -1.14356
 Alpha  occ. eigenvalues --   -1.14324  -1.14250  -1.14003  -1.13980  -1.13953
 Alpha  occ. eigenvalues --   -1.13722  -1.13719  -1.13600  -1.13465  -1.13451
 Alpha  occ. eigenvalues --   -1.13426  -1.13180  -1.13175  -1.13137  -1.12842
 Alpha  occ. eigenvalues --   -1.12813  -1.12788  -1.12684  -1.12664  -1.12575
 Alpha  occ. eigenvalues --   -0.17190  -0.14024  -0.12663  -0.10413
 Alpha virt. eigenvalues --   -0.06361  -0.05727  -0.04176  -0.03690  -0.02543
 Alpha virt. eigenvalues --   -0.02438  -0.02034  -0.01587  -0.01012  -0.00635
 Alpha virt. eigenvalues --   -0.00118  -0.00059   0.00527   0.00557   0.00563

  Beta  occ. eigenvalues --  -38.44824 -38.44496 -38.44124 -38.43970 -38.43610
  Beta  occ. eigenvalues --  -38.43303 -38.43062  -2.20636  -2.20288  -2.19987
  Beta  occ. eigenvalues --   -2.19804  -2.19351  -2.19091  -2.18932  -1.14350
  Beta  occ. eigenvalues --   -1.14316  -1.14232  -1.13985  -1.13944  -1.13907
  Beta  occ. eigenvalues --   -1.13713  -1.13677  -1.13595  -1.13470  -1.13455
  Beta  occ. eigenvalues --   -1.13428  -1.13054  -1.13049  -1.13021  -1.12799
  Beta  occ. eigenvalues --   -1.12765  -1.12736  -1.12650  -1.12634  -1.12503
  Beta  occ. eigenvalues --   -0.16731  -0.13405  -0.12313
  Beta virt. eigenvalues --   -0.06814  -0.06240  -0.05629  -0.03930  -0.03041
  Beta virt. eigenvalues --   -0.02312  -0.02177  -0.01934  -0.01164  -0.00755
  Beta virt. eigenvalues --   -0.00373   0.00050   0.00305   0.00568   0.00682

 Mulliken charges and spin densities:
               1          2
     1  Na   0.374119   0.137095
     2  Na   0.830333   0.023455
     3  Na   2.105151   0.482400
     4  Na  -1.223633   0.406889
     5  Na   0.467248   0.498166
     6  Na  -2.213199  -0.159588
     7  Na  -0.340020  -0.388417
 Sum of Mulliken charges =  -0.00000   1.00000

 Dipole moment (field-independent basis, Debye):
    X=              0.3118    Y=              0.3190    Z=             -0.2315  Tot=              0.5026
 Quadrupole moment (field-independent basis, Debye-Ang):
   XX=            -66.9937   YY=            -61.1540   ZZ=            -70.0306
   XY=              7.0912   XZ=              1.2119   YZ=             -0.6843

 Normal termination of Gaussian 16 at Sun Dec  3 16:36:06 2023.
