 Gaussian 16, Revision B.01,
 Gaussian 16:  ES64L-G16RevB.01 20-Dec-2017

 -------------------------
 #P B3LYP/6-311+g(d) force
 -------------------------

 -----
 DPGEN
 -----
 Symbolic Z-matrix:
 Charge =  0 Multiplicity = 2

                         Standard orientation:
 ---------------------------------------------------------------------
 Center     Atomic      Atomic             Coordinates (Angstroms)
 Number     Number       Type             X           Y           Z
 ---------------------------------------------------------------------
      1         11           0       -0.263995   -0.186548    2.100015
      2         11           0        0.836717    3.006407    0.444498
      3         11           0        2.931483    0.672977   -1.040071
      4         11           0       -3.820472    0.313331    0.185862
      5         11           0       -1.687065   -2.229869   -0.678053
      6         11           0        3.008912   -2.164043    0.443315
      7         11           0       -1.005581    0.587744   -1.455565
 ---------------------------------------------------------------------

 SCF Done:  E(UB3LYP) =  -1136.11886921     A.U. after   23 cycles

 The electronic state is 2-A.
 Alpha  occ. eigenvalues --  -38.46013 -38.44611 -38.43995 -38.43967 -38.43905
 Alpha  occ. eigenvalues --  -38.43517 -38.42806  -2.21811  -2.20468  -2.19840
 Alpha  occ. eigenvalues --   -2.19823  -2.19802  -2.19292  -2.18616  -1.15492
 Alpha  occ. eigenvalues --   -1.15459  -1.15446  -1.14229  -1.14113  -1.14063
 Alpha  occ. eigenvalues --   -1.13540  -1.13505  -1.13501  -1.13493  -1.13464
 Alpha  occ. eigenvalues --   -1.13451  -1.13430  -1.13425  -1.13414  -1.12972
 Alpha  occ. eigenvalues --   -1.12956  -1.12930  -1.12285  -1.12274  -1.12269
 Alpha  occ. eigenvalues --   -0.17948  -0.13706  -0.11292  -0.10754
 Alpha virt. eigenvalues --   -0.06999  -0.05284  -0.04479  -0.03343  -0.02778
 Alpha virt. eigenvalues --   -0.02640  -0.02379  -0.01082  -0.00684  -0.00263
 Alpha virt. eigenvalues --   -0.00193   0.00155   0.00363   0.00624   0.00685

  Beta  occ. eigenvalues --  -38.46012 -38.44593 -38.43976 -38.43865 -38.43859
  Beta  occ. eigenvalues --  -38.43525 -38.42807  -2.21812  -2.20438  -2.19788
  Beta  occ. eigenvalues --   -2.19767  -2.19603  -2.19309  -2.18621  -1.15490
  Beta  occ. eigenvalues --   -1.15451  -1.15440  -1.14203  -1.14075  -1.14040
  Beta  occ. eigenvalues --   -1.13492  -1.13475  -1.13470  -1.13439  -1.13430
  Beta  occ. eigenvalues --   -1.13373  -1.13333  -1.13288  -1.13270  -1.12983
  Beta  occ. eigenvalues --   -1.12961  -1.12939  -1.12289  -1.12277  -1.12258
  Beta  occ. eigenvalues --   -0.17224  -0.13520  -0.11168
  Beta virt. eigenvalues --   -0.06894  -0.06845  -0.05184  -0.04188  -0.02908
  Beta virt. eigenvalues --   -0.02419  -0.01956  -0.01699  -0.00988  -0.00548
  Beta virt. eigenvalues --   -0.00257  -0.00081   0.00219   0.00477   0.00717

 Mulliken charges and spin densities:
               1          2
     1  Na  -0.180981   0.759710
     2  Na  -0.093164  -0.027644
     3  Na  -0.019708   0.027142
     4  Na   0.175739   0.047001
     5  Na  -0.160642   0.008971
     6  Na  -0.048103  -0.066022
     7  Na   0.326858   0.250842
 Sum of Mulliken charges =  -0.00000   1.00000

 Dipole moment (field-independent basis, Debye):
    X=             -2.1279    Y=             -0.0296    Z=              0.1193  Tot=              2.1315
 Quadrupole moment (field-independent basis, Debye-Ang):
   XX=            -51.6198   YY=            -69.2630   ZZ=            -73.6353
   XY=              0.2502   XZ=             -2.0674   YZ=              0.9487

 Normal termination of Gaussian 16 at Thu Dec  7 15:29:31 2023.
