 Gaussian 16, Revision B.01,
 Gaussian 16:  ES64L-G16RevB.01 20-Dec-2017

 -------------------------
 #P B3LYP/6-311+g(d) force
 -------------------------

 -----
 DPGEN
 -----
 Symbolic Z-matrix:
 Charge =  0 Multiplicity = 2

                         Standard orientation:
 ---------------------------------------------------------------------
 Center     Atomic      Atomic             Coordinates (Angstroms)
 Number     Number       Type             X           Y           Z
 ---------------------------------------------------------------------
      1         11           0       -3.554405   -0.781255   -0.345705
      2         11           0       -1.394113    3.023722    0.292690
      3         11           0        2.816426   -1.491425   -0.109107
      4         11           0        2.548499    1.827706   -0.394136
      5         11           0       -0.180285    0.173740   -1.677995
      6         11           0       -0.355007   -2.826899    0.162746
      7         11           0        0.118886    0.074411    2.071507
 ---------------------------------------------------------------------

 SCF Done:  E(UB3LYP) =  -1136.13290030     A.U. after   20 cycles

 The electronic state is 2-A.
 Alpha  occ. eigenvalues --  -38.44684 -38.44047 -38.43914 -38.43744 -38.43731
 Alpha  occ. eigenvalues --  -38.43639 -38.43315  -2.20430  -2.19810  -2.19738
 Alpha  occ. eigenvalues --   -2.19590  -2.19582  -2.19527  -2.19156  -1.14107
 Alpha  occ. eigenvalues --   -1.14078  -1.14068  -1.13486  -1.13468  -1.13451
 Alpha  occ. eigenvalues --   -1.13425  -1.13410  -1.13370  -1.13266  -1.13254
 Alpha  occ. eigenvalues --   -1.13240  -1.13228  -1.13221  -1.13217  -1.13196
 Alpha  occ. eigenvalues --   -1.13168  -1.13142  -1.12839  -1.12833  -1.12774
 Alpha  occ. eigenvalues --   -0.18015  -0.12735  -0.12239  -0.10605
 Alpha virt. eigenvalues --   -0.06162  -0.05426  -0.04631  -0.03029  -0.02877
 Alpha virt. eigenvalues --   -0.02527  -0.01927  -0.01366  -0.00703  -0.00448
 Alpha virt. eigenvalues --   -0.00072   0.00296   0.00708   0.00730   0.00825

  Beta  occ. eigenvalues --  -38.44676 -38.44042 -38.43902 -38.43741 -38.43634
  Beta  occ. eigenvalues --  -38.43587 -38.43309  -2.20417  -2.19802  -2.19719
  Beta  occ. eigenvalues --   -2.19581  -2.19432  -2.19411  -2.19148  -1.14089
  Beta  occ. eigenvalues --   -1.14071  -1.14060  -1.13466  -1.13463  -1.13447
  Beta  occ. eigenvalues --   -1.13411  -1.13389  -1.13352  -1.13251  -1.13239
  Beta  occ. eigenvalues --   -1.13208  -1.13164  -1.13130  -1.13104  -1.13102
  Beta  occ. eigenvalues --   -1.13068  -1.13065  -1.12836  -1.12808  -1.12765
  Beta  occ. eigenvalues --   -0.17317  -0.12479  -0.12015
  Beta virt. eigenvalues --   -0.06836  -0.06032  -0.05344  -0.04585  -0.02372
  Beta virt. eigenvalues --   -0.02164  -0.01799  -0.01532  -0.01265  -0.00733
  Beta virt. eigenvalues --   -0.00480   0.00082   0.00342   0.00735   0.00781

 Mulliken charges and spin densities:
               1          2
     1  Na   0.022882  -0.037261
     2  Na  -0.063055  -0.066485
     3  Na   0.080199  -0.012940
     4  Na   0.244843   0.016385
     5  Na  -0.126767   0.441724
     6  Na   0.098707  -0.012923
     7  Na  -0.256810   0.671501
 Sum of Mulliken charges =  -0.00000   1.00000

 Dipole moment (field-independent basis, Debye):
    X=             -0.3229    Y=              0.1959    Z=              0.0505  Tot=              0.3811
 Quadrupole moment (field-independent basis, Debye-Ang):
   XX=            -55.0447   YY=            -62.9433   ZZ=            -75.0487
   XY=             -0.5177   XZ=             -0.4448   YZ=              0.2008

 Normal termination of Gaussian 16 at Fri Dec  8 06:27:32 2023.
