 Gaussian 16, Revision B.01,
 Gaussian 16:  ES64L-G16RevB.01 20-Dec-2017

 -------------------------
 #P B3LYP/6-311+g(d) force
 -------------------------

 -----
 DPGEN
 -----
 Symbolic Z-matrix:
 Charge =  0 Multiplicity = 2

                         Standard orientation:
 ---------------------------------------------------------------------
 Center     Atomic      Atomic             Coordinates (Angstroms)
 Number     Number       Type             X           Y           Z
 ---------------------------------------------------------------------
      1         11           0       -0.661495   -1.555323    1.108824
      2         11           0       -2.871030   -3.245211   -0.490721
      3         11           0       -3.050488    0.200211   -0.323475
      4         11           0        0.112928    1.491837   -0.930793
      5         11           0        2.794639   -0.237209    0.532594
      6         11           0       -2.185106    3.585582    0.453963
      7         11           0        5.860553   -0.239888   -0.350392
 ---------------------------------------------------------------------

 SCF Done:  E(UB3LYP) =  -1136.12420292     A.U. after   19 cycles

 The electronic state is 2-A.
 Alpha  occ. eigenvalues --  -38.44392 -38.44294 -38.44211 -38.44178 -38.44160
 Alpha  occ. eigenvalues --  -38.43733 -38.42576  -2.20244  -2.20171  -2.20062
 Alpha  occ. eigenvalues --   -2.20011  -2.19990  -2.19555  -2.18418  -1.13957
 Alpha  occ. eigenvalues --   -1.13925  -1.13896  -1.13879  -1.13847  -1.13766
 Alpha  occ. eigenvalues --   -1.13759  -1.13721  -1.13697  -1.13675  -1.13671
 Alpha  occ. eigenvalues --   -1.13643  -1.13633  -1.13621  -1.13578  -1.13194
 Alpha  occ. eigenvalues --   -1.13182  -1.13180  -1.12103  -1.12095  -1.12077
 Alpha  occ. eigenvalues --   -0.17367  -0.13538  -0.12865  -0.10646
 Alpha virt. eigenvalues --   -0.06155  -0.05817  -0.04252  -0.03702  -0.02470
 Alpha virt. eigenvalues --   -0.02444  -0.01967  -0.01436  -0.01421  -0.00537
 Alpha virt. eigenvalues --   -0.00419   0.00038   0.00454   0.00523   0.00591

  Beta  occ. eigenvalues --  -38.44372 -38.44276 -38.44198 -38.44147 -38.44145
  Beta  occ. eigenvalues --  -38.43630 -38.42570  -2.20209  -2.20138  -2.20007
  Beta  occ. eigenvalues --   -2.19985  -2.19963  -2.19364  -2.18418  -1.13936
  Beta  occ. eigenvalues --   -1.13900  -1.13872  -1.13851  -1.13812  -1.13737
  Beta  occ. eigenvalues --   -1.13728  -1.13690  -1.13658  -1.13656  -1.13650
  Beta  occ. eigenvalues --   -1.13624  -1.13611  -1.13597  -1.13543  -1.13070
  Beta  occ. eigenvalues --   -1.13051  -1.13050  -1.12114  -1.12104  -1.12000
  Beta  occ. eigenvalues --   -0.16872  -0.12912  -0.12440
  Beta virt. eigenvalues --   -0.07214  -0.05914  -0.05661  -0.03676  -0.03495
  Beta virt. eigenvalues --   -0.02333  -0.02271  -0.01806  -0.01049  -0.00963
  Beta virt. eigenvalues --   -0.00237  -0.00162   0.00209   0.00539   0.00581

 Mulliken charges and spin densities:
               1          2
     1  Na  -0.303809  -0.192384
     2  Na   0.682249   0.091368
     3  Na  -0.138171   0.416365
     4  Na  -0.492040  -0.207429
     5  Na   0.109679   0.319644
     6  Na   0.366433   0.097806
     7  Na  -0.224342   0.474630
 Sum of Mulliken charges =  -0.00000   1.00000

 Dipole moment (field-independent basis, Debye):
    X=             -2.0437    Y=              0.0664    Z=             -0.1272  Tot=              2.0487
 Quadrupole moment (field-independent basis, Debye-Ang):
   XX=            -72.8742   YY=            -59.7596   ZZ=            -66.9917
   XY=              2.0329   XZ=             -1.5302   YZ=              2.5281

 Normal termination of Gaussian 16 at Wed Nov 29 04:01:33 2023.
