 Gaussian 16, Revision B.01,
 Gaussian 16:  ES64L-G16RevB.01 20-Dec-2017

 -------------------------
 #P B3LYP/6-311+g(d) force
 -------------------------

 -----
 DPGEN
 -----
 Symbolic Z-matrix:
 Charge =  0 Multiplicity = 2

                         Standard orientation:
 ---------------------------------------------------------------------
 Center     Atomic      Atomic             Coordinates (Angstroms)
 Number     Number       Type             X           Y           Z
 ---------------------------------------------------------------------
      1         11           0       -3.009646   -1.155959   -0.065995
      2         11           0       -0.286715   -0.156723    2.096715
      3         11           0        1.661047    2.457564    0.120027
      4         11           0        0.124136    0.245979   -1.528025
      5         11           0        0.070317   -2.939834   -0.334979
      6         11           0        3.213654   -0.939326   -0.018792
      7         11           0       -1.772793    2.488298   -0.268951
 ---------------------------------------------------------------------

 SCF Done:  E(UB3LYP) =  -1136.13794121     A.U. after   19 cycles

 The electronic state is 2-A.
 Alpha  occ. eigenvalues --  -38.43978 -38.43953 -38.43713 -38.43661 -38.43652
 Alpha  occ. eigenvalues --  -38.43534 -38.43053  -2.19763  -2.19759  -2.19569
 Alpha  occ. eigenvalues --   -2.19502  -2.19491  -2.19400  -2.19044  -1.13437
 Alpha  occ. eigenvalues --   -1.13433  -1.13419  -1.13416  -1.13413  -1.13407
 Alpha  occ. eigenvalues --   -1.13290  -1.13233  -1.13211  -1.13190  -1.13184
 Alpha  occ. eigenvalues --   -1.13160  -1.13151  -1.13118  -1.13109  -1.13065
 Alpha  occ. eigenvalues --   -1.13024  -1.13015  -1.12729  -1.12681  -1.12661
 Alpha  occ. eigenvalues --   -0.18415  -0.12777  -0.12583  -0.10515
 Alpha virt. eigenvalues --   -0.05573  -0.05328  -0.04951  -0.03039  -0.02835
 Alpha virt. eigenvalues --   -0.02443  -0.01547  -0.01290  -0.00528  -0.00503
 Alpha virt. eigenvalues --   -0.00011   0.00341   0.00788   0.00847   0.00850

  Beta  occ. eigenvalues --  -38.43979 -38.43950 -38.43707 -38.43652 -38.43645
  Beta  occ. eigenvalues --  -38.43435 -38.42997  -2.19767  -2.19758  -2.19563
  Beta  occ. eigenvalues --   -2.19491  -2.19478  -2.19217  -2.18943  -1.13429
  Beta  occ. eigenvalues --   -1.13420  -1.13418  -1.13416  -1.13411  -1.13407
  Beta  occ. eigenvalues --   -1.13282  -1.13213  -1.13198  -1.13179  -1.13170
  Beta  occ. eigenvalues --   -1.13134  -1.13129  -1.13115  -1.13104  -1.12943
  Beta  occ. eigenvalues --   -1.12896  -1.12883  -1.12656  -1.12608  -1.12587
  Beta  occ. eigenvalues --   -0.17702  -0.12555  -0.12374
  Beta virt. eigenvalues --   -0.06598  -0.05554  -0.05331  -0.04871  -0.02252
  Beta virt. eigenvalues --   -0.02124  -0.01473  -0.01377  -0.01210  -0.00569
  Beta virt. eigenvalues --   -0.00547   0.00142   0.00374   0.00834   0.00840

 Mulliken charges and spin densities:
               1          2
     1  Na   0.165933  -0.049913
     2  Na  -0.513107   0.813398
     3  Na   0.182403  -0.000781
     4  Na  -0.210762   0.382231
     5  Na   0.089030  -0.059597
     6  Na   0.019582  -0.056516
     7  Na   0.266921  -0.028822
 Sum of Mulliken charges =  -0.00000   1.00000

 Dipole moment (field-independent basis, Debye):
    X=             -0.0302    Y=             -0.0265    Z=              0.1334  Tot=              0.1393
 Quadrupole moment (field-independent basis, Debye-Ang):
   XX=            -56.0705   YY=            -60.6359   ZZ=            -75.8079
   XY=             -0.1365   XZ=              1.0522   YZ=              0.8463

 Normal termination of Gaussian 16 at Fri Dec  8 03:52:41 2023.
