 Gaussian 16, Revision B.01,
 Gaussian 16:  ES64L-G16RevB.01 20-Dec-2017

 -------------------------
 #P B3LYP/6-311+g(d) force
 -------------------------

 -----
 DPGEN
 -----
 Symbolic Z-matrix:
 Charge =  0 Multiplicity = 2

                         Standard orientation:
 ---------------------------------------------------------------------
 Center     Atomic      Atomic             Coordinates (Angstroms)
 Number     Number       Type             X           Y           Z
 ---------------------------------------------------------------------
      1         11           0       -2.952123    2.777577   -0.110946
      2         11           0       -4.810024   -0.400557   -0.621959
      3         11           0       -1.960218   -1.806028    0.823689
      4         11           0        0.595890   -2.388952   -0.813331
      5         11           0       -0.183067    1.070844    0.421173
      6         11           0        3.577798   -0.032572    1.332530
      7         11           0        5.731743    0.779689   -1.031156
 ---------------------------------------------------------------------

 SCF Done:  E(UB3LYP) =  -1136.11354688     A.U. after   21 cycles

 The electronic state is 2-A.
 Alpha  occ. eigenvalues --  -38.44459 -38.44427 -38.44334 -38.44304 -38.44177
 Alpha  occ. eigenvalues --  -38.44100 -38.43683  -2.20285  -2.20257  -2.20101
 Alpha  occ. eigenvalues --   -2.20080  -2.19993  -2.19974  -2.19483  -1.13977
 Alpha  occ. eigenvalues --   -1.13945  -1.13917  -1.13911  -1.13886  -1.13861
 Alpha  occ. eigenvalues --   -1.13794  -1.13784  -1.13756  -1.13747  -1.13733
 Alpha  occ. eigenvalues --   -1.13731  -1.13670  -1.13663  -1.13654  -1.13623
 Alpha  occ. eigenvalues --   -1.13619  -1.13536  -1.13159  -1.13149  -1.13105
 Alpha  occ. eigenvalues --   -0.16814  -0.13664  -0.11883  -0.11272
 Alpha virt. eigenvalues --   -0.06298  -0.05861  -0.04596  -0.03394  -0.03077
 Alpha virt. eigenvalues --   -0.02440  -0.01946  -0.01740  -0.00856  -0.00658
 Alpha virt. eigenvalues --   -0.00496  -0.00224   0.00249   0.00391   0.00534

  Beta  occ. eigenvalues --  -38.44384 -38.44356 -38.44345 -38.44269 -38.44179
  Beta  occ. eigenvalues --  -38.44077 -38.43662  -2.20155  -2.20124  -2.20119
  Beta  occ. eigenvalues --   -2.20014  -2.19997  -2.19936  -2.19448  -1.13891
  Beta  occ. eigenvalues --   -1.13866  -1.13821  -1.13814  -1.13801  -1.13796
  Beta  occ. eigenvalues --   -1.13780  -1.13772  -1.13756  -1.13739  -1.13689
  Beta  occ. eigenvalues --   -1.13687  -1.13664  -1.13640  -1.13626  -1.13606
  Beta  occ. eigenvalues --   -1.13600  -1.13507  -1.13131  -1.13119  -1.13076
  Beta  occ. eigenvalues --   -0.16189  -0.13253  -0.11552
  Beta virt. eigenvalues --   -0.07723  -0.05906  -0.05618  -0.04298  -0.03043
  Beta virt. eigenvalues --   -0.02734  -0.02116  -0.01618  -0.01531  -0.00773
  Beta virt. eigenvalues --   -0.00430  -0.00194  -0.00043   0.00328   0.00489

 Mulliken charges and spin densities:
               1          2
     1  Na   0.893865  -0.126221
     2  Na  -0.070731   0.218907
     3  Na   0.074728   0.424852
     4  Na   0.338393  -0.090895
     5  Na  -1.411869   0.415768
     6  Na  -0.021522  -0.010103
     7  Na   0.197137   0.167691
 Sum of Mulliken charges =  -0.00000   1.00000

 Dipole moment (field-independent basis, Debye):
    X=              0.1116    Y=             -0.5428    Z=             -0.6313  Tot=              0.8400
 Quadrupole moment (field-independent basis, Debye-Ang):
   XX=            -66.3412   YY=            -70.4821   ZZ=            -64.1303
   XY=             -1.1776   XZ=             -3.5253   YZ=             -0.4520

 Normal termination of Gaussian 16 at Tue Nov 28 20:03:56 2023.
