 Gaussian 16, Revision B.01,
 Gaussian 16:  ES64L-G16RevB.01 20-Dec-2017

 -------------------------
 #P B3LYP/6-311+g(d) force
 -------------------------

 -----
 DPGEN
 -----
 Symbolic Z-matrix:
 Charge =  0 Multiplicity = 2

                         Standard orientation:
 ---------------------------------------------------------------------
 Center     Atomic      Atomic             Coordinates (Angstroms)
 Number     Number       Type             X           Y           Z
 ---------------------------------------------------------------------
      1         11           0        0.379461    0.417793    1.740649
      2         11           0        3.561577   -0.273459   -0.004886
      3         11           0       -2.080744   -2.588170    0.384876
      4         11           0       -2.122139    0.195770   -1.190765
      5         11           0        0.719515   -1.922572   -0.241501
      6         11           0       -1.433906    2.839113    0.632108
      7         11           0        0.976236    1.331524   -1.320481
 ---------------------------------------------------------------------

 SCF Done:  E(UB3LYP) =  -1136.13136628     A.U. after   19 cycles

 The electronic state is 2-A.
 Alpha  occ. eigenvalues --  -38.44051 -38.43546 -38.43466 -38.43443 -38.43439
 Alpha  occ. eigenvalues --  -38.43341 -38.43198  -2.19898  -2.19522  -2.19379
 Alpha  occ. eigenvalues --   -2.19350  -2.19319  -2.19313  -2.19204  -1.13570
 Alpha  occ. eigenvalues --   -1.13561  -1.13539  -1.13264  -1.13200  -1.13141
 Alpha  occ. eigenvalues --   -1.13121  -1.13104  -1.13079  -1.13054  -1.13000
 Alpha  occ. eigenvalues --   -1.12980  -1.12976  -1.12968  -1.12959  -1.12954
 Alpha  occ. eigenvalues --   -1.12909  -1.12895  -1.12878  -1.12851  -1.12752
 Alpha  occ. eigenvalues --   -0.19130  -0.13253  -0.12786  -0.10824
 Alpha virt. eigenvalues --   -0.05728  -0.04738  -0.04652  -0.03257  -0.02965
 Alpha virt. eigenvalues --   -0.02333  -0.01736  -0.01128  -0.00270   0.00009
 Alpha virt. eigenvalues --    0.00252   0.00404   0.00798   0.00867   0.00905

  Beta  occ. eigenvalues --  -38.44050 -38.43466 -38.43466 -38.43425 -38.43407
  Beta  occ. eigenvalues --  -38.43294 -38.43184  -2.19898  -2.19376  -2.19353
  Beta  occ. eigenvalues --   -2.19314  -2.19297  -2.19229  -2.19185  -1.13572
  Beta  occ. eigenvalues --   -1.13553  -1.13532  -1.13176  -1.13136  -1.13106
  Beta  occ. eigenvalues --   -1.13063  -1.13046  -1.13031  -1.13006  -1.12966
  Beta  occ. eigenvalues --   -1.12954  -1.12946  -1.12932  -1.12923  -1.12890
  Beta  occ. eigenvalues --   -1.12874  -1.12869  -1.12828  -1.12797  -1.12746
  Beta  occ. eigenvalues --   -0.18394  -0.13053  -0.12545
  Beta virt. eigenvalues --   -0.06864  -0.05606  -0.04659  -0.04574  -0.02560
  Beta virt. eigenvalues --   -0.02330  -0.01686  -0.01361  -0.01023  -0.00053
  Beta virt. eigenvalues --    0.00033   0.00293   0.00478   0.00825   0.00896

 Mulliken charges and spin densities:
               1          2
     1  Na  -0.275619   0.539504
     2  Na   0.869668   0.023088
     3  Na   0.279058  -0.110931
     4  Na   0.090395   0.209304
     5  Na  -0.529410   0.148779
     6  Na  -0.068505  -0.119179
     7  Na  -0.365587   0.309435
 Sum of Mulliken charges =  -0.00000   1.00000

 Dipole moment (field-independent basis, Debye):
    X=              0.3553    Y=              0.2154    Z=              0.1542  Tot=              0.4432
 Quadrupole moment (field-independent basis, Debye-Ang):
   XX=            -54.9806   YY=            -64.6635   ZZ=            -72.9180
   XY=             -0.5871   XZ=             -0.5076   YZ=             -0.5167

 Normal termination of Gaussian 16 at Tue Dec  5 10:09:48 2023.
