 Gaussian 16, Revision B.01,
 Gaussian 16:  ES64L-G16RevB.01 20-Dec-2017

 -------------------------
 #P B3LYP/6-311+g(d) force
 -------------------------

 -----
 DPGEN
 -----
 Symbolic Z-matrix:
 Charge =  0 Multiplicity = 2

                         Standard orientation:
 ---------------------------------------------------------------------
 Center     Atomic      Atomic             Coordinates (Angstroms)
 Number     Number       Type             X           Y           Z
 ---------------------------------------------------------------------
      1         11           0       -3.534155   -0.271497   -0.536367
      2         11           0        2.442497   -1.998256   -0.852983
      3         11           0       -1.026293   -1.631926    1.101098
      4         11           0       -0.030907    0.030598   -1.924327
      5         11           0        1.374908   -0.088244    1.984047
      6         11           0        1.935770    2.249712   -0.388687
      7         11           0       -1.161820    1.709614    0.617218
 ---------------------------------------------------------------------

 SCF Done:  E(UB3LYP) =  -1136.13074173     A.U. after   22 cycles

 The electronic state is 2-A.
 Alpha  occ. eigenvalues --  -38.44156 -38.44113 -38.43912 -38.43706 -38.43270
 Alpha  occ. eigenvalues --  -38.42974 -38.42953  -2.20095  -2.19958  -2.19867
 Alpha  occ. eigenvalues --   -2.19521  -2.19215  -2.18950  -2.18828  -1.13785
 Alpha  occ. eigenvalues --   -1.13727  -1.13721  -1.13627  -1.13623  -1.13616
 Alpha  occ. eigenvalues --   -1.13601  -1.13487  -1.13459  -1.13202  -1.13170
 Alpha  occ. eigenvalues --   -1.13141  -1.12938  -1.12868  -1.12798  -1.12663
 Alpha  occ. eigenvalues --   -1.12627  -1.12565  -1.12500  -1.12481  -1.12446
 Alpha  occ. eigenvalues --   -0.19118  -0.13317  -0.12046  -0.11605
 Alpha virt. eigenvalues --   -0.05756  -0.04704  -0.04152  -0.03406  -0.03102
 Alpha virt. eigenvalues --   -0.02986  -0.01692  -0.00845  -0.00513   0.00288
 Alpha virt. eigenvalues --    0.00351   0.00400   0.00621   0.00872   0.00908

  Beta  occ. eigenvalues --  -38.44111 -38.44081 -38.43840 -38.43683 -38.43239
  Beta  occ. eigenvalues --  -38.42956 -38.42949  -2.19960  -2.19953  -2.19737
  Beta  occ. eigenvalues --   -2.19480  -2.19164  -2.18922  -2.18825  -1.13698
  Beta  occ. eigenvalues --   -1.13627  -1.13623  -1.13620  -1.13615  -1.13587
  Beta  occ. eigenvalues --   -1.13523  -1.13399  -1.13367  -1.13157  -1.13145
  Beta  occ. eigenvalues --   -1.13115  -1.12892  -1.12807  -1.12772  -1.12650
  Beta  occ. eigenvalues --   -1.12571  -1.12553  -1.12482  -1.12478  -1.12439
  Beta  occ. eigenvalues --   -0.18295  -0.13114  -0.11377
  Beta virt. eigenvalues --   -0.07935  -0.05605  -0.04615  -0.03700  -0.03004
  Beta virt. eigenvalues --   -0.02357  -0.02169  -0.01603  -0.00760  -0.00219
  Beta virt. eigenvalues --    0.00306   0.00377   0.00444   0.00765   0.00885

 Mulliken charges and spin densities:
               1          2
     1  Na   0.449512  -0.060568
     2  Na  -0.215760  -0.081447
     3  Na  -0.196220   0.086082
     4  Na  -0.317064   0.708448
     5  Na   0.298555   0.294999
     6  Na   0.102543  -0.136210
     7  Na  -0.121566   0.188696
 Sum of Mulliken charges =  -0.00000   1.00000

 Dipole moment (field-independent basis, Debye):
    X=             -0.2561    Y=             -0.1150    Z=             -0.3575  Tot=              0.4545
 Quadrupole moment (field-independent basis, Debye-Ang):
   XX=            -54.2774   YY=            -73.2570   ZZ=            -66.7373
   XY=              0.7269   XZ=              0.8908   YZ=              1.7901

 Normal termination of Gaussian 16 at Wed Dec  6 01:02:08 2023.
