 Gaussian 16, Revision B.01,
 Gaussian 16:  ES64L-G16RevB.01 20-Dec-2017

 -------------------------
 #P B3LYP/6-311+g(d) force
 -------------------------

 -----
 DPGEN
 -----
 Symbolic Z-matrix:
 Charge =  0 Multiplicity = 2

                         Standard orientation:
 ---------------------------------------------------------------------
 Center     Atomic      Atomic             Coordinates (Angstroms)
 Number     Number       Type             X           Y           Z
 ---------------------------------------------------------------------
      1         11           0        0.683517    2.655733    0.071622
      2         11           0        2.079342   -0.409486    2.205326
      3         11           0       -3.812496   -1.796239    0.126014
      4         11           0       -0.588390   -0.341479   -0.345147
      5         11           0        3.186285    0.739956   -1.130419
      6         11           0        1.760629   -2.599480   -0.754322
      7         11           0       -3.308888    1.750995   -0.173074
 ---------------------------------------------------------------------

 SCF Done:  E(UB3LYP) =  -1136.11999708     A.U. after   26 cycles

 The electronic state is 2-A.
 Alpha  occ. eigenvalues --  -38.45212 -38.45089 -38.44469 -38.43736 -38.43626
 Alpha  occ. eigenvalues --  -38.43618 -38.42949  -2.20966  -2.20864  -2.20306
 Alpha  occ. eigenvalues --   -2.19665  -2.19464  -2.19449  -2.18782  -1.14642
 Alpha  occ. eigenvalues --   -1.14632  -1.14606  -1.14550  -1.14532  -1.14476
 Alpha  occ. eigenvalues --   -1.13977  -1.13951  -1.13928  -1.13382  -1.13354
 Alpha  occ. eigenvalues --   -1.13302  -1.13128  -1.13126  -1.13098  -1.13087
 Alpha  occ. eigenvalues --   -1.13083  -1.13060  -1.12483  -1.12440  -1.12411
 Alpha  occ. eigenvalues --   -0.17643  -0.14023  -0.11556  -0.10112
 Alpha virt. eigenvalues --   -0.07035  -0.06212  -0.04117  -0.03159  -0.02781
 Alpha virt. eigenvalues --   -0.02192  -0.01930  -0.01810  -0.01183  -0.00534
 Alpha virt. eigenvalues --   -0.00376   0.00127   0.00378   0.00536   0.00605

  Beta  occ. eigenvalues --  -38.45225 -38.45093 -38.44413 -38.43730 -38.43606
  Beta  occ. eigenvalues --  -38.43514 -38.42944  -2.20991  -2.20872  -2.20204
  Beta  occ. eigenvalues --   -2.19656  -2.19414  -2.19270  -2.18775  -1.14658
  Beta  occ. eigenvalues --   -1.14649  -1.14621  -1.14553  -1.14538  -1.14487
  Beta  occ. eigenvalues --   -1.13897  -1.13878  -1.13855  -1.13359  -1.13339
  Beta  occ. eigenvalues --   -1.13302  -1.13108  -1.13062  -1.13043  -1.12991
  Beta  occ. eigenvalues --   -1.12956  -1.12935  -1.12483  -1.12413  -1.12408
  Beta  occ. eigenvalues --   -0.17088  -0.13834  -0.11393
  Beta virt. eigenvalues --   -0.06889  -0.06124  -0.06049  -0.04091  -0.02852
  Beta virt. eigenvalues --   -0.02550  -0.01747  -0.01627  -0.01134  -0.00979
  Beta virt. eigenvalues --   -0.00388   0.00001   0.00224   0.00470   0.00598

 Mulliken charges and spin densities:
               1          2
     1  Na   0.740834   0.102896
     2  Na  -0.128888   0.402102
     3  Na   0.244450  -0.150089
     4  Na  -3.467221   0.151081
     5  Na   0.900370   0.347109
     6  Na   0.935851   0.239120
     7  Na   0.774604  -0.092219
 Sum of Mulliken charges =  -0.00000   1.00000

 Dipole moment (field-independent basis, Debye):
    X=             -1.6883    Y=             -0.1545    Z=              0.0437  Tot=              1.6960
 Quadrupole moment (field-independent basis, Debye-Ang):
   XX=            -48.1420   YY=            -65.5788   ZZ=            -77.4161
   XY=              0.3380   XZ=             -0.8502   YZ=              0.3161

 Normal termination of Gaussian 16 at Thu Dec  7 12:58:18 2023.
