 Gaussian 16, Revision B.01,
 Gaussian 16:  ES64L-G16RevB.01 20-Dec-2017

 -------------------------
 #P B3LYP/6-311+g(d) force
 -------------------------

 -----
 DPGEN
 -----
 Symbolic Z-matrix:
 Charge =  0 Multiplicity = 2

                         Standard orientation:
 ---------------------------------------------------------------------
 Center     Atomic      Atomic             Coordinates (Angstroms)
 Number     Number       Type             X           Y           Z
 ---------------------------------------------------------------------
      1         11           0        1.151309   -0.738750   -1.817044
      2         11           0       -3.127839    0.509471   -0.219932
      3         11           0        3.418062    1.326710   -0.092169
      4         11           0        3.821759   -1.826621    0.166634
      5         11           0       -0.243802    2.140106    0.022775
      6         11           0        0.776174   -0.420770    1.876170
      7         11           0       -5.795664   -0.990146    0.063566
 ---------------------------------------------------------------------

 SCF Done:  E(UB3LYP) =  -1136.11025037     A.U. after   67 cycles

 The electronic state is 2-A.
 Alpha  occ. eigenvalues --  -38.46664 -38.45545 -38.44601 -38.43796 -38.43191
 Alpha  occ. eigenvalues --  -38.43011 -38.43010  -2.22500  -2.21392  -2.20468
 Alpha  occ. eigenvalues --   -2.19649  -2.18990  -2.18891  -2.18855  -1.16176
 Alpha  occ. eigenvalues --   -1.16160  -1.16134  -1.15076  -1.15034  -1.14987
 Alpha  occ. eigenvalues --   -1.14147  -1.14108  -1.14063  -1.13337  -1.13304
 Alpha  occ. eigenvalues --   -1.13286  -1.12719  -1.12638  -1.12638  -1.12583
 Alpha  occ. eigenvalues --   -1.12557  -1.12541  -1.12528  -1.12520  -1.12437
 Alpha  occ. eigenvalues --   -0.18417  -0.13762  -0.11211  -0.10978
 Alpha virt. eigenvalues --   -0.08099  -0.05763  -0.03799  -0.03495  -0.03081
 Alpha virt. eigenvalues --   -0.02357  -0.02175  -0.01956  -0.01063  -0.00899
 Alpha virt. eigenvalues --   -0.00682   0.00044   0.00089   0.00438   0.00561

  Beta  occ. eigenvalues --  -38.46656 -38.45476 -38.44511 -38.43791 -38.43183
  Beta  occ. eigenvalues --  -38.43012 -38.43009  -2.22489  -2.21265  -2.20301
  Beta  occ. eigenvalues --   -2.19643  -2.18975  -2.18892  -2.18858  -1.16159
  Beta  occ. eigenvalues --   -1.16138  -1.16126  -1.14976  -1.14950  -1.14897
  Beta  occ. eigenvalues --   -1.14031  -1.13999  -1.13937  -1.13337  -1.13304
  Beta  occ. eigenvalues --   -1.13254  -1.12711  -1.12628  -1.12628  -1.12588
  Beta  occ. eigenvalues --   -1.12555  -1.12532  -1.12523  -1.12511  -1.12434
  Beta  occ. eigenvalues --   -0.17685  -0.13593  -0.11090
  Beta virt. eigenvalues --   -0.07938  -0.06921  -0.05652  -0.03835  -0.02850
  Beta virt. eigenvalues --   -0.02710  -0.02000  -0.01580  -0.01456  -0.00848
  Beta virt. eigenvalues --   -0.00733  -0.00644   0.00045   0.00326   0.00494

 Mulliken charges and spin densities:
               1          2
     1  Na  -0.267936   0.258119
     2  Na  -0.848241  -0.051522
     3  Na   0.463775   0.210431
     4  Na   0.365236   0.085557
     5  Na   0.945147   0.095932
     6  Na  -0.343675   0.380213
     7  Na  -0.314307   0.021271
 Sum of Mulliken charges =  -0.00000   1.00000

 Dipole moment (field-independent basis, Debye):
    X=              3.1761    Y=              0.4113    Z=             -0.0562  Tot=              3.2031
 Quadrupole moment (field-independent basis, Debye-Ang):
   XX=            -66.5661   YY=            -62.6485   ZZ=            -75.6322
   XY=              7.4237   XZ=              0.1524   YZ=              0.6106

 Normal termination of Gaussian 16 at Thu Dec  7 10:44:08 2023.
