 Gaussian 16, Revision B.01,
 Gaussian 16:  ES64L-G16RevB.01 20-Dec-2017

 -------------------------
 #P B3LYP/6-311+g(d) force
 -------------------------

 -----
 DPGEN
 -----
 Symbolic Z-matrix:
 Charge =  0 Multiplicity = 2

                         Standard orientation:
 ---------------------------------------------------------------------
 Center     Atomic      Atomic             Coordinates (Angstroms)
 Number     Number       Type             X           Y           Z
 ---------------------------------------------------------------------
      1         11           0       -0.389814   -0.182750   -1.690913
      2         11           0        1.418025    2.489008    0.016418
      3         11           0       -1.880875    2.310789    0.102204
      4         11           0       -0.014672    0.167996    1.750891
      5         11           0       -2.749468   -1.495431   -0.242556
      6         11           0        2.998738   -0.558829   -0.491848
      7         11           0        0.618066   -2.730784    0.555804
 ---------------------------------------------------------------------

 SCF Done:  E(UB3LYP) =  -1136.13817849     A.U. after   19 cycles

 The electronic state is 2-A.
 Alpha  occ. eigenvalues --  -38.43768 -38.43665 -38.43504 -38.43502 -38.43454
 Alpha  occ. eigenvalues --  -38.43201 -38.43169  -2.19619  -2.19541  -2.19387
 Alpha  occ. eigenvalues --   -2.19347  -2.19343  -2.19197  -2.19158  -1.13351
 Alpha  occ. eigenvalues --   -1.13266  -1.13246  -1.13239  -1.13218  -1.13169
 Alpha  occ. eigenvalues --   -1.13112  -1.13063  -1.13056  -1.13025  -1.13017
 Alpha  occ. eigenvalues --   -1.13008  -1.12996  -1.12966  -1.12947  -1.12877
 Alpha  occ. eigenvalues --   -1.12819  -1.12810  -1.12804  -1.12782  -1.12770
 Alpha  occ. eigenvalues --   -0.19016  -0.12934  -0.12807  -0.10763
 Alpha virt. eigenvalues --   -0.05321  -0.05077  -0.04822  -0.03116  -0.03030
 Alpha virt. eigenvalues --   -0.02357  -0.01349  -0.01229  -0.00256  -0.00156
 Alpha virt. eigenvalues --    0.00056   0.00356   0.00878   0.00890   0.00931

  Beta  occ. eigenvalues --  -38.43761 -38.43659 -38.43492 -38.43487 -38.43449
  Beta  occ. eigenvalues --  -38.43121 -38.43100  -2.19610  -2.19534  -2.19358
  Beta  occ. eigenvalues --   -2.19337  -2.19331  -2.19051  -2.19032  -1.13332
  Beta  occ. eigenvalues --   -1.13251  -1.13237  -1.13234  -1.13195  -1.13160
  Beta  occ. eigenvalues --   -1.13083  -1.13049  -1.13031  -1.13000  -1.12996
  Beta  occ. eigenvalues --   -1.12989  -1.12979  -1.12953  -1.12937  -1.12789
  Beta  occ. eigenvalues --   -1.12729  -1.12708  -1.12703  -1.12694  -1.12678
  Beta  occ. eigenvalues --   -0.18309  -0.12660  -0.12525
  Beta virt. eigenvalues --   -0.06877  -0.05304  -0.05014  -0.04789  -0.02322
  Beta virt. eigenvalues --   -0.02283  -0.01354  -0.01236  -0.01159  -0.00237
  Beta virt. eigenvalues --   -0.00204   0.00152   0.00384   0.00878   0.00907

 Mulliken charges and spin densities:
               1          2
     1  Na  -0.329979   0.668584
     2  Na   0.086942  -0.006726
     3  Na   0.108530  -0.116553
     4  Na  -0.107657   0.496872
     5  Na   0.134210  -0.105203
     6  Na  -0.031199   0.017670
     7  Na   0.139153   0.045356
 Sum of Mulliken charges =  -0.00000   1.00000

 Dipole moment (field-independent basis, Debye):
    X=             -0.2182    Y=              0.0261    Z=             -0.0066  Tot=              0.2199
 Quadrupole moment (field-independent basis, Debye-Ang):
   XX=            -58.2861   YY=            -60.4119   ZZ=            -74.3961
   XY=             -0.0278   XZ=             -1.1211   YZ=             -0.7845

 Normal termination of Gaussian 16 at Sun Dec  3 19:48:24 2023.
