 Gaussian 16, Revision B.01,
 Gaussian 16:  ES64L-G16RevB.01 20-Dec-2017

 -------------------------
 #P B3LYP/6-311+g(d) force
 -------------------------

 -----
 DPGEN
 -----
 Symbolic Z-matrix:
 Charge =  0 Multiplicity = 2

                         Standard orientation:
 ---------------------------------------------------------------------
 Center     Atomic      Atomic             Coordinates (Angstroms)
 Number     Number       Type             X           Y           Z
 ---------------------------------------------------------------------
      1         11           0        1.879767    1.489796   -0.952033
      2         11           0       -1.252110    2.681745    0.302430
      3         11           0       -3.938219    0.610099    0.076930
      4         11           0        4.642192   -0.654856   -1.295509
      5         11           0       -4.028863   -2.420729   -0.981826
      6         11           0       -0.111486   -0.355825    1.190075
      7         11           0        2.808719   -1.350230    1.659931
 ---------------------------------------------------------------------

 SCF Done:  E(UB3LYP) =  -1136.11825726     A.U. after   22 cycles

 The electronic state is 2-A.
 Alpha  occ. eigenvalues --  -38.44744 -38.44429 -38.44349 -38.44344 -38.43929
 Alpha  occ. eigenvalues --  -38.43677 -38.43406  -2.20573  -2.20330  -2.20199
 Alpha  occ. eigenvalues --   -2.20159  -2.19755  -2.19451  -2.19253  -1.14278
 Alpha  occ. eigenvalues --   -1.14254  -1.14167  -1.14046  -1.14003  -1.13956
 Alpha  occ. eigenvalues --   -1.13853  -1.13834  -1.13819  -1.13812  -1.13805
 Alpha  occ. eigenvalues --   -1.13761  -1.13431  -1.13423  -1.13402  -1.13114
 Alpha  occ. eigenvalues --   -1.13111  -1.13090  -1.12919  -1.12915  -1.12893
 Alpha  occ. eigenvalues --   -0.17280  -0.14271  -0.11614  -0.11420
 Alpha virt. eigenvalues --   -0.06981  -0.05075  -0.04166  -0.04022  -0.03119
 Alpha virt. eigenvalues --   -0.02458  -0.02029  -0.01684  -0.00983  -0.00554
 Alpha virt. eigenvalues --   -0.00131   0.00114   0.00228   0.00314   0.00518

  Beta  occ. eigenvalues --  -38.44710 -38.44361 -38.44295 -38.44287 -38.43922
  Beta  occ. eigenvalues --  -38.43684 -38.43401  -2.20512  -2.20210  -2.20101
  Beta  occ. eigenvalues --   -2.20058  -2.19741  -2.19465  -2.19244  -1.14239
  Beta  occ. eigenvalues --   -1.14207  -1.14112  -1.13954  -1.13912  -1.13868
  Beta  occ. eigenvalues --   -1.13791  -1.13760  -1.13746  -1.13735  -1.13725
  Beta  occ. eigenvalues --   -1.13688  -1.13420  -1.13415  -1.13395  -1.13124
  Beta  occ. eigenvalues --   -1.13120  -1.13098  -1.12910  -1.12908  -1.12886
  Beta  occ. eigenvalues --   -0.16605  -0.13953  -0.11375
  Beta virt. eigenvalues --   -0.07501  -0.06843  -0.04698  -0.03977  -0.03731
  Beta virt. eigenvalues --   -0.02434  -0.02271  -0.01620  -0.01516  -0.00673
  Beta virt. eigenvalues --   -0.00442   0.00000   0.00263   0.00317   0.00492

 Mulliken charges and spin densities:
               1          2
     1  Na  -0.310460   0.317539
     2  Na   0.832987   0.038678
     3  Na   0.292408   0.113421
     4  Na   0.196011   0.165040
     5  Na   0.151844  -0.083499
     6  Na  -1.337795   0.585181
     7  Na   0.175005  -0.136360
 Sum of Mulliken charges =  -0.00000   1.00000

 Dipole moment (field-independent basis, Debye):
    X=              1.1763    Y=              0.2127    Z=             -0.0404  Tot=              1.1961
 Quadrupole moment (field-independent basis, Debye-Ang):
   XX=            -66.4470   YY=            -64.6584   ZZ=            -69.6406
   XY=             -6.5384   XZ=             -0.9967   YZ=              1.6364

 Normal termination of Gaussian 16 at Tue Nov 28 23:33:53 2023.
