 Gaussian 16, Revision B.01,
 Gaussian 16:  ES64L-G16RevB.01 20-Dec-2017

 -------------------------
 #P B3LYP/6-311+g(d) force
 -------------------------

 -----
 DPGEN
 -----
 Symbolic Z-matrix:
 Charge =  0 Multiplicity = 2

                         Standard orientation:
 ---------------------------------------------------------------------
 Center     Atomic      Atomic             Coordinates (Angstroms)
 Number     Number       Type             X           Y           Z
 ---------------------------------------------------------------------
      1         11           0        4.425407    0.318407   -0.364569
      2         11           0       -1.116142   -0.481716    2.142944
      3         11           0        2.158897   -1.920743    0.063882
      4         11           0        1.558368    1.588917    0.353040
      5         11           0       -2.623406    1.962083   -0.165665
      6         11           0       -3.895725   -1.217957   -0.546782
      7         11           0       -0.507399   -0.248991   -1.482850
 ---------------------------------------------------------------------

 SCF Done:  E(UB3LYP) =  -1136.10886948     A.U. after   31 cycles

 The electronic state is 2-A.
 Alpha  occ. eigenvalues --  -38.45760 -38.45145 -38.45054 -38.44039 -38.43688
 Alpha  occ. eigenvalues --  -38.43592 -38.42684  -2.21631  -2.20968  -2.20904
 Alpha  occ. eigenvalues --   -2.19885  -2.19540  -2.19405  -2.18574  -1.15334
 Alpha  occ. eigenvalues --   -1.15287  -1.15262  -1.14629  -1.14608  -1.14580
 Alpha  occ. eigenvalues --   -1.14563  -1.14549  -1.14533  -1.13585  -1.13547
 Alpha  occ. eigenvalues --   -1.13484  -1.13236  -1.13197  -1.13176  -1.13075
 Alpha  occ. eigenvalues --   -1.13060  -1.13040  -1.12296  -1.12247  -1.12180
 Alpha  occ. eigenvalues --   -0.18252  -0.14779  -0.11085  -0.10211
 Alpha virt. eigenvalues --   -0.07840  -0.05661  -0.04340  -0.03527  -0.02891
 Alpha virt. eigenvalues --   -0.02219  -0.02092  -0.01532  -0.01171  -0.00622
 Alpha virt. eigenvalues --   -0.00375   0.00159   0.00279   0.00547   0.00639

  Beta  occ. eigenvalues --  -38.45757 -38.45067 -38.45006 -38.44016 -38.43675
  Beta  occ. eigenvalues --  -38.43570 -38.42677  -2.21628  -2.20824  -2.20813
  Beta  occ. eigenvalues --   -2.19844  -2.19518  -2.19366  -2.18564  -1.15304
  Beta  occ. eigenvalues --   -1.15288  -1.15266  -1.14518  -1.14512  -1.14504
  Beta  occ. eigenvalues --   -1.14483  -1.14479  -1.14474  -1.13554  -1.13526
  Beta  occ. eigenvalues --   -1.13441  -1.13226  -1.13185  -1.13131  -1.13051
  Beta  occ. eigenvalues --   -1.13020  -1.13018  -1.12294  -1.12221  -1.12165
  Beta  occ. eigenvalues --   -0.17643  -0.14274  -0.10075
  Beta virt. eigenvalues --   -0.07599  -0.07322  -0.05468  -0.03840  -0.03291
  Beta virt. eigenvalues --   -0.02590  -0.01794  -0.01512  -0.01454  -0.00671
  Beta virt. eigenvalues --   -0.00419  -0.00280   0.00180   0.00392   0.00577

 Mulliken charges and spin densities:
               1          2
     1  Na   0.314027   0.209690
     2  Na  -0.106844   0.353524
     3  Na   0.095221   0.122077
     4  Na  -0.304036   0.033091
     5  Na   0.020100   0.150043
     6  Na   0.004592   0.125487
     7  Na  -0.023061   0.006089
 Sum of Mulliken charges =  -0.00000   1.00000

 Dipole moment (field-independent basis, Debye):
    X=              0.3357    Y=              0.3675    Z=              0.6376  Tot=              0.8088
 Quadrupole moment (field-independent basis, Debye-Ang):
   XX=            -54.9284   YY=            -79.0213   ZZ=            -65.3712
   XY=             -1.1277   XZ=             -3.8484   YZ=             -2.3015

 Normal termination of Gaussian 16 at Thu Dec  7 22:54:45 2023.
