 Gaussian 16, Revision B.01,
 Gaussian 16:  ES64L-G16RevB.01 20-Dec-2017

 -------------------------
 #P B3LYP/6-311+g(d) force
 -------------------------

 -----
 DPGEN
 -----
 Symbolic Z-matrix:
 Charge =  0 Multiplicity = 2

                         Standard orientation:
 ---------------------------------------------------------------------
 Center     Atomic      Atomic             Coordinates (Angstroms)
 Number     Number       Type             X           Y           Z
 ---------------------------------------------------------------------
      1         11           0       -0.817447    1.658033   -0.623360
      2         11           0        1.938168    3.320066    0.600519
      3         11           0        3.044022    0.354825   -0.571237
      4         11           0        0.538673   -1.605469   -0.631727
      5         11           0       -3.108108   -1.061292   -0.695648
      6         11           0        4.032089   -2.442876    0.937557
      7         11           0       -5.627397   -0.223287    0.983896
 ---------------------------------------------------------------------

 SCF Done:  E(UB3LYP) =  -1136.12365033     A.U. after   20 cycles

 The electronic state is 2-A.
 Alpha  occ. eigenvalues --  -38.44505 -38.44344 -38.44284 -38.44170 -38.44016
 Alpha  occ. eigenvalues --  -38.43453 -38.43387  -2.20328  -2.20201  -2.20106
 Alpha  occ. eigenvalues --   -2.19957  -2.19902  -2.19298  -2.19207  -1.13976
 Alpha  occ. eigenvalues --   -1.13954  -1.13951  -1.13934  -1.13882  -1.13806
 Alpha  occ. eigenvalues --   -1.13803  -1.13763  -1.13705  -1.13643  -1.13621
 Alpha  occ. eigenvalues --   -1.13611  -1.13590  -1.13572  -1.13463  -1.12977
 Alpha  occ. eigenvalues --   -1.12975  -1.12953  -1.12873  -1.12863  -1.12831
 Alpha  occ. eigenvalues --   -0.17045  -0.14167  -0.12150  -0.11288
 Alpha virt. eigenvalues --   -0.05953  -0.05231  -0.04764  -0.03816  -0.02497
 Alpha virt. eigenvalues --   -0.02391  -0.02281  -0.01463  -0.00940  -0.00601
 Alpha virt. eigenvalues --   -0.00408  -0.00004   0.00071   0.00441   0.00695

  Beta  occ. eigenvalues --  -38.44407 -38.44292 -38.44272 -38.44153 -38.44002
  Beta  occ. eigenvalues --  -38.43449 -38.43364  -2.20145  -2.20110  -2.20087
  Beta  occ. eigenvalues --   -2.19926  -2.19879  -2.19301  -2.19164  -1.13880
  Beta  occ. eigenvalues --   -1.13855  -1.13829  -1.13826  -1.13824  -1.13793
  Beta  occ. eigenvalues --   -1.13771  -1.13700  -1.13679  -1.13617  -1.13600
  Beta  occ. eigenvalues --   -1.13579  -1.13573  -1.13556  -1.13445  -1.12990
  Beta  occ. eigenvalues --   -1.12984  -1.12883  -1.12840  -1.12834  -1.12807
  Beta  occ. eigenvalues --   -0.16449  -0.13408  -0.11933
  Beta virt. eigenvalues --   -0.07808  -0.05742  -0.04836  -0.04390  -0.03597
  Beta virt. eigenvalues --   -0.02341  -0.02149  -0.01654  -0.01243  -0.00810
  Beta virt. eigenvalues --   -0.00349  -0.00112   0.00164   0.00239   0.00545

 Mulliken charges and spin densities:
               1          2
     1  Na  -0.398163  -0.085915
     2  Na   0.450486   0.118881
     3  Na  -0.429234   0.161374
     4  Na  -0.203324   0.192310
     5  Na  -0.280934   0.023959
     6  Na   0.600812   0.181035
     7  Na   0.260357   0.408357
 Sum of Mulliken charges =  -0.00000   1.00000

 Dipole moment (field-independent basis, Debye):
    X=              0.4706    Y=             -0.1350    Z=              0.5985  Tot=              0.7733
 Quadrupole moment (field-independent basis, Debye-Ang):
   XX=            -61.8705   YY=            -66.2440   ZZ=            -68.3296
   XY=             -3.7620   XZ=              0.9388   YZ=             -0.1842

 Normal termination of Gaussian 16 at Tue Nov 28 22:26:35 2023.
