 Gaussian 16, Revision B.01,
 Gaussian 16:  ES64L-G16RevB.01 20-Dec-2017

 -------------------------
 #P B3LYP/6-311+g(d) force
 -------------------------

 -----
 DPGEN
 -----
 Symbolic Z-matrix:
 Charge =  0 Multiplicity = 2

                         Standard orientation:
 ---------------------------------------------------------------------
 Center     Atomic      Atomic             Coordinates (Angstroms)
 Number     Number       Type             X           Y           Z
 ---------------------------------------------------------------------
      1         11           0        2.221370   -1.811311    0.106907
      2         11           0       -3.104786    0.446466   -0.049247
      3         11           0        2.626747    1.452144    0.240762
      4         11           0       -0.425073   -0.392678    1.799018
      5         11           0       -0.551038    2.788937   -0.003305
      6         11           0        0.344381    0.140476   -1.777321
      7         11           0       -1.111600   -2.624034   -0.316814
 ---------------------------------------------------------------------

 SCF Done:  E(UB3LYP) =  -1136.13995240     A.U. after   19 cycles

 The electronic state is 2-A.
 Alpha  occ. eigenvalues --  -38.43952 -38.43609 -38.43486 -38.43434 -38.43350
 Alpha  occ. eigenvalues --  -38.43234 -38.43141  -2.19787  -2.19481  -2.19386
 Alpha  occ. eigenvalues --   -2.19323  -2.19217  -2.19196  -2.19121  -1.13468
 Alpha  occ. eigenvalues --   -1.13445  -1.13429  -1.13183  -1.13144  -1.13136
 Alpha  occ. eigenvalues --   -1.13087  -1.13058  -1.13038  -1.13009  -1.12992
 Alpha  occ. eigenvalues --   -1.12933  -1.12922  -1.12888  -1.12855  -1.12841
 Alpha  occ. eigenvalues --   -1.12810  -1.12807  -1.12787  -1.12738  -1.12735
 Alpha  occ. eigenvalues --   -0.19033  -0.13069  -0.12729  -0.10699
 Alpha virt. eigenvalues --   -0.05492  -0.05075  -0.04761  -0.03176  -0.02977
 Alpha virt. eigenvalues --   -0.02366  -0.01400  -0.01064  -0.00257  -0.00207
 Alpha virt. eigenvalues --    0.00008   0.00376   0.00858   0.00913   0.00934

  Beta  occ. eigenvalues --  -38.43950 -38.43603 -38.43478 -38.43424 -38.43345
  Beta  occ. eigenvalues --  -38.43160 -38.43063  -2.19786  -2.19473  -2.19375
  Beta  occ. eigenvalues --   -2.19309  -2.19211  -2.19060  -2.18979  -1.13460
  Beta  occ. eigenvalues --   -1.13433  -1.13430  -1.13179  -1.13138  -1.13111
  Beta  occ. eigenvalues --   -1.13077  -1.13030  -1.13010  -1.13002  -1.12953
  Beta  occ. eigenvalues --   -1.12928  -1.12909  -1.12858  -1.12842  -1.12773
  Beta  occ. eigenvalues --   -1.12719  -1.12709  -1.12695  -1.12640  -1.12632
  Beta  occ. eigenvalues --   -0.18294  -0.12835  -0.12474
  Beta virt. eigenvalues --   -0.06783  -0.05466  -0.05069  -0.04713  -0.02390
  Beta virt. eigenvalues --   -0.02173  -0.01356  -0.01297  -0.00994  -0.00301
  Beta virt. eigenvalues --   -0.00265   0.00142   0.00398   0.00889   0.00910

 Mulliken charges and spin densities:
               1          2
     1  Na   0.294841  -0.016088
     2  Na   0.106562  -0.105188
     3  Na   0.049781  -0.035400
     4  Na  -0.420764   0.692966
     5  Na   0.082145  -0.107265
     6  Na  -0.341010   0.654303
     7  Na   0.228446  -0.083328
 Sum of Mulliken charges =  -0.00000   1.00000

 Dipole moment (field-independent basis, Debye):
    X=             -0.1729    Y=              0.0046    Z=              0.0217  Tot=              0.1743
 Quadrupole moment (field-independent basis, Debye-Ang):
   XX=            -57.0517   YY=            -62.1376   ZZ=            -74.2406
   XY=              0.1320   XZ=              1.6900   YZ=              1.1665

 Normal termination of Gaussian 16 at Thu Dec  7 14:27:41 2023.
