 Gaussian 16, Revision B.01,
 Gaussian 16:  ES64L-G16RevB.01 20-Dec-2017

 -------------------------
 #P B3LYP/6-311+g(d) force
 -------------------------

 -----
 DPGEN
 -----
 Symbolic Z-matrix:
 Charge =  0 Multiplicity = 2

                         Standard orientation:
 ---------------------------------------------------------------------
 Center     Atomic      Atomic             Coordinates (Angstroms)
 Number     Number       Type             X           Y           Z
 ---------------------------------------------------------------------
      1         11           0        1.687869    2.211321   -0.541275
      2         11           0       -3.263526    0.172713   -1.074614
      3         11           0        3.265321   -1.111349   -0.938154
      4         11           0        0.025697   -0.396430   -1.257389
      5         11           0       -1.583458   -2.462857    0.569911
      6         11           0        1.358275   -0.373949    2.188953
      7         11           0       -1.490178    1.960551    1.052568
 ---------------------------------------------------------------------

 SCF Done:  E(UB3LYP) =  -1136.12956136     A.U. after   22 cycles

 The electronic state is 2-A.
 Alpha  occ. eigenvalues --  -38.44368 -38.44294 -38.44250 -38.43547 -38.43514
 Alpha  occ. eigenvalues --  -38.43159 -38.43065  -2.20180  -2.20144  -2.20086
 Alpha  occ. eigenvalues --   -2.19400  -2.19336  -2.19170  -2.18913  -1.13859
 Alpha  occ. eigenvalues --   -1.13825  -1.13822  -1.13815  -1.13806  -1.13759
 Alpha  occ. eigenvalues --   -1.13752  -1.13712  -1.13702  -1.13141  -1.13057
 Alpha  occ. eigenvalues --   -1.13055  -1.13005  -1.12995  -1.12958  -1.12857
 Alpha  occ. eigenvalues --   -1.12810  -1.12792  -1.12586  -1.12574  -1.12552
 Alpha  occ. eigenvalues --   -0.18340  -0.13565  -0.11352  -0.11267
 Alpha virt. eigenvalues --   -0.06098  -0.04925  -0.04668  -0.03180  -0.02808
 Alpha virt. eigenvalues --   -0.02735  -0.01956  -0.00878  -0.00750  -0.00019
 Alpha virt. eigenvalues --    0.00259   0.00291   0.00427   0.00661   0.00810

  Beta  occ. eigenvalues --  -38.44348 -38.44276 -38.44162 -38.43537 -38.43506
  Beta  occ. eigenvalues --  -38.43127 -38.43053  -2.20144  -2.20112  -2.19923
  Beta  occ. eigenvalues --   -2.19383  -2.19324  -2.19115  -2.18894  -1.13827
  Beta  occ. eigenvalues --   -1.13799  -1.13795  -1.13787  -1.13786  -1.13740
  Beta  occ. eigenvalues --   -1.13640  -1.13600  -1.13585  -1.13125  -1.13047
  Beta  occ. eigenvalues --   -1.13035  -1.12987  -1.12980  -1.12939  -1.12805
  Beta  occ. eigenvalues --   -1.12774  -1.12750  -1.12575  -1.12543  -1.12538
  Beta  occ. eigenvalues --   -0.17645  -0.13292  -0.11168
  Beta virt. eigenvalues --   -0.07381  -0.05972  -0.04847  -0.04137  -0.02971
  Beta virt. eigenvalues --   -0.02164  -0.01824  -0.01778  -0.00839  -0.00385
  Beta virt. eigenvalues --    0.00056   0.00273   0.00326   0.00539   0.00806

 Mulliken charges and spin densities:
               1          2
     1  Na   0.070978   0.086316
     2  Na   1.015548  -0.076512
     3  Na   0.217602   0.104621
     4  Na  -0.705973   0.043312
     5  Na  -0.270200   0.205054
     6  Na  -0.074834   0.484698
     7  Na  -0.253121   0.152511
 Sum of Mulliken charges =  -0.00000   1.00000

 Dipole moment (field-independent basis, Debye):
    X=              0.2586    Y=             -0.1262    Z=              0.0355  Tot=              0.2899
 Quadrupole moment (field-independent basis, Debye-Ang):
   XX=            -52.2217   YY=            -72.1640   ZZ=            -68.3808
   XY=             -0.6968   XZ=              0.3279   YZ=             -1.3346

 Normal termination of Gaussian 16 at Fri Dec  8 05:39:35 2023.
