 Gaussian 16, Revision B.01,
 Gaussian 16:  ES64L-G16RevB.01 20-Dec-2017

 -------------------------
 #P B3LYP/6-311+g(d) force
 -------------------------

 -----
 DPGEN
 -----
 Symbolic Z-matrix:
 Charge =  0 Multiplicity = 2

                         Standard orientation:
 ---------------------------------------------------------------------
 Center     Atomic      Atomic             Coordinates (Angstroms)
 Number     Number       Type             X           Y           Z
 ---------------------------------------------------------------------
      1         11           0        3.255559   -1.641962   -0.549141
      2         11           0       -0.487199   -2.125631    1.021115
      3         11           0       -3.490312   -1.113740   -0.631333
      4         11           0       -1.833424    1.405817    0.803037
      5         11           0        1.522122    0.576354    1.638553
      6         11           0        0.720281    2.984017   -0.554363
      7         11           0        0.312973   -0.084856   -1.727867
 ---------------------------------------------------------------------

 SCF Done:  E(UB3LYP) =  -1136.13554812     A.U. after   19 cycles

 The electronic state is 2-A.
 Alpha  occ. eigenvalues --  -38.44107 -38.43912 -38.43838 -38.43662 -38.43484
 Alpha  occ. eigenvalues --  -38.43385 -38.43014  -2.19894  -2.19720  -2.19684
 Alpha  occ. eigenvalues --   -2.19576  -2.19382  -2.19306  -2.18892  -1.13568
 Alpha  occ. eigenvalues --   -1.13558  -1.13523  -1.13402  -1.13397  -1.13377
 Alpha  occ. eigenvalues --   -1.13373  -1.13352  -1.13267  -1.13262  -1.13226
 Alpha  occ. eigenvalues --   -1.13185  -1.13079  -1.13060  -1.13002  -1.12990
 Alpha  occ. eigenvalues --   -1.12958  -1.12903  -1.12559  -1.12543  -1.12528
 Alpha  occ. eigenvalues --   -0.18479  -0.12967  -0.12225  -0.10922
 Alpha virt. eigenvalues --   -0.06009  -0.04982  -0.04372  -0.03272  -0.02950
 Alpha virt. eigenvalues --   -0.02552  -0.01843  -0.01151  -0.00568   0.00003
 Alpha virt. eigenvalues --    0.00215   0.00284   0.00647   0.00781   0.00814

  Beta  occ. eigenvalues --  -38.44100 -38.43908 -38.43810 -38.43594 -38.43470
  Beta  occ. eigenvalues --  -38.43327 -38.43006  -2.19884  -2.19712  -2.19636
  Beta  occ. eigenvalues --   -2.19451  -2.19360  -2.19202  -2.18880  -1.13558
  Beta  occ. eigenvalues --   -1.13541  -1.13517  -1.13396  -1.13371  -1.13364
  Beta  occ. eigenvalues --   -1.13351  -1.13303  -1.13239  -1.13179  -1.13134
  Beta  occ. eigenvalues --   -1.13096  -1.13059  -1.13016  -1.12987  -1.12922
  Beta  occ. eigenvalues --   -1.12875  -1.12832  -1.12545  -1.12536  -1.12507
  Beta  occ. eigenvalues --   -0.17719  -0.12801  -0.12018
  Beta virt. eigenvalues --   -0.06997  -0.05854  -0.04885  -0.04255  -0.02748
  Beta virt. eigenvalues --   -0.02323  -0.01753  -0.01568  -0.01062  -0.00244
  Beta virt. eigenvalues --   -0.00014   0.00255   0.00332   0.00740   0.00813

 Mulliken charges and spin densities:
               1          2
     1  Na  -0.072155  -0.122809
     2  Na  -0.275502   0.047863
     3  Na   0.384912  -0.062670
     4  Na  -0.206276   0.159312
     5  Na   0.300090   0.372769
     6  Na   0.200842  -0.127472
     7  Na  -0.331911   0.733006
 Sum of Mulliken charges =  -0.00000   1.00000

 Dipole moment (field-independent basis, Debye):
    X=              0.0654    Y=             -0.2764    Z=             -0.0940  Tot=              0.2992
 Quadrupole moment (field-independent basis, Debye-Ang):
   XX=            -55.4402   YY=            -65.8757   ZZ=            -71.3160
   XY=              0.2486   XZ=              0.6431   YZ=              0.1771

 Normal termination of Gaussian 16 at Tue Dec  5 22:49:30 2023.
