 Gaussian 16, Revision B.01,
 Gaussian 16:  ES64L-G16RevB.01 20-Dec-2017

 -------------------------
 #P B3LYP/6-311+g(d) force
 -------------------------

 -----
 DPGEN
 -----
 Symbolic Z-matrix:
 Charge =  0 Multiplicity = 2

                         Standard orientation:
 ---------------------------------------------------------------------
 Center     Atomic      Atomic             Coordinates (Angstroms)
 Number     Number       Type             X           Y           Z
 ---------------------------------------------------------------------
      1         11           0       -0.937316   -2.379257   -0.329187
      2         11           0       -0.970159    3.391573    0.502266
      3         11           0        3.216757   -0.817104   -0.993406
      4         11           0        1.673994   -2.492032    1.403242
      5         11           0       -3.283031   -0.500285   -2.030500
      6         11           0       -2.294791    0.212574    1.921890
      7         11           0        2.594545    2.584531   -0.474305
 ---------------------------------------------------------------------

 SCF Done:  E(UB3LYP) =  -1136.11569835     A.U. after   20 cycles

 The electronic state is 2-A.
 Alpha  occ. eigenvalues --  -38.44891 -38.44519 -38.44362 -38.44352 -38.44123
 Alpha  occ. eigenvalues --  -38.44116 -38.44007  -2.20650  -2.20320  -2.20154
 Alpha  occ. eigenvalues --   -2.20092  -2.19967  -2.19957  -2.19763  -1.14324
 Alpha  occ. eigenvalues --   -1.14300  -1.14283  -1.13972  -1.13957  -1.13926
 Alpha  occ. eigenvalues --   -1.13840  -1.13822  -1.13795  -1.13773  -1.13754
 Alpha  occ. eigenvalues --   -1.13726  -1.13726  -1.13639  -1.13623  -1.13601
 Alpha  occ. eigenvalues --   -1.13584  -1.13538  -1.13443  -1.13428  -1.13393
 Alpha  occ. eigenvalues --   -0.16433  -0.13384  -0.12590  -0.10909
 Alpha virt. eigenvalues --   -0.06376  -0.06048  -0.04726  -0.03573  -0.02868
 Alpha virt. eigenvalues --   -0.02399  -0.01487  -0.01382  -0.01243  -0.00939
 Alpha virt. eigenvalues --   -0.00690  -0.00014   0.00039   0.00371   0.00662

  Beta  occ. eigenvalues --  -38.44859 -38.44422 -38.44353 -38.44343 -38.44102
  Beta  occ. eigenvalues --  -38.44098 -38.43995  -2.20591  -2.20139  -2.20138
  Beta  occ. eigenvalues --   -2.20077  -2.19940  -2.19918  -2.19742  -1.14282
  Beta  occ. eigenvalues --   -1.14259  -1.14237  -1.13846  -1.13832  -1.13830
  Beta  occ. eigenvalues --   -1.13812  -1.13808  -1.13774  -1.13761  -1.13745
  Beta  occ. eigenvalues --   -1.13712  -1.13680  -1.13624  -1.13612  -1.13572
  Beta  occ. eigenvalues --   -1.13555  -1.13495  -1.13428  -1.13414  -1.13375
  Beta  occ. eigenvalues --   -0.15952  -0.12815  -0.12333
  Beta virt. eigenvalues --   -0.07465  -0.06149  -0.05778  -0.04240  -0.03411
  Beta virt. eigenvalues --   -0.02444  -0.01900  -0.01304  -0.01175  -0.01104
  Beta virt. eigenvalues --   -0.00833  -0.00329   0.00185   0.00255   0.00508

 Mulliken charges and spin densities:
               1          2
     1  Na  -0.063568   0.262574
     2  Na  -0.070817   0.002301
     3  Na  -0.248169   0.038784
     4  Na   0.492664   0.088953
     5  Na   0.086022   0.364762
     6  Na  -0.206640   0.189762
     7  Na   0.010508   0.052863
 Sum of Mulliken charges =  -0.00000   1.00000

 Dipole moment (field-independent basis, Debye):
    X=             -0.2284    Y=             -0.2222    Z=              0.2360  Tot=              0.3965
 Quadrupole moment (field-independent basis, Debye-Ang):
   XX=            -65.1302   YY=            -68.3102   ZZ=            -67.4046
   XY=             -4.2808   XZ=             -0.3304   YZ=             -2.6858

 Normal termination of Gaussian 16 at Sun Dec  3 21:42:20 2023.
