 Gaussian 16, Revision B.01,
 Gaussian 16:  ES64L-G16RevB.01 20-Dec-2017

 -------------------------
 #P B3LYP/6-311+g(d) force
 -------------------------

 -----
 DPGEN
 -----
 Symbolic Z-matrix:
 Charge =  0 Multiplicity = 2

                         Standard orientation:
 ---------------------------------------------------------------------
 Center     Atomic      Atomic             Coordinates (Angstroms)
 Number     Number       Type             X           Y           Z
 ---------------------------------------------------------------------
      1         11           0        2.762148   -2.390524   -0.689404
      2         11           0       -3.301951   -1.719577    0.792071
      3         11           0        0.358459   -0.302798    1.948656
      4         11           0        3.098676    1.091589    0.297212
      5         11           0       -0.883466   -1.565877   -1.365893
      6         11           0       -2.349304    1.979152   -0.751810
      7         11           0        0.315440    2.908035   -0.230832
 ---------------------------------------------------------------------

 SCF Done:  E(UB3LYP) =  -1136.12233708     A.U. after   20 cycles

 The electronic state is 2-A.
 Alpha  occ. eigenvalues --  -38.44650 -38.44556 -38.44506 -38.44160 -38.43996
 Alpha  occ. eigenvalues --  -38.43901 -38.43144  -2.20461  -2.20351  -2.20322
 Alpha  occ. eigenvalues --   -2.19981  -2.19780  -2.19756  -2.19022  -1.14141
 Alpha  occ. eigenvalues --   -1.14109  -1.14082  -1.14030  -1.13999  -1.13998
 Alpha  occ. eigenvalues --   -1.13988  -1.13979  -1.13951  -1.13665  -1.13648
 Alpha  occ. eigenvalues --   -1.13598  -1.13520  -1.13446  -1.13428  -1.13409
 Alpha  occ. eigenvalues --   -1.13401  -1.13359  -1.12705  -1.12668  -1.12648
 Alpha  occ. eigenvalues --   -0.17494  -0.13366  -0.12576  -0.10466
 Alpha virt. eigenvalues --   -0.06438  -0.05828  -0.04697  -0.03425  -0.02894
 Alpha virt. eigenvalues --   -0.02173  -0.02064  -0.01550  -0.00854  -0.00356
 Alpha virt. eigenvalues --   -0.00237   0.00264   0.00360   0.00623   0.00703

  Beta  occ. eigenvalues --  -38.44583 -38.44536 -38.44501 -38.44139 -38.43956
  Beta  occ. eigenvalues --  -38.43872 -38.43142  -2.20337  -2.20315  -2.20313
  Beta  occ. eigenvalues --   -2.19944  -2.19707  -2.19702  -2.19022  -1.14057
  Beta  occ. eigenvalues --   -1.14027  -1.14008  -1.14001  -1.13996  -1.13970
  Beta  occ. eigenvalues --   -1.13960  -1.13946  -1.13943  -1.13642  -1.13614
  Beta  occ. eigenvalues --   -1.13563  -1.13487  -1.13395  -1.13373  -1.13362
  Beta  occ. eigenvalues --   -1.13359  -1.13322  -1.12702  -1.12671  -1.12625
  Beta  occ. eigenvalues --   -0.16964  -0.13155  -0.12103
  Beta virt. eigenvalues --   -0.07090  -0.06179  -0.05573  -0.04381  -0.03014
  Beta virt. eigenvalues --   -0.02375  -0.01914  -0.01487  -0.01281  -0.00828
  Beta virt. eigenvalues --   -0.00267  -0.00030   0.00343   0.00512   0.00683

 Mulliken charges and spin densities:
               1          2
     1  Na  -0.098799   0.195626
     2  Na   0.320169   0.065821
     3  Na  -0.100727   0.378110
     4  Na   0.360007   0.048370
     5  Na  -0.301534   0.221102
     6  Na   0.067193   0.120025
     7  Na  -0.246309  -0.029055
 Sum of Mulliken charges =  -0.00000   1.00000

 Dipole moment (field-independent basis, Debye):
    X=             -0.1483    Y=             -0.5201    Z=              0.4072  Tot=              0.6770
 Quadrupole moment (field-independent basis, Debye-Ang):
   XX=            -53.6768   YY=            -70.7167   ZZ=            -72.8935
   XY=              3.5607   XZ=             -1.6003   YZ=             -0.5024

 Normal termination of Gaussian 16 at Sun Dec  3 23:19:32 2023.
