 Gaussian 16, Revision B.01,
 Gaussian 16:  ES64L-G16RevB.01 20-Dec-2017

 -------------------------
 #P B3LYP/6-311+g(d) force
 -------------------------

 -----
 DPGEN
 -----
 Symbolic Z-matrix:
 Charge =  0 Multiplicity = 2

                         Standard orientation:
 ---------------------------------------------------------------------
 Center     Atomic      Atomic             Coordinates (Angstroms)
 Number     Number       Type             X           Y           Z
 ---------------------------------------------------------------------
      1         11           0       -1.575727   -1.672394   -0.503425
      2         11           0        1.541212   -2.836592    0.230344
      3         11           0        3.880280   -0.751418   -0.414675
      4         11           0       -4.717419    0.234149   -1.099758
      5         11           0        2.298252    3.119205   -0.901410
      6         11           0        1.216473    0.940160    1.153362
      7         11           0       -2.643071    0.966889    1.535563
 ---------------------------------------------------------------------

 SCF Done:  E(UB3LYP) =  -1136.11956597     A.U. after   22 cycles

 The electronic state is 2-A.
 Alpha  occ. eigenvalues --  -38.44892 -38.44721 -38.44578 -38.44094 -38.43967
 Alpha  occ. eigenvalues --  -38.43455 -38.42936  -2.20694  -2.20529  -2.20403
 Alpha  occ. eigenvalues --   -2.19864  -2.19791  -2.19322  -2.18778  -1.14374
 Alpha  occ. eigenvalues --   -1.14362  -1.14329  -1.14227  -1.14205  -1.14137
 Alpha  occ. eigenvalues --   -1.14076  -1.14063  -1.14011  -1.13552  -1.13534
 Alpha  occ. eigenvalues --   -1.13504  -1.13443  -1.13435  -1.13395  -1.13018
 Alpha  occ. eigenvalues --   -1.12974  -1.12948  -1.12448  -1.12443  -1.12431
 Alpha  occ. eigenvalues --   -0.16928  -0.14308  -0.11800  -0.10527
 Alpha virt. eigenvalues --   -0.07084  -0.04949  -0.04642  -0.03893  -0.02886
 Alpha virt. eigenvalues --   -0.02308  -0.01936  -0.01578  -0.00865  -0.00685
 Alpha virt. eigenvalues --   -0.00344   0.00163   0.00316   0.00460   0.00545

  Beta  occ. eigenvalues --  -38.44875 -38.44706 -38.44530 -38.44108 -38.43884
  Beta  occ. eigenvalues --  -38.43423 -38.42934  -2.20667  -2.20505  -2.20312
  Beta  occ. eigenvalues --   -2.19891  -2.19635  -2.19268  -2.18776  -1.14357
  Beta  occ. eigenvalues --   -1.14347  -1.14274  -1.14214  -1.14172  -1.14113
  Beta  occ. eigenvalues --   -1.14017  -1.14002  -1.13947  -1.13569  -1.13553
  Beta  occ. eigenvalues --   -1.13517  -1.13335  -1.13328  -1.13297  -1.12988
  Beta  occ. eigenvalues --   -1.12933  -1.12886  -1.12445  -1.12442  -1.12414
  Beta  occ. eigenvalues --   -0.16308  -0.13782  -0.11705
  Beta virt. eigenvalues --   -0.07068  -0.06738  -0.04671  -0.04121  -0.03736
  Beta virt. eigenvalues --   -0.02499  -0.02186  -0.01342  -0.01231  -0.00751
  Beta virt. eigenvalues --   -0.00464  -0.00194   0.00316   0.00443   0.00569

 Mulliken charges and spin densities:
               1          2
     1  Na  -0.883571   0.136912
     2  Na   0.387947   0.074891
     3  Na   0.268070   0.357175
     4  Na   0.470411   0.403114
     5  Na   0.276845   0.076867
     6  Na  -0.550989  -0.174223
     7  Na   0.031287   0.125264
 Sum of Mulliken charges =  -0.00000   1.00000

 Dipole moment (field-independent basis, Debye):
    X=             -0.2230    Y=              0.3859    Z=             -0.2398  Tot=              0.5061
 Quadrupole moment (field-independent basis, Debye-Ang):
   XX=            -64.1700   YY=            -69.1849   ZZ=            -66.0769
   XY=             -1.1822   XZ=             -2.9408   YZ=             -1.1981

 Normal termination of Gaussian 16 at Tue Nov 28 18:53:04 2023.
