 Gaussian 16, Revision B.01,
 Gaussian 16:  ES64L-G16RevB.01 20-Dec-2017

 -------------------------
 #P B3LYP/6-311+g(d) force
 -------------------------

 -----
 DPGEN
 -----
 Symbolic Z-matrix:
 Charge =  0 Multiplicity = 2

                         Standard orientation:
 ---------------------------------------------------------------------
 Center     Atomic      Atomic             Coordinates (Angstroms)
 Number     Number       Type             X           Y           Z
 ---------------------------------------------------------------------
      1         11           0       -2.661539   -2.138132    0.098302
      2         11           0        2.744768    1.854604    0.140142
      3         11           0        0.125374    0.279799   -1.163304
      4         11           0       -3.937515    0.798929   -0.638409
      5         11           0        0.643214   -1.510742    1.475980
      6         11           0       -0.618947    2.162453    0.870495
      7         11           0        3.704645   -1.446911   -0.783206
 ---------------------------------------------------------------------

 SCF Done:  E(UB3LYP) =  -1136.12071927     A.U. after   21 cycles

 The electronic state is 2-A.
 Alpha  occ. eigenvalues --  -38.44939 -38.44387 -38.44076 -38.44042 -38.43757
 Alpha  occ. eigenvalues --  -38.43495 -38.43153  -2.20894  -2.20231  -2.19895
 Alpha  occ. eigenvalues --   -2.19847  -2.19563  -2.19359  -2.19054  -1.14668
 Alpha  occ. eigenvalues --   -1.14545  -1.14497  -1.13927  -1.13895  -1.13846
 Alpha  occ. eigenvalues --   -1.13585  -1.13554  -1.13529  -1.13516  -1.13493
 Alpha  occ. eigenvalues --   -1.13464  -1.13230  -1.13208  -1.13185  -1.13051
 Alpha  occ. eigenvalues --   -1.12997  -1.12962  -1.12787  -1.12691  -1.12643
 Alpha  occ. eigenvalues --   -0.18097  -0.14065  -0.11616  -0.10537
 Alpha virt. eigenvalues --   -0.06399  -0.05995  -0.04181  -0.03289  -0.02800
 Alpha virt. eigenvalues --   -0.02718  -0.01583  -0.01457  -0.00806  -0.00565
 Alpha virt. eigenvalues --   -0.00056   0.00073   0.00411   0.00599   0.00691

  Beta  occ. eigenvalues --  -38.44938 -38.44377 -38.44036 -38.44013 -38.43707
  Beta  occ. eigenvalues --  -38.43437 -38.43138  -2.20894  -2.20215  -2.19842
  Beta  occ. eigenvalues --   -2.19777  -2.19470  -2.19252  -2.19029  -1.14645
  Beta  occ. eigenvalues --   -1.14545  -1.14507  -1.13916  -1.13885  -1.13811
  Beta  occ. eigenvalues --   -1.13542  -1.13532  -1.13474  -1.13471  -1.13432
  Beta  occ. eigenvalues --   -1.13413  -1.13168  -1.13135  -1.13127  -1.12978
  Beta  occ. eigenvalues --   -1.12919  -1.12886  -1.12771  -1.12659  -1.12630
  Beta  occ. eigenvalues --   -0.17580  -0.13379  -0.11390
  Beta virt. eigenvalues --   -0.07068  -0.06206  -0.05857  -0.03691  -0.02939
  Beta virt. eigenvalues --   -0.02515  -0.02226  -0.01538  -0.01021  -0.00610
  Beta virt. eigenvalues --   -0.00251   0.00076   0.00157   0.00516   0.00676

 Mulliken charges and spin densities:
               1          2
     1  Na   0.003693   0.011774
     2  Na   0.343419   0.095381
     3  Na  -0.885568  -0.173590
     4  Na   0.306620   0.467933
     5  Na  -0.124571   0.204591
     6  Na   0.153769   0.057240
     7  Na   0.202639   0.336671
 Sum of Mulliken charges =  -0.00000   1.00000

 Dipole moment (field-independent basis, Debye):
    X=              0.2012    Y=              0.2457    Z=              0.4552  Tot=              0.5551
 Quadrupole moment (field-independent basis, Debye-Ang):
   XX=            -63.0904   YY=            -70.2983   ZZ=            -66.9947
   XY=              1.9211   XZ=              0.6087   YZ=              2.1792

 Normal termination of Gaussian 16 at Tue Dec  5 23:02:16 2023.
