 Gaussian 16, Revision B.01,
 Gaussian 16:  ES64L-G16RevB.01 20-Dec-2017

 -------------------------
 #P B3LYP/6-311+g(d) force
 -------------------------

 -----
 DPGEN
 -----
 Symbolic Z-matrix:
 Charge =  0 Multiplicity = 2

                         Standard orientation:
 ---------------------------------------------------------------------
 Center     Atomic      Atomic             Coordinates (Angstroms)
 Number     Number       Type             X           Y           Z
 ---------------------------------------------------------------------
      1         11           0        0.597154    3.036934   -1.025909
      2         11           0       -1.360642   -0.467268   -1.550655
      3         11           0        0.872944   -2.906824    0.949329
      4         11           0        2.366600   -1.011773   -1.612070
      5         11           0        2.104078    0.526286    1.373670
      6         11           0       -0.771564    1.484489    1.878249
      7         11           0       -3.808570   -0.661845   -0.012612
 ---------------------------------------------------------------------

 SCF Done:  E(UB3LYP) =  -1136.12386056     A.U. after   19 cycles

 The electronic state is 2-A.
 Alpha  occ. eigenvalues --  -38.44507 -38.44187 -38.44095 -38.43934 -38.43814
 Alpha  occ. eigenvalues --  -38.43649 -38.43445  -2.20285  -2.19971  -2.19924
 Alpha  occ. eigenvalues --   -2.19785  -2.19705  -2.19472  -2.19317  -1.13953
 Alpha  occ. eigenvalues --   -1.13938  -1.13917  -1.13638  -1.13626  -1.13606
 Alpha  occ. eigenvalues --   -1.13601  -1.13588  -1.13564  -1.13534  -1.13421
 Alpha  occ. eigenvalues --   -1.13402  -1.13365  -1.13355  -1.13297  -1.13276
 Alpha  occ. eigenvalues --   -1.13109  -1.13102  -1.12967  -1.12947  -1.12905
 Alpha  occ. eigenvalues --   -0.17702  -0.12652  -0.12116  -0.11397
 Alpha virt. eigenvalues --   -0.05823  -0.05231  -0.04572  -0.03441  -0.03257
 Alpha virt. eigenvalues --   -0.02901  -0.01346  -0.01335  -0.00574  -0.00030
 Alpha virt. eigenvalues --    0.00109   0.00286   0.00401   0.00565   0.00772

  Beta  occ. eigenvalues --  -38.44488 -38.44158 -38.44061 -38.43890 -38.43782
  Beta  occ. eigenvalues --  -38.43652 -38.43420  -2.20250  -2.19917  -2.19862
  Beta  occ. eigenvalues --   -2.19706  -2.19652  -2.19477  -2.19272  -1.13921
  Beta  occ. eigenvalues --   -1.13911  -1.13897  -1.13602  -1.13581  -1.13566
  Beta  occ. eigenvalues --   -1.13565  -1.13542  -1.13505  -1.13482  -1.13362
  Beta  occ. eigenvalues --   -1.13346  -1.13322  -1.13295  -1.13288  -1.13242
  Beta  occ. eigenvalues --   -1.13111  -1.13104  -1.12939  -1.12915  -1.12873
  Beta  occ. eigenvalues --   -0.16946  -0.12555  -0.11944
  Beta virt. eigenvalues --   -0.07598  -0.05625  -0.04770  -0.04234  -0.03110
  Beta virt. eigenvalues --   -0.02920  -0.02064  -0.01235  -0.01152  -0.00294
  Beta virt. eigenvalues --    0.00073   0.00180   0.00352   0.00500   0.00697

 Mulliken charges and spin densities:
               1          2
     1  Na  -0.212082   0.286448
     2  Na  -0.451915  -0.015846
     3  Na  -0.165414   0.104258
     4  Na   0.227552   0.161581
     5  Na   0.357091   0.285741
     6  Na  -0.068763   0.103530
     7  Na   0.313531   0.074289
 Sum of Mulliken charges =  -0.00000   1.00000

 Dipole moment (field-independent basis, Debye):
    X=              0.3148    Y=             -0.1164    Z=              0.2159  Tot=              0.3991
 Quadrupole moment (field-independent basis, Debye-Ang):
   XX=            -63.8913   YY=            -65.3134   ZZ=            -66.9807
   XY=              0.1021   XZ=             -4.7788   YZ=             -4.5241

 Normal termination of Gaussian 16 at Sun Dec  3 17:29:34 2023.
