 Gaussian 16, Revision B.01,
 Gaussian 16:  ES64L-G16RevB.01 20-Dec-2017

 -------------------------
 #P B3LYP/6-311+g(d) force
 -------------------------

 -----
 DPGEN
 -----
 Symbolic Z-matrix:
 Charge =  0 Multiplicity = 2

                         Standard orientation:
 ---------------------------------------------------------------------
 Center     Atomic      Atomic             Coordinates (Angstroms)
 Number     Number       Type             X           Y           Z
 ---------------------------------------------------------------------
      1         11           0        0.497889    0.194901   -1.948216
      2         11           0       -1.730861    2.499609   -0.534579
      3         11           0        0.737816    1.746849    1.971919
      4         11           0       -1.450562   -0.896193    1.992361
      5         11           0        3.567899    0.148426   -0.655544
      6         11           0        0.660011   -2.487406    0.657263
      7         11           0       -2.282192   -1.206187   -1.483204
 ---------------------------------------------------------------------

 SCF Done:  E(UB3LYP) =  -1136.12396888     A.U. after   25 cycles

 The electronic state is 2-A.
 Alpha  occ. eigenvalues --  -38.45136 -38.44406 -38.44124 -38.44026 -38.43457
 Alpha  occ. eigenvalues --  -38.43374 -38.43273  -2.20945  -2.20258  -2.20027
 Alpha  occ. eigenvalues --   -2.19939  -2.19240  -2.19224  -2.19070  -1.14628
 Alpha  occ. eigenvalues --   -1.14572  -1.14556  -1.13997  -1.13897  -1.13847
 Alpha  occ. eigenvalues --   -1.13752  -1.13662  -1.13639  -1.13612  -1.13590
 Alpha  occ. eigenvalues --   -1.13554  -1.12934  -1.12922  -1.12889  -1.12883
 Alpha  occ. eigenvalues --   -1.12875  -1.12820  -1.12749  -1.12736  -1.12714
 Alpha  occ. eigenvalues --   -0.18259  -0.12876  -0.12200  -0.11850
 Alpha virt. eigenvalues --   -0.05248  -0.05141  -0.04496  -0.03741  -0.03580
 Alpha virt. eigenvalues --   -0.03230  -0.01249  -0.00817  -0.00663  -0.00028
 Alpha virt. eigenvalues --    0.00331   0.00473   0.00557   0.00587   0.00807

  Beta  occ. eigenvalues --  -38.45060 -38.44362 -38.44073 -38.43966 -38.43452
  Beta  occ. eigenvalues --  -38.43371 -38.43280  -2.20807  -2.20179  -2.19934
  Beta  occ. eigenvalues --   -2.19832  -2.19232  -2.19220  -2.19086  -1.14522
  Beta  occ. eigenvalues --   -1.14479  -1.14459  -1.13924  -1.13849  -1.13794
  Beta  occ. eigenvalues --   -1.13691  -1.13586  -1.13571  -1.13539  -1.13513
  Beta  occ. eigenvalues --   -1.13473  -1.12921  -1.12908  -1.12884  -1.12873
  Beta  occ. eigenvalues --   -1.12868  -1.12823  -1.12761  -1.12744  -1.12714
  Beta  occ. eigenvalues --   -0.17374  -0.12025  -0.11670
  Beta virt. eigenvalues --   -0.08751  -0.05078  -0.04646  -0.04069  -0.03253
  Beta virt. eigenvalues --   -0.02943  -0.02814  -0.01139  -0.00679  -0.00407
  Beta virt. eigenvalues --    0.00146   0.00397   0.00517   0.00572   0.00756

 Mulliken charges and spin densities:
               1          2
     1  Na  -0.230197   0.519599
     2  Na  -0.224250  -0.093542
     3  Na  -0.180746   0.321610
     4  Na   0.351678   0.357498
     5  Na   0.223017  -0.038365
     6  Na  -0.299835  -0.074663
     7  Na   0.360333   0.007863
 Sum of Mulliken charges =  -0.00000   1.00000

 Dipole moment (field-independent basis, Debye):
    X=             -0.3346    Y=              0.0873    Z=              0.3035  Tot=              0.4601
 Quadrupole moment (field-independent basis, Debye-Ang):
   XX=            -63.1842   YY=            -70.8262   ZZ=            -63.5736
   XY=              0.6155   XZ=              2.2906   YZ=              4.3530

 Normal termination of Gaussian 16 at Mon Dec  4 01:23:19 2023.
