 Gaussian 16, Revision B.01,
 Gaussian 16:  ES64L-G16RevB.01 20-Dec-2017

 -------------------------
 #P B3LYP/6-311+g(d) force
 -------------------------

 -----
 DPGEN
 -----
 Symbolic Z-matrix:
 Charge =  0 Multiplicity = 2

                         Standard orientation:
 ---------------------------------------------------------------------
 Center     Atomic      Atomic             Coordinates (Angstroms)
 Number     Number       Type             X           Y           Z
 ---------------------------------------------------------------------
      1         11           0        0.040678   -0.498585    2.014771
      2         11           0        3.178919    0.365141    0.481552
      3         11           0       -0.199825   -0.264915   -1.838428
      4         11           0       -2.159151    1.639994    0.148002
      5         11           0        1.724242   -2.593822   -0.519321
      6         11           0        0.855524    2.670449   -0.407615
      7         11           0       -3.440387   -1.318261    0.121039
 ---------------------------------------------------------------------

 SCF Done:  E(UB3LYP) =  -1136.13109048     A.U. after   21 cycles

 The electronic state is 2-A.
 Alpha  occ. eigenvalues --  -38.44611 -38.44564 -38.44323 -38.43686 -38.43498
 Alpha  occ. eigenvalues --  -38.43426 -38.42499  -2.20438  -2.20352  -2.20165
 Alpha  occ. eigenvalues --   -2.19600  -2.19411  -2.19264  -2.18375  -1.14112
 Alpha  occ. eigenvalues --   -1.14098  -1.14075  -1.14034  -1.14012  -1.13989
 Alpha  occ. eigenvalues --   -1.13841  -1.13807  -1.13776  -1.13281  -1.13257
 Alpha  occ. eigenvalues --   -1.13221  -1.13092  -1.13078  -1.13041  -1.12938
 Alpha  occ. eigenvalues --   -1.12914  -1.12899  -1.12048  -1.12042  -1.12019
 Alpha  occ. eigenvalues --   -0.18404  -0.13462  -0.11857  -0.11015
 Alpha virt. eigenvalues --   -0.06440  -0.05094  -0.04180  -0.03501  -0.02784
 Alpha virt. eigenvalues --   -0.02767  -0.02069  -0.01038  -0.00496  -0.00164
 Alpha virt. eigenvalues --    0.00028   0.00307   0.00576   0.00761   0.00791

  Beta  occ. eigenvalues --  -38.44600 -38.44568 -38.44248 -38.43603 -38.43492
  Beta  occ. eigenvalues --  -38.43412 -38.42495  -2.20419  -2.20361  -2.20027
  Beta  occ. eigenvalues --   -2.19449  -2.19403  -2.19240  -2.18370  -1.14089
  Beta  occ. eigenvalues --   -1.14076  -1.14067  -1.14043  -1.14006  -1.13996
  Beta  occ. eigenvalues --   -1.13749  -1.13710  -1.13673  -1.13184  -1.13152
  Beta  occ. eigenvalues --   -1.13115  -1.13082  -1.13054  -1.13025  -1.12911
  Beta  occ. eigenvalues --   -1.12899  -1.12872  -1.12045  -1.12040  -1.11997
  Beta  occ. eigenvalues --   -0.17667  -0.13269  -0.11611
  Beta virt. eigenvalues --   -0.07147  -0.06300  -0.05044  -0.04063  -0.02841
  Beta virt. eigenvalues --   -0.02125  -0.01966  -0.01676  -0.00967  -0.00506
  Beta virt. eigenvalues --   -0.00077   0.00093   0.00332   0.00743   0.00822

 Mulliken charges and spin densities:
               1          2
     1  Na  -0.166699   0.407333
     2  Na   0.157410   0.127410
     3  Na   0.125823   0.374931
     4  Na   0.094146   0.132932
     5  Na  -0.106814  -0.010674
     6  Na  -0.151287   0.022027
     7  Na   0.047422  -0.053959
 Sum of Mulliken charges =  -0.00000   1.00000

 Dipole moment (field-independent basis, Debye):
    X=             -0.1455    Y=             -0.5366    Z=              0.2752  Tot=              0.6204
 Quadrupole moment (field-independent basis, Debye-Ang):
   XX=            -53.5823   YY=            -68.1756   ZZ=            -72.7864
   XY=              1.9908   XZ=              0.3166   YZ=              0.6099

 Normal termination of Gaussian 16 at Tue Dec  5 20:38:24 2023.
