 Gaussian 16, Revision B.01,
 Gaussian 16:  ES64L-G16RevB.01 20-Dec-2017

 -------------------------
 #P B3LYP/6-311+g(d) force
 -------------------------

 -----
 DPGEN
 -----
 Symbolic Z-matrix:
 Charge =  0 Multiplicity = 2

                         Standard orientation:
 ---------------------------------------------------------------------
 Center     Atomic      Atomic             Coordinates (Angstroms)
 Number     Number       Type             X           Y           Z
 ---------------------------------------------------------------------
      1         11           0       -1.156861   -2.121089    1.288082
      2         11           0       -2.066182    1.748022   -0.533988
      3         11           0        1.245385   -1.023186   -1.636076
      4         11           0        0.296077    3.266203    0.383996
      5         11           0        4.587210   -0.641295   -0.677456
      6         11           0        1.566114   -0.180087    1.767941
      7         11           0       -4.471743   -1.048568   -0.592499
 ---------------------------------------------------------------------

 SCF Done:  E(UB3LYP) =  -1136.11425716     A.U. after   20 cycles

 The electronic state is 2-A.
 Alpha  occ. eigenvalues --  -38.46140 -38.44894 -38.44819 -38.44181 -38.43923
 Alpha  occ. eigenvalues --  -38.43312 -38.42520  -2.21905  -2.20678  -2.20655
 Alpha  occ. eigenvalues --   -2.19948  -2.19727  -2.19157  -2.18356  -1.15580
 Alpha  occ. eigenvalues --   -1.15574  -1.15530  -1.14343  -1.14336  -1.14331
 Alpha  occ. eigenvalues --   -1.14301  -1.14288  -1.14272  -1.13612  -1.13603
 Alpha  occ. eigenvalues --   -1.13566  -1.13407  -1.13398  -1.13336  -1.12854
 Alpha  occ. eigenvalues --   -1.12841  -1.12795  -1.12035  -1.12001  -1.11985
 Alpha  occ. eigenvalues --   -0.17075  -0.13496  -0.11653  -0.11269
 Alpha virt. eigenvalues --   -0.07161  -0.05041  -0.04576  -0.03491  -0.03054
 Alpha virt. eigenvalues --   -0.02435  -0.02312  -0.01460  -0.01105  -0.00499
 Alpha virt. eigenvalues --   -0.00333  -0.00057   0.00178   0.00434   0.00659

  Beta  occ. eigenvalues --  -38.46136 -38.44843 -38.44762 -38.44137 -38.43878
  Beta  occ. eigenvalues --  -38.43300 -38.42522  -2.21899  -2.20583  -2.20554
  Beta  occ. eigenvalues --   -2.19866  -2.19648  -2.19135  -2.18360  -1.15576
  Beta  occ. eigenvalues --   -1.15564  -1.15517  -1.14270  -1.14267  -1.14266
  Beta  occ. eigenvalues --   -1.14233  -1.14208  -1.14205  -1.13556  -1.13541
  Beta  occ. eigenvalues --   -1.13515  -1.13353  -1.13346  -1.13261  -1.12831
  Beta  occ. eigenvalues --   -1.12826  -1.12784  -1.12038  -1.12001  -1.11986
  Beta  occ. eigenvalues --   -0.16484  -0.12860  -0.11474
  Beta virt. eigenvalues --   -0.07738  -0.06927  -0.04559  -0.04331  -0.03282
  Beta virt. eigenvalues --   -0.02694  -0.02149  -0.01933  -0.01121  -0.00825
  Beta virt. eigenvalues --   -0.00332  -0.00248   0.00112   0.00303   0.00574

 Mulliken charges and spin densities:
               1          2
     1  Na  -0.007963   0.066930
     2  Na  -0.624848   0.162137
     3  Na  -0.095463   0.165183
     4  Na   0.352440  -0.056463
     5  Na   0.163822   0.183744
     6  Na   0.044706   0.285848
     7  Na   0.167305   0.192620
 Sum of Mulliken charges =  -0.00000   1.00000

 Dipole moment (field-independent basis, Debye):
    X=              1.6553    Y=             -1.0326    Z=             -0.1395  Tot=              1.9560
 Quadrupole moment (field-independent basis, Debye-Ang):
   XX=            -56.2017   YY=            -76.3902   ZZ=            -66.4116
   XY=              3.4873   XZ=              3.8698   YZ=              1.6173

 Normal termination of Gaussian 16 at Mon Dec  4 01:15:06 2023.
