 Gaussian 16, Revision B.01,
 Gaussian 16:  ES64L-G16RevB.01 20-Dec-2017

 -------------------------
 #P B3LYP/6-311+g(d) force
 -------------------------

 -----
 DPGEN
 -----
 Symbolic Z-matrix:
 Charge =  0 Multiplicity = 2

                         Standard orientation:
 ---------------------------------------------------------------------
 Center     Atomic      Atomic             Coordinates (Angstroms)
 Number     Number       Type             X           Y           Z
 ---------------------------------------------------------------------
      1         11           0       -0.764605    2.689029   -0.493597
      2         11           0        2.167820    1.845948   -0.061703
      3         11           0        2.710810   -1.741866    0.038610
      4         11           0       -1.148153   -2.707228   -0.084292
      5         11           0       -3.164919    0.060651   -0.042549
      6         11           0       -0.074794    0.286843    2.168399
      7         11           0        0.273840   -0.433376   -1.524867
 ---------------------------------------------------------------------

 SCF Done:  E(UB3LYP) =  -1136.13596428     A.U. after   19 cycles

 The electronic state is 2-A.
 Alpha  occ. eigenvalues --  -38.43915 -38.43909 -38.43775 -38.43734 -38.43527
 Alpha  occ. eigenvalues --  -38.43242 -38.43069  -2.19734  -2.19732  -2.19631
 Alpha  occ. eigenvalues --   -2.19603  -2.19432  -2.19133  -2.19089  -1.13431
 Alpha  occ. eigenvalues --   -1.13405  -1.13403  -1.13389  -1.13386  -1.13371
 Alpha  occ. eigenvalues --   -1.13361  -1.13285  -1.13266  -1.13233  -1.13230
 Alpha  occ. eigenvalues --   -1.13221  -1.13155  -1.13086  -1.13074  -1.12815
 Alpha  occ. eigenvalues --   -1.12777  -1.12767  -1.12759  -1.12728  -1.12697
 Alpha  occ. eigenvalues --   -0.18752  -0.12953  -0.12619  -0.10814
 Alpha virt. eigenvalues --   -0.05610  -0.05110  -0.04713  -0.03122  -0.02997
 Alpha virt. eigenvalues --   -0.02620  -0.01480  -0.01111  -0.00370  -0.00211
 Alpha virt. eigenvalues --   -0.00018   0.00352   0.00828   0.00866   0.00923

  Beta  occ. eigenvalues --  -38.43914 -38.43908 -38.43771 -38.43631 -38.43519
  Beta  occ. eigenvalues --  -38.43229 -38.43016  -2.19734  -2.19732  -2.19626
  Beta  occ. eigenvalues --   -2.19423  -2.19413  -2.19113  -2.18992  -1.13426
  Beta  occ. eigenvalues --   -1.13405  -1.13393  -1.13382  -1.13375  -1.13371
  Beta  occ. eigenvalues --   -1.13354  -1.13264  -1.13234  -1.13164  -1.13129
  Beta  occ. eigenvalues --   -1.13096  -1.13088  -1.13074  -1.13040  -1.12793
  Beta  occ. eigenvalues --   -1.12758  -1.12739  -1.12691  -1.12660  -1.12629
  Beta  occ. eigenvalues --   -0.18020  -0.12731  -0.12400
  Beta virt. eigenvalues --   -0.06847  -0.05601  -0.05074  -0.04663  -0.02326
  Beta virt. eigenvalues --   -0.02243  -0.01530  -0.01409  -0.01034  -0.00415
  Beta virt. eigenvalues --   -0.00249   0.00139   0.00381   0.00858   0.00894

 Mulliken charges and spin densities:
               1          2
     1  Na   0.124281   0.046888
     2  Na   0.341925   0.064151
     3  Na   0.177270  -0.032702
     4  Na   0.180851  -0.060202
     5  Na   0.087523  -0.009104
     6  Na  -0.656738   0.755570
     7  Na  -0.255111   0.235400
 Sum of Mulliken charges =  -0.00000   1.00000

 Dipole moment (field-independent basis, Debye):
    X=             -0.0235    Y=             -0.2703    Z=              0.2613  Tot=              0.3767
 Quadrupole moment (field-independent basis, Debye-Ang):
   XX=            -57.1489   YY=            -62.4972   ZZ=            -74.1393
   XY=             -0.7667   XZ=              0.8262   YZ=             -1.5135

 Normal termination of Gaussian 16 at Fri Dec  8 05:13:20 2023.
