 Gaussian 16, Revision B.01,
 Gaussian 16:  ES64L-G16RevB.01 20-Dec-2017

 -------------------------
 #P B3LYP/6-311+g(d) force
 -------------------------

 -----
 DPGEN
 -----
 Symbolic Z-matrix:
 Charge =  0 Multiplicity = 2

                         Standard orientation:
 ---------------------------------------------------------------------
 Center     Atomic      Atomic             Coordinates (Angstroms)
 Number     Number       Type             X           Y           Z
 ---------------------------------------------------------------------
      1         11           0       -2.665874    1.083217    0.362404
      2         11           0       -2.337014   -2.163684   -0.468602
      3         11           0        3.304009    0.345714   -0.338790
      4         11           0       -0.323728    0.063244   -1.549780
      5         11           0        0.341504    3.199920   -0.345548
      6         11           0        0.109346    0.279917    2.100472
      7         11           0        1.571756   -2.808327    0.239844
 ---------------------------------------------------------------------

 SCF Done:  E(UB3LYP) =  -1136.13422806     A.U. after   19 cycles

 The electronic state is 2-A.
 Alpha  occ. eigenvalues --  -38.44348 -38.43957 -38.43739 -38.43738 -38.43700
 Alpha  occ. eigenvalues --  -38.43577 -38.43246  -2.20115  -2.19731  -2.19631
 Alpha  occ. eigenvalues --   -2.19604  -2.19503  -2.19419  -2.19212  -1.13798
 Alpha  occ. eigenvalues --   -1.13769  -1.13751  -1.13411  -1.13392  -1.13368
 Alpha  occ. eigenvalues --   -1.13355  -1.13318  -1.13263  -1.13252  -1.13227
 Alpha  occ. eigenvalues --   -1.13208  -1.13188  -1.13155  -1.13140  -1.13126
 Alpha  occ. eigenvalues --   -1.13065  -1.13047  -1.12897  -1.12842  -1.12824
 Alpha  occ. eigenvalues --   -0.18218  -0.12816  -0.12348  -0.10661
 Alpha virt. eigenvalues --   -0.05710  -0.05173  -0.05067  -0.03140  -0.02863
 Alpha virt. eigenvalues --   -0.02495  -0.01480  -0.01355  -0.00649  -0.00517
 Alpha virt. eigenvalues --   -0.00017   0.00338   0.00760   0.00827   0.00847

  Beta  occ. eigenvalues --  -38.44346 -38.43955 -38.43725 -38.43693 -38.43642
  Beta  occ. eigenvalues --  -38.43568 -38.43193  -2.20111  -2.19730  -2.19612
  Beta  occ. eigenvalues --   -2.19493  -2.19424  -2.19405  -2.19115  -1.13786
  Beta  occ. eigenvalues --   -1.13768  -1.13747  -1.13396  -1.13391  -1.13370
  Beta  occ. eigenvalues --   -1.13338  -1.13264  -1.13245  -1.13171  -1.13154
  Beta  occ. eigenvalues --   -1.13145  -1.13130  -1.13105  -1.13100  -1.13081
  Beta  occ. eigenvalues --   -1.13049  -1.13037  -1.12830  -1.12774  -1.12752
  Beta  occ. eigenvalues --   -0.17508  -0.12614  -0.12111
  Beta virt. eigenvalues --   -0.06771  -0.05694  -0.05092  -0.04974  -0.02406
  Beta virt. eigenvalues --   -0.02181  -0.01487  -0.01380  -0.01280  -0.00659
  Beta virt. eigenvalues --   -0.00539   0.00129   0.00381   0.00785   0.00846

 Mulliken charges and spin densities:
               1          2
     1  Na   0.404388   0.118395
     2  Na   0.088604  -0.011347
     3  Na  -0.085997  -0.067116
     4  Na  -0.041671   0.413343
     5  Na  -0.024206  -0.068448
     6  Na  -0.284519   0.640411
     7  Na  -0.056599  -0.025238
 Sum of Mulliken charges =  -0.00000   1.00000

 Dipole moment (field-independent basis, Debye):
    X=              0.2627    Y=              0.0453    Z=              0.1245  Tot=              0.2942
 Quadrupole moment (field-independent basis, Debye-Ang):
   XX=            -58.4145   YY=            -59.6686   ZZ=            -75.0689
   XY=              0.7652   XZ=             -0.9435   YZ=             -0.4798

 Normal termination of Gaussian 16 at Fri Dec  8 06:25:02 2023.
