 Gaussian 16, Revision B.01,
 Gaussian 16:  ES64L-G16RevB.01 20-Dec-2017

 -------------------------
 #P B3LYP/6-311+g(d) force
 -------------------------

 -----
 DPGEN
 -----
 Symbolic Z-matrix:
 Charge =  0 Multiplicity = 2

                         Standard orientation:
 ---------------------------------------------------------------------
 Center     Atomic      Atomic             Coordinates (Angstroms)
 Number     Number       Type             X           Y           Z
 ---------------------------------------------------------------------
      1         11           0       -1.390500   -2.932921   -0.089843
      2         11           0        2.398326    2.007686   -0.302637
      3         11           0       -3.275139   -0.043666    0.041572
      4         11           0        3.366078   -1.599970   -0.057026
      5         11           0       -1.287522    2.858894   -0.040419
      6         11           0       -0.140548   -0.267518   -1.552230
      7         11           0        0.329304   -0.022505    2.000583
 ---------------------------------------------------------------------

 SCF Done:  E(UB3LYP) =  -1136.13117660     A.U. after   21 cycles

 The electronic state is 2-A.
 Alpha  occ. eigenvalues --  -38.44903 -38.44481 -38.44232 -38.43735 -38.43441
 Alpha  occ. eigenvalues --  -38.43364 -38.43242  -2.20642  -2.20300  -2.20030
 Alpha  occ. eigenvalues --   -2.19552  -2.19291  -2.19278  -2.19052  -1.14317
 Alpha  occ. eigenvalues --   -1.14304  -1.14279  -1.13977  -1.13961  -1.13939
 Alpha  occ. eigenvalues --   -1.13712  -1.13700  -1.13651  -1.13245  -1.13206
 Alpha  occ. eigenvalues --   -1.13190  -1.12996  -1.12950  -1.12917  -1.12912
 Alpha  occ. eigenvalues --   -1.12901  -1.12896  -1.12722  -1.12716  -1.12700
 Alpha  occ. eigenvalues --   -0.17943  -0.13153  -0.12015  -0.10117
 Alpha virt. eigenvalues --   -0.06406  -0.05580  -0.04748  -0.03148  -0.02519
 Alpha virt. eigenvalues --   -0.02248  -0.02035  -0.01449  -0.00912  -0.00632
 Alpha virt. eigenvalues --   -0.00043   0.00286   0.00663   0.00719   0.00797

  Beta  occ. eigenvalues --  -38.44906 -38.44478 -38.44223 -38.43732 -38.43344
  Beta  occ. eigenvalues --  -38.43309 -38.43240  -2.20649  -2.20297  -2.20016
  Beta  occ. eigenvalues --   -2.19549  -2.19179  -2.19112  -2.19051  -1.14312
  Beta  occ. eigenvalues --   -1.14307  -1.14286  -1.13968  -1.13951  -1.13939
  Beta  occ. eigenvalues --   -1.13695  -1.13678  -1.13645  -1.13238  -1.13196
  Beta  occ. eigenvalues --   -1.13184  -1.12912  -1.12842  -1.12838  -1.12825
  Beta  occ. eigenvalues --   -1.12791  -1.12772  -1.12719  -1.12701  -1.12697
  Beta  occ. eigenvalues --   -0.17248  -0.12969  -0.11827
  Beta virt. eigenvalues --   -0.06393  -0.06242  -0.05509  -0.04730  -0.02423
  Beta virt. eigenvalues --   -0.01974  -0.01840  -0.01371  -0.01196  -0.00938
  Beta virt. eigenvalues --   -0.00665   0.00127   0.00330   0.00694   0.00773

 Mulliken charges and spin densities:
               1          2
     1  Na   0.153275  -0.098779
     2  Na   0.115684   0.008570
     3  Na   0.183566   0.026778
     4  Na   0.021395  -0.103403
     5  Na  -0.038564  -0.034634
     6  Na  -0.070983   0.421841
     7  Na  -0.364373   0.779627
 Sum of Mulliken charges =  -0.00000   1.00000

 Dipole moment (field-independent basis, Debye):
    X=              0.3002    Y=             -0.3316    Z=              0.0072  Tot=              0.4474
 Quadrupole moment (field-independent basis, Debye-Ang):
   XX=            -52.0639   YY=            -61.3687   ZZ=            -78.1388
   XY=             -0.8946   XZ=             -1.1369   YZ=             -0.5333

 Normal termination of Gaussian 16 at Thu Dec  7 20:33:02 2023.
