 Gaussian 16, Revision B.01,
 Gaussian 16:  ES64L-G16RevB.01 20-Dec-2017

 -------------------------
 #P B3LYP/6-311+g(d) force
 -------------------------

 -----
 DPGEN
 -----
 Symbolic Z-matrix:
 Charge =  0 Multiplicity = 2

                         Standard orientation:
 ---------------------------------------------------------------------
 Center     Atomic      Atomic             Coordinates (Angstroms)
 Number     Number       Type             X           Y           Z
 ---------------------------------------------------------------------
      1         11           0       -1.770892    1.454778   -0.806672
      2         11           0        1.981333    1.229117    0.515042
      3         11           0        1.070550   -2.346366   -0.775711
      4         11           0       -1.604730   -1.569291    1.517781
      5         11           0       -3.971697   -1.210845   -0.384983
      6         11           0        4.137289   -1.271837   -0.176324
      7         11           0        0.158146    3.714444    0.110868
 ---------------------------------------------------------------------

 SCF Done:  E(UB3LYP) =  -1136.12178634     A.U. after   22 cycles

 The electronic state is 2-A.
 Alpha  occ. eigenvalues --  -38.44536 -38.44425 -38.44419 -38.43858 -38.43697
 Alpha  occ. eigenvalues --  -38.43558 -38.43191  -2.20344  -2.20278  -2.20270
 Alpha  occ. eigenvalues --   -2.19722  -2.19570  -2.19419  -2.19042  -1.14035
 Alpha  occ. eigenvalues --   -1.14007  -1.13975  -1.13973  -1.13970  -1.13958
 Alpha  occ. eigenvalues --   -1.13942  -1.13919  -1.13898  -1.13430  -1.13373
 Alpha  occ. eigenvalues --   -1.13360  -1.13240  -1.13212  -1.13202  -1.13070
 Alpha  occ. eigenvalues --   -1.13051  -1.13042  -1.12702  -1.12684  -1.12667
 Alpha  occ. eigenvalues --   -0.17244  -0.13888  -0.13265  -0.09701
 Alpha virt. eigenvalues --   -0.06676  -0.05322  -0.04984  -0.03298  -0.02850
 Alpha virt. eigenvalues --   -0.02452  -0.01701  -0.01340  -0.00925  -0.00786
 Alpha virt. eigenvalues --   -0.00177   0.00012   0.00366   0.00570   0.00658

  Beta  occ. eigenvalues --  -38.44517 -38.44416 -38.44399 -38.43822 -38.43697
  Beta  occ. eigenvalues --  -38.43513 -38.43140  -2.20315  -2.20263  -2.20236
  Beta  occ. eigenvalues --   -2.19657  -2.19569  -2.19337  -2.18945  -1.14019
  Beta  occ. eigenvalues --   -1.13986  -1.13966  -1.13956  -1.13941  -1.13923
  Beta  occ. eigenvalues --   -1.13918  -1.13894  -1.13852  -1.13383  -1.13331
  Beta  occ. eigenvalues --   -1.13296  -1.13239  -1.13210  -1.13201  -1.13014
  Beta  occ. eigenvalues --   -1.12990  -1.12981  -1.12633  -1.12616  -1.12609
  Beta  occ. eigenvalues --   -0.16789  -0.13373  -0.12985
  Beta virt. eigenvalues --   -0.06549  -0.06136  -0.05188  -0.04681  -0.02942
  Beta virt. eigenvalues --   -0.02502  -0.02186  -0.01537  -0.01126  -0.00795
  Beta virt. eigenvalues --   -0.00356   0.00202   0.00251   0.00521   0.00631

 Mulliken charges and spin densities:
               1          2
     1  Na  -0.839812   0.161351
     2  Na  -1.126845   0.103776
     3  Na  -0.371177   0.017577
     4  Na   0.168018   0.259969
     5  Na   0.328410   0.218252
     6  Na   0.721587   0.262394
     7  Na   1.119818  -0.023319
 Sum of Mulliken charges =  -0.00000   1.00000

 Dipole moment (field-independent basis, Debye):
    X=              0.0329    Y=              0.1300    Z=              0.1949  Tot=              0.2366
 Quadrupole moment (field-independent basis, Debye-Ang):
   XX=            -73.3244   YY=            -62.1019   ZZ=            -67.2099
   XY=              2.9367   XZ=              0.2218   YZ=              3.0565

 Normal termination of Gaussian 16 at Tue Nov 28 19:04:19 2023.
