 Gaussian 16, Revision B.01,
 Gaussian 16:  ES64L-G16RevB.01 20-Dec-2017

 -------------------------
 #P B3LYP/6-311+g(d) force
 -------------------------

 -----
 DPGEN
 -----
 Symbolic Z-matrix:
 Charge =  0 Multiplicity = 2

                         Standard orientation:
 ---------------------------------------------------------------------
 Center     Atomic      Atomic             Coordinates (Angstroms)
 Number     Number       Type             X           Y           Z
 ---------------------------------------------------------------------
      1         11           0        0.340895   -2.655898   -1.270368
      2         11           0       -5.449245    0.791377    0.121958
      3         11           0        0.029894   -1.501028    2.400111
      4         11           0       -2.544198   -0.133520   -0.440058
      5         11           0        0.376718    2.463998   -0.853358
      6         11           0        3.688940    2.372137    0.601704
      7         11           0        3.556997   -1.337066   -0.559990
 ---------------------------------------------------------------------

 SCF Done:  E(UB3LYP) =  -1136.10341568     A.U. after   24 cycles

 The electronic state is 2-A.
 Alpha  occ. eigenvalues --  -38.45802 -38.45084 -38.44583 -38.44328 -38.44213
 Alpha  occ. eigenvalues --  -38.44165 -38.43415  -2.21552  -2.20825  -2.20345
 Alpha  occ. eigenvalues --   -2.20110  -2.20021  -2.19909  -2.19235  -1.15208
 Alpha  occ. eigenvalues --   -1.15197  -1.15155  -1.14505  -1.14486  -1.14429
 Alpha  occ. eigenvalues --   -1.14038  -1.14007  -1.13985  -1.13785  -1.13753
 Alpha  occ. eigenvalues --   -1.13716  -1.13687  -1.13657  -1.13653  -1.13593
 Alpha  occ. eigenvalues --   -1.13571  -1.13554  -1.12932  -1.12911  -1.12866
 Alpha  occ. eigenvalues --   -0.16195  -0.13268  -0.12142  -0.10627
 Alpha virt. eigenvalues --   -0.07878  -0.05492  -0.04752  -0.03203  -0.02965
 Alpha virt. eigenvalues --   -0.02779  -0.02284  -0.01755  -0.01181  -0.00802
 Alpha virt. eigenvalues --   -0.00652  -0.00134   0.00030   0.00273   0.00594

  Beta  occ. eigenvalues --  -38.45726 -38.45051 -38.44594 -38.44258 -38.44181
  Beta  occ. eigenvalues --  -38.44155 -38.43421  -2.21411  -2.20763  -2.20369
  Beta  occ. eigenvalues --   -2.19980  -2.19939  -2.19913  -2.19250  -1.15111
  Beta  occ. eigenvalues --   -1.15098  -1.15062  -1.14462  -1.14442  -1.14393
  Beta  occ. eigenvalues --   -1.14057  -1.14017  -1.13987  -1.13695  -1.13668
  Beta  occ. eigenvalues --   -1.13630  -1.13618  -1.13615  -1.13585  -1.13582
  Beta  occ. eigenvalues --   -1.13579  -1.13570  -1.12945  -1.12919  -1.12853
  Beta  occ. eigenvalues --   -0.15766  -0.12727  -0.11799
  Beta virt. eigenvalues --   -0.07567  -0.07138  -0.05415  -0.04359  -0.02873
  Beta virt. eigenvalues --   -0.02742  -0.02463  -0.01904  -0.01523  -0.00933
  Beta virt. eigenvalues --   -0.00689  -0.00339  -0.00032   0.00205   0.00349

 Mulliken charges and spin densities:
               1          2
     1  Na   2.044062   0.188197
     2  Na  -1.047749  -0.009603
     3  Na   0.133717   0.334834
     4  Na  -1.036272   0.066943
     5  Na   0.455814   0.185137
     6  Na   0.155152  -0.086982
     7  Na  -0.704724   0.321474
 Sum of Mulliken charges =  -0.00000   1.00000

 Dipole moment (field-independent basis, Debye):
    X=              0.2818    Y=             -0.2782    Z=              1.0355  Tot=              1.1086
 Quadrupole moment (field-independent basis, Debye-Ang):
   XX=            -66.1394   YY=            -73.2290   ZZ=            -63.7887
   XY=              0.9603   XZ=              3.1426   YZ=              0.4759

 Normal termination of Gaussian 16 at Sun Dec  3 16:26:07 2023.
