 Gaussian 16, Revision B.01,
 Gaussian 16:  ES64L-G16RevB.01 20-Dec-2017

 -------------------------
 #P B3LYP/6-311+g(d) force
 -------------------------

 -----
 DPGEN
 -----
 Symbolic Z-matrix:
 Charge =  0 Multiplicity = 2

                         Standard orientation:
 ---------------------------------------------------------------------
 Center     Atomic      Atomic             Coordinates (Angstroms)
 Number     Number       Type             X           Y           Z
 ---------------------------------------------------------------------
      1         11           0        0.632954    2.530808    0.090188
      2         11           0        4.367763    0.026829    0.213384
      3         11           0        1.044519   -0.729209   -1.473428
      4         11           0       -3.302584    0.277821    1.459669
      5         11           0        1.469349   -1.135720    1.308974
      6         11           0       -2.234822    1.125633   -1.110755
      7         11           0       -1.977180   -2.096163   -0.488032
 ---------------------------------------------------------------------

 SCF Done:  E(UB3LYP) =  -1136.11457943     A.U. after   25 cycles

 The electronic state is 2-A.
 Alpha  occ. eigenvalues --  -38.45256 -38.44936 -38.44374 -38.43890 -38.43645
 Alpha  occ. eigenvalues --  -38.42960 -38.42802  -2.21057  -2.20816  -2.20264
 Alpha  occ. eigenvalues --   -2.19848  -2.19579  -2.18837  -2.18607  -1.14726
 Alpha  occ. eigenvalues --   -1.14701  -1.14679  -1.14613  -1.14461  -1.14392
 Alpha  occ. eigenvalues --   -1.14002  -1.13888  -1.13859  -1.13569  -1.13466
 Alpha  occ. eigenvalues --   -1.13427  -1.13272  -1.13235  -1.13194  -1.12527
 Alpha  occ. eigenvalues --   -1.12505  -1.12465  -1.12296  -1.12280  -1.12227
 Alpha  occ. eigenvalues --   -0.18224  -0.14560  -0.11054  -0.10897
 Alpha virt. eigenvalues --   -0.06936  -0.04857  -0.04770  -0.03232  -0.03105
 Alpha virt. eigenvalues --   -0.02238  -0.02130  -0.00943  -0.00714  -0.00371
 Alpha virt. eigenvalues --   -0.00049   0.00091   0.00286   0.00657   0.00836

  Beta  occ. eigenvalues --  -38.45207 -38.44935 -38.44297 -38.43832 -38.43634
  Beta  occ. eigenvalues --  -38.42950 -38.42798  -2.20964  -2.20817  -2.20121
  Beta  occ. eigenvalues --   -2.19745  -2.19566  -2.18825  -2.18602  -1.14658
  Beta  occ. eigenvalues --   -1.14644  -1.14623  -1.14595  -1.14464  -1.14380
  Beta  occ. eigenvalues --   -1.13912  -1.13790  -1.13760  -1.13508  -1.13378
  Beta  occ. eigenvalues --   -1.13349  -1.13249  -1.13213  -1.13169  -1.12520
  Beta  occ. eigenvalues --   -1.12498  -1.12425  -1.12295  -1.12261  -1.12228
  Beta  occ. eigenvalues --   -0.17599  -0.13953  -0.10832
  Beta virt. eigenvalues --   -0.07350  -0.06664  -0.04729  -0.04184  -0.03167
  Beta virt. eigenvalues --   -0.02762  -0.01715  -0.01568  -0.00753  -0.00428
  Beta virt. eigenvalues --   -0.00285   0.00136   0.00202   0.00372   0.00749

 Mulliken charges and spin densities:
               1          2
     1  Na  -0.379222  -0.159095
     2  Na   0.385553   0.190683
     3  Na  -0.211953   0.354475
     4  Na   0.031952   0.344381
     5  Na  -0.245956   0.090757
     6  Na   0.272004   0.119850
     7  Na   0.147623   0.058949
 Sum of Mulliken charges =  -0.00000   1.00000

 Dipole moment (field-independent basis, Debye):
    X=              1.4356    Y=             -0.2312    Z=              0.2463  Tot=              1.4749
 Quadrupole moment (field-independent basis, Debye-Ang):
   XX=            -55.8699   YY=            -79.1017   ZZ=            -63.1143
   XY=              2.3262   XZ=             -1.2808   YZ=              0.7379

 Normal termination of Gaussian 16 at Tue Dec  5 14:05:16 2023.
