 Gaussian 16, Revision B.01,
 Gaussian 16:  ES64L-G16RevB.01 20-Dec-2017

 -------------------------
 #P B3LYP/6-311+g(d) force
 -------------------------

 -----
 DPGEN
 -----
 Symbolic Z-matrix:
 Charge =  0 Multiplicity = 2

                         Standard orientation:
 ---------------------------------------------------------------------
 Center     Atomic      Atomic             Coordinates (Angstroms)
 Number     Number       Type             X           Y           Z
 ---------------------------------------------------------------------
      1         11           0       -2.745015   -1.090830    0.566380
      2         11           0        0.014037   -1.740924    1.023877
      3         11           0        0.927575    1.305796    1.990591
      4         11           0       -2.004274    2.009585   -0.423095
      5         11           0        1.085306    1.752723   -1.182290
      6         11           0       -0.284016   -1.418585   -1.844176
      7         11           0        3.006387   -0.817764   -0.131287
 ---------------------------------------------------------------------

 SCF Done:  E(UB3LYP) =  -1136.12855773     A.U. after   21 cycles

 The electronic state is 2-A.
 Alpha  occ. eigenvalues --  -38.44193 -38.44088 -38.43875 -38.43759 -38.43206
 Alpha  occ. eigenvalues --  -38.43187 -38.43126  -2.20079  -2.20019  -2.19729
 Alpha  occ. eigenvalues --   -2.19667  -2.19166  -2.19125  -2.19057  -1.13777
 Alpha  occ. eigenvalues --   -1.13763  -1.13732  -1.13675  -1.13656  -1.13608
 Alpha  occ. eigenvalues --   -1.13454  -1.13407  -1.13393  -1.13366  -1.13302
 Alpha  occ. eigenvalues --   -1.13283  -1.12845  -1.12837  -1.12801  -1.12786
 Alpha  occ. eigenvalues --   -1.12772  -1.12760  -1.12713  -1.12703  -1.12670
 Alpha  occ. eigenvalues --   -0.19166  -0.13135  -0.12102  -0.11879
 Alpha virt. eigenvalues --   -0.05471  -0.04673  -0.04119  -0.03718  -0.03322
 Alpha virt. eigenvalues --   -0.03067  -0.01403  -0.00533  -0.00400   0.00325
 Alpha virt. eigenvalues --    0.00377   0.00415   0.00683   0.00850   0.00950

  Beta  occ. eigenvalues --  -38.44126 -38.44030 -38.43873 -38.43751 -38.43202
  Beta  occ. eigenvalues --  -38.43157 -38.43094  -2.19955  -2.19912  -2.19728
  Beta  occ. eigenvalues --   -2.19655  -2.19112  -2.19073  -2.19052  -1.13712
  Beta  occ. eigenvalues --   -1.13679  -1.13641  -1.13588  -1.13571  -1.13533
  Beta  occ. eigenvalues --   -1.13437  -1.13397  -1.13395  -1.13350  -1.13294
  Beta  occ. eigenvalues --   -1.13266  -1.12820  -1.12793  -1.12747  -1.12739
  Beta  occ. eigenvalues --   -1.12724  -1.12720  -1.12707  -1.12687  -1.12656
  Beta  occ. eigenvalues --   -0.18346  -0.12943  -0.11927
  Beta virt. eigenvalues --   -0.07800  -0.05358  -0.04616  -0.03605  -0.03426
  Beta virt. eigenvalues --   -0.02606  -0.02005  -0.01343  -0.00524  -0.00104
  Beta virt. eigenvalues --    0.00329   0.00392   0.00446   0.00850   0.00948

 Mulliken charges and spin densities:
               1          2
     1  Na   0.142694  -0.070034
     2  Na   0.681831   0.179486
     3  Na  -0.637415   0.290103
     4  Na  -0.059255  -0.034288
     5  Na   0.115595   0.227762
     6  Na  -0.782189   0.438500
     7  Na   0.538739  -0.031529
 Sum of Mulliken charges =  -0.00000   1.00000

 Dipole moment (field-independent basis, Debye):
    X=              0.2898    Y=              0.0099    Z=             -0.0028  Tot=              0.2900
 Quadrupole moment (field-independent basis, Debye-Ang):
   XX=            -58.1050   YY=            -72.7432   ZZ=            -65.1218
   XY=             -0.5557   XZ=             -0.5671   YZ=              1.1321

 Normal termination of Gaussian 16 at Thu Dec  7 02:00:42 2023.
