 Gaussian 16, Revision B.01,
 Gaussian 16:  ES64L-G16RevB.01 20-Dec-2017

 -------------------------
 #P B3LYP/6-311+g(d) force
 -------------------------

 -----
 DPGEN
 -----
 Symbolic Z-matrix:
 Charge =  0 Multiplicity = 2

                         Standard orientation:
 ---------------------------------------------------------------------
 Center     Atomic      Atomic             Coordinates (Angstroms)
 Number     Number       Type             X           Y           Z
 ---------------------------------------------------------------------
      1         11           0       -1.125413    0.208019    1.927211
      2         11           0       -2.265557    1.613691   -0.978096
      3         11           0        0.169226   -0.816736   -1.081864
      4         11           0       -3.642344   -1.742491   -0.336635
      5         11           0        2.155372   -0.795760    1.699478
      6         11           0        3.751995   -0.740635   -1.279387
      7         11           0        0.956721    2.273910    0.049293
 ---------------------------------------------------------------------

 SCF Done:  E(UB3LYP) =  -1136.12799978     A.U. after   25 cycles

 The electronic state is 2-A.
 Alpha  occ. eigenvalues --  -38.44286 -38.44210 -38.44146 -38.44021 -38.43857
 Alpha  occ. eigenvalues --  -38.43295 -38.42797  -2.20188  -2.20096  -2.20024
 Alpha  occ. eigenvalues --   -2.19831  -2.19773  -2.19070  -2.18682  -1.13930
 Alpha  occ. eigenvalues --   -1.13875  -1.13804  -1.13775  -1.13739  -1.13717
 Alpha  occ. eigenvalues --   -1.13711  -1.13689  -1.13607  -1.13496  -1.13484
 Alpha  occ. eigenvalues --   -1.13475  -1.13453  -1.13413  -1.13365  -1.12744
 Alpha  occ. eigenvalues --   -1.12742  -1.12701  -1.12375  -1.12335  -1.12306
 Alpha  occ. eigenvalues --   -0.18578  -0.13792  -0.11566  -0.10980
 Alpha virt. eigenvalues --   -0.06269  -0.05067  -0.04981  -0.03136  -0.02655
 Alpha virt. eigenvalues --   -0.02282  -0.02197  -0.01155  -0.01007  -0.00136
 Alpha virt. eigenvalues --    0.00120   0.00375   0.00414   0.00486   0.00622

  Beta  occ. eigenvalues --  -38.44264 -38.44161 -38.44113 -38.44001 -38.43797
  Beta  occ. eigenvalues --  -38.43297 -38.42782  -2.20153  -2.20010  -2.19964
  Beta  occ. eigenvalues --   -2.19793  -2.19667  -2.19075  -2.18658  -1.13885
  Beta  occ. eigenvalues --   -1.13841  -1.13768  -1.13718  -1.13688  -1.13667
  Beta  occ. eigenvalues --   -1.13656  -1.13632  -1.13561  -1.13466  -1.13456
  Beta  occ. eigenvalues --   -1.13430  -1.13401  -1.13323  -1.13289  -1.12747
  Beta  occ. eigenvalues --   -1.12742  -1.12704  -1.12358  -1.12298  -1.12290
  Beta  occ. eigenvalues --   -0.17821  -0.13608  -0.10786
  Beta virt. eigenvalues --   -0.07557  -0.06084  -0.04965  -0.04403  -0.02756
  Beta virt. eigenvalues --   -0.02278  -0.01946  -0.01703  -0.00997  -0.00517
  Beta virt. eigenvalues --   -0.00058   0.00161   0.00454   0.00517   0.00598

 Mulliken charges and spin densities:
               1          2
     1  Na  -0.021807   0.365795
     2  Na   0.382693   0.034191
     3  Na  -1.016630   0.436315
     4  Na   0.163776  -0.090420
     5  Na   0.124759   0.008529
     6  Na   0.485740   0.113869
     7  Na  -0.118530   0.131721
 Sum of Mulliken charges =  -0.00000   1.00000

 Dipole moment (field-independent basis, Debye):
    X=              0.5060    Y=              0.6544    Z=              0.1824  Tot=              0.8471
 Quadrupole moment (field-independent basis, Debye-Ang):
   XX=            -55.7019   YY=            -72.8208   ZZ=            -67.3473
   XY=             -0.8367   XZ=             -0.3470   YZ=             -3.0426

 Normal termination of Gaussian 16 at Wed Nov 29 15:57:35 2023.
