 Gaussian 16, Revision B.01,
 Gaussian 16:  ES64L-G16RevB.01 20-Dec-2017

 -------------------------
 #P B3LYP/6-311+g(d) force
 -------------------------

 -----
 DPGEN
 -----
 Symbolic Z-matrix:
 Charge =  0 Multiplicity = 2

                         Standard orientation:
 ---------------------------------------------------------------------
 Center     Atomic      Atomic             Coordinates (Angstroms)
 Number     Number       Type             X           Y           Z
 ---------------------------------------------------------------------
      1         11           0       -2.069581    2.112191   -0.179961
      2         11           0       -2.920511   -1.041434    0.096041
      3         11           0        0.124613    0.120309    1.889070
      4         11           0        1.778760    2.372192    0.154699
      5         11           0       -0.176720   -0.120267   -1.853464
      6         11           0        0.232611   -2.683544    0.217152
      7         11           0        3.030828   -0.759446   -0.323537
 ---------------------------------------------------------------------

 SCF Done:  E(UB3LYP) =  -1136.13975455     A.U. after   19 cycles

 The electronic state is 2-A.
 Alpha  occ. eigenvalues --  -38.44040 -38.43956 -38.43531 -38.43487 -38.43418
 Alpha  occ. eigenvalues --  -38.43378 -38.42885  -2.19883  -2.19812  -2.19430
 Alpha  occ. eigenvalues --   -2.19389  -2.19363  -2.19225  -2.18784  -1.13554
 Alpha  occ. eigenvalues --   -1.13541  -1.13532  -1.13488  -1.13479  -1.13457
 Alpha  occ. eigenvalues --   -1.13127  -1.13099  -1.13061  -1.13054  -1.13039
 Alpha  occ. eigenvalues --   -1.13026  -1.13022  -1.13013  -1.12976  -1.12889
 Alpha  occ. eigenvalues --   -1.12881  -1.12855  -1.12472  -1.12451  -1.12402
 Alpha  occ. eigenvalues --   -0.18889  -0.13262  -0.12280  -0.10915
 Alpha virt. eigenvalues --   -0.05668  -0.05210  -0.04329  -0.03352  -0.02868
 Alpha virt. eigenvalues --   -0.02631  -0.01593  -0.01017  -0.00262  -0.00147
 Alpha virt. eigenvalues --   -0.00012   0.00369   0.00790   0.00909   0.00927

  Beta  occ. eigenvalues --  -38.44034 -38.43952 -38.43526 -38.43410 -38.43374
  Beta  occ. eigenvalues --  -38.43332 -38.42876  -2.19874  -2.19809  -2.19382
  Beta  occ. eigenvalues --   -2.19289  -2.19220  -2.19207  -2.18771  -1.13541
  Beta  occ. eigenvalues --   -1.13532  -1.13519  -1.13488  -1.13467  -1.13443
  Beta  occ. eigenvalues --   -1.13080  -1.13038  -1.13017  -1.13011  -1.12964
  Beta  occ. eigenvalues --   -1.12952  -1.12934  -1.12925  -1.12875  -1.12866
  Beta  occ. eigenvalues --   -1.12854  -1.12834  -1.12465  -1.12414  -1.12393
  Beta  occ. eigenvalues --   -0.18140  -0.13024  -0.12015
  Beta virt. eigenvalues --   -0.06997  -0.05605  -0.05225  -0.04310  -0.02550
  Beta virt. eigenvalues --   -0.02070  -0.01575  -0.01490  -0.00952  -0.00309
  Beta virt. eigenvalues --   -0.00196   0.00111   0.00387   0.00861   0.00893

 Mulliken charges and spin densities:
               1          2
     1  Na   0.115969  -0.102183
     2  Na   0.167675  -0.070191
     3  Na  -0.331275   0.697552
     4  Na   0.094531  -0.107860
     5  Na  -0.348231   0.661372
     6  Na   0.197531  -0.058572
     7  Na   0.103800  -0.020117
 Sum of Mulliken charges =  -0.00000   1.00000

 Dipole moment (field-independent basis, Debye):
    X=             -0.0275    Y=              0.0335    Z=             -0.0572  Tot=              0.0717
 Quadrupole moment (field-independent basis, Debye-Ang):
   XX=            -55.2609   YY=            -65.1150   ZZ=            -73.3643
   XY=              0.0880   XZ=             -0.9841   YZ=             -0.4723

 Normal termination of Gaussian 16 at Fri Dec  8 04:19:00 2023.
