 Gaussian 16, Revision B.01,
 Gaussian 16:  ES64L-G16RevB.01 20-Dec-2017

 -------------------------
 #P B3LYP/6-311+g(d) force
 -------------------------

 -----
 DPGEN
 -----
 Symbolic Z-matrix:
 Charge =  0 Multiplicity = 2

                         Standard orientation:
 ---------------------------------------------------------------------
 Center     Atomic      Atomic             Coordinates (Angstroms)
 Number     Number       Type             X           Y           Z
 ---------------------------------------------------------------------
      1         11           0        2.915845   -1.585767   -0.415020
      2         11           0        2.729645    1.573429   -0.113960
      3         11           0        0.378390   -0.654294   -1.269399
      4         11           0       -1.300939    2.850620   -0.161037
      5         11           0       -3.041037    0.024688   -0.927016
      6         11           0       -1.702596   -2.556616    0.630645
      7         11           0        0.020691    0.347941    2.255787
 ---------------------------------------------------------------------

 SCF Done:  E(UB3LYP) =  -1136.12726522     A.U. after   20 cycles

 The electronic state is 2-A.
 Alpha  occ. eigenvalues --  -38.44455 -38.44276 -38.43979 -38.43972 -38.43569
 Alpha  occ. eigenvalues --  -38.43479 -38.43156  -2.20291  -2.20170  -2.19829
 Alpha  occ. eigenvalues --   -2.19822  -2.19559  -2.19318  -2.18954  -1.14012
 Alpha  occ. eigenvalues --   -1.13969  -1.13949  -1.13927  -1.13786  -1.13761
 Alpha  occ. eigenvalues --   -1.13507  -1.13485  -1.13480  -1.13463  -1.13455
 Alpha  occ. eigenvalues --   -1.13429  -1.13239  -1.13205  -1.13170  -1.12975
 Alpha  occ. eigenvalues --   -1.12969  -1.12964  -1.12627  -1.12622  -1.12596
 Alpha  occ. eigenvalues --   -0.18260  -0.13704  -0.11813  -0.10939
 Alpha virt. eigenvalues --   -0.05801  -0.05484  -0.04478  -0.03407  -0.02972
 Alpha virt. eigenvalues --   -0.02570  -0.01790  -0.01146  -0.00495  -0.00288
 Alpha virt. eigenvalues --   -0.00037   0.00312   0.00659   0.00784   0.00857

  Beta  occ. eigenvalues --  -38.44452 -38.44268 -38.43943 -38.43874 -38.43542
  Beta  occ. eigenvalues --  -38.43465 -38.43153  -2.20288  -2.20157  -2.19776
  Beta  occ. eigenvalues --   -2.19628  -2.19512  -2.19295  -2.18952  -1.14006
  Beta  occ. eigenvalues --   -1.13962  -1.13940  -1.13914  -1.13768  -1.13751
  Beta  occ. eigenvalues --   -1.13464  -1.13446  -1.13427  -1.13354  -1.13324
  Beta  occ. eigenvalues --   -1.13285  -1.13191  -1.13172  -1.13138  -1.12962
  Beta  occ. eigenvalues --   -1.12954  -1.12928  -1.12627  -1.12615  -1.12584
  Beta  occ. eigenvalues --   -0.17607  -0.13398  -0.11620
  Beta virt. eigenvalues --   -0.07080  -0.05751  -0.05324  -0.04290  -0.02814
  Beta virt. eigenvalues --   -0.02251  -0.01739  -0.01566  -0.01092  -0.00435
  Beta virt. eigenvalues --   -0.00253   0.00107   0.00378   0.00772   0.00800

 Mulliken charges and spin densities:
               1          2
     1  Na   0.613241   0.147358
     2  Na  -0.045375  -0.018461
     3  Na  -0.248324   0.003498
     4  Na  -0.231335   0.052869
     5  Na   0.384451   0.012844
     6  Na  -0.111413   0.201916
     7  Na  -0.361245   0.599975
 Sum of Mulliken charges =  -0.00000   1.00000

 Dipole moment (field-independent basis, Debye):
    X=              0.6598    Y=             -0.1301    Z=              0.2171  Tot=              0.7066
 Quadrupole moment (field-independent basis, Debye-Ang):
   XX=            -55.9554   YY=            -65.8466   ZZ=            -73.0929
   XY=              1.4372   XZ=              1.0194   YZ=             -2.0276

 Normal termination of Gaussian 16 at Fri Dec  8 07:54:35 2023.
