 Gaussian 16, Revision B.01,
 Gaussian 16:  ES64L-G16RevB.01 20-Dec-2017

 -------------------------
 #P B3LYP/6-311+g(d) force
 -------------------------

 -----
 DPGEN
 -----
 Symbolic Z-matrix:
 Charge =  0 Multiplicity = 2

                         Standard orientation:
 ---------------------------------------------------------------------
 Center     Atomic      Atomic             Coordinates (Angstroms)
 Number     Number       Type             X           Y           Z
 ---------------------------------------------------------------------
      1         11           0       -1.504231    1.451305   -0.621362
      2         11           0        1.650861    0.896055    0.281012
      3         11           0        0.897730   -1.878793   -0.696732
      4         11           0       -1.587506   -2.049227    1.663180
      5         11           0       -3.557040   -1.296281   -0.752191
      6         11           0        4.001622   -1.475038   -0.210297
      7         11           0        0.098564    4.351979    0.336389
 ---------------------------------------------------------------------

 SCF Done:  E(UB3LYP) =  -1136.12282390     A.U. after   23 cycles

 The electronic state is 2-A.
 Alpha  occ. eigenvalues --  -38.44462 -38.44211 -38.44201 -38.44046 -38.43615
 Alpha  occ. eigenvalues --  -38.43436 -38.43431  -2.20373  -2.20111  -2.19978
 Alpha  occ. eigenvalues --   -2.19895  -2.19482  -2.19301  -2.19285  -1.14151
 Alpha  occ. eigenvalues --   -1.14042  -1.13984  -1.13849  -1.13784  -1.13678
 Alpha  occ. eigenvalues --   -1.13653  -1.13646  -1.13595  -1.13556  -1.13537
 Alpha  occ. eigenvalues --   -1.13508  -1.13202  -1.13167  -1.13073  -1.13009
 Alpha  occ. eigenvalues --   -1.12958  -1.12943  -1.12932  -1.12923  -1.12860
 Alpha  occ. eigenvalues --   -0.17666  -0.13741  -0.12974  -0.09678
 Alpha virt. eigenvalues --   -0.06642  -0.05594  -0.04654  -0.03309  -0.02520
 Alpha virt. eigenvalues --   -0.02473  -0.02059  -0.01310  -0.00921  -0.00526
 Alpha virt. eigenvalues --   -0.00197   0.00087   0.00407   0.00550   0.00621

  Beta  occ. eigenvalues --  -38.44450 -38.44207 -38.44200 -38.44020 -38.43588
  Beta  occ. eigenvalues --  -38.43381 -38.43376  -2.20357  -2.20104  -2.19976
  Beta  occ. eigenvalues --   -2.19846  -2.19435  -2.19197  -2.19190  -1.14146
  Beta  occ. eigenvalues --   -1.14025  -1.13948  -1.13846  -1.13766  -1.13674
  Beta  occ. eigenvalues --   -1.13651  -1.13644  -1.13593  -1.13523  -1.13501
  Beta  occ. eigenvalues --   -1.13480  -1.13172  -1.13131  -1.13018  -1.12940
  Beta  occ. eigenvalues --   -1.12885  -1.12870  -1.12863  -1.12848  -1.12789
  Beta  occ. eigenvalues --   -0.17240  -0.13261  -0.12781
  Beta virt. eigenvalues --   -0.06446  -0.05997  -0.05498  -0.04406  -0.02875
  Beta virt. eigenvalues --   -0.02281  -0.02172  -0.01943  -0.00889  -0.00837
  Beta virt. eigenvalues --   -0.00213   0.00111   0.00326   0.00591   0.00664

 Mulliken charges and spin densities:
               1          2
     1  Na  -0.979192   0.234753
     2  Na  -1.117980   0.045276
     3  Na  -0.647233   0.051794
     4  Na   0.290354   0.278462
     5  Na   0.532779   0.241849
     6  Na   1.054794   0.095060
     7  Na   0.866478   0.052805
 Sum of Mulliken charges =  -0.00000   1.00000

 Dipole moment (field-independent basis, Debye):
    X=              1.2542    Y=              0.2428    Z=              0.5238  Tot=              1.3807
 Quadrupole moment (field-independent basis, Debye-Ang):
   XX=            -64.1364   YY=            -58.7600   ZZ=            -71.9093
   XY=              1.0491   XZ=             -0.6565   YZ=              3.7156

 Normal termination of Gaussian 16 at Wed Nov 29 02:29:00 2023.
