 Gaussian 16, Revision B.01,
 Gaussian 16:  ES64L-G16RevB.01 20-Dec-2017

 -------------------------
 #P B3LYP/6-311+g(d) force
 -------------------------

 -----
 DPGEN
 -----
 Symbolic Z-matrix:
 Charge =  0 Multiplicity = 2

                         Standard orientation:
 ---------------------------------------------------------------------
 Center     Atomic      Atomic             Coordinates (Angstroms)
 Number     Number       Type             X           Y           Z
 ---------------------------------------------------------------------
      1         11           0        4.004918    0.637656   -0.346390
      2         11           0        0.766419    1.929268   -0.250902
      3         11           0       -1.019470    0.285886    1.989447
      4         11           0       -2.296077    2.146575   -0.268518
      5         11           0       -2.681037   -1.512071   -0.362215
      6         11           0        1.495947   -2.156722    1.026792
      7         11           0       -0.270699   -1.330592   -1.788213
 ---------------------------------------------------------------------

 SCF Done:  E(UB3LYP) =  -1136.12122781     A.U. after   21 cycles

 The electronic state is 2-A.
 Alpha  occ. eigenvalues --  -38.44834 -38.44266 -38.44197 -38.43876 -38.43772
 Alpha  occ. eigenvalues --  -38.43615 -38.43124  -2.20584  -2.20166  -2.19999
 Alpha  occ. eigenvalues --   -2.19790  -2.19712  -2.19507  -2.19024  -1.14254
 Alpha  occ. eigenvalues --   -1.14251  -1.14213  -1.14017  -1.13809  -1.13768
 Alpha  occ. eigenvalues --   -1.13678  -1.13675  -1.13608  -1.13423  -1.13402
 Alpha  occ. eigenvalues --   -1.13396  -1.13393  -1.13372  -1.13325  -1.13213
 Alpha  occ. eigenvalues --   -1.13144  -1.13128  -1.12714  -1.12706  -1.12626
 Alpha  occ. eigenvalues --   -0.18520  -0.13115  -0.12161  -0.11118
 Alpha virt. eigenvalues --   -0.06627  -0.05265  -0.03775  -0.03484  -0.03076
 Alpha virt. eigenvalues --   -0.02604  -0.02148  -0.01209  -0.00493  -0.00196
 Alpha virt. eigenvalues --    0.00177   0.00194   0.00401   0.00708   0.00773

  Beta  occ. eigenvalues --  -38.44833 -38.44251 -38.44164 -38.43827 -38.43692
  Beta  occ. eigenvalues --  -38.43610 -38.43113  -2.20583  -2.20142  -2.19940
  Beta  occ. eigenvalues --   -2.19702  -2.19564  -2.19501  -2.19005  -1.14253
  Beta  occ. eigenvalues --   -1.14246  -1.14214  -1.13980  -1.13779  -1.13749
  Beta  occ. eigenvalues --   -1.13640  -1.13617  -1.13569  -1.13368  -1.13341
  Beta  occ. eigenvalues --   -1.13322  -1.13308  -1.13276  -1.13229  -1.13200
  Beta  occ. eigenvalues --   -1.13121  -1.13105  -1.12701  -1.12672  -1.12615
  Beta  occ. eigenvalues --   -0.17809  -0.12941  -0.11893
  Beta virt. eigenvalues --   -0.07246  -0.06466  -0.05103  -0.03628  -0.02960
  Beta virt. eigenvalues --   -0.02406  -0.02079  -0.01627  -0.01139  -0.00362
  Beta virt. eigenvalues --   -0.00011   0.00194   0.00246   0.00572   0.00745

 Mulliken charges and spin densities:
               1          2
     1  Na   0.264863  -0.083703
     2  Na  -0.690557   0.091343
     3  Na   0.049829   0.438585
     4  Na   0.338201   0.139338
     5  Na   0.372182   0.045876
     6  Na  -0.108438   0.034318
     7  Na  -0.226082   0.334242
 Sum of Mulliken charges =  -0.00000   1.00000

 Dipole moment (field-independent basis, Debye):
    X=              0.2702    Y=             -0.2400    Z=              0.0737  Tot=              0.3689
 Quadrupole moment (field-independent basis, Debye-Ang):
   XX=            -51.4507   YY=            -71.7407   ZZ=            -71.3819
   XY=             -2.1748   XZ=             -0.4309   YZ=             -2.8048

 Normal termination of Gaussian 16 at Tue Dec  5 18:45:57 2023.
