 Gaussian 16, Revision B.01,
 Gaussian 16:  ES64L-G16RevB.01 20-Dec-2017

 -------------------------
 #P B3LYP/6-311+g(d) force
 -------------------------

 -----
 DPGEN
 -----
 Symbolic Z-matrix:
 Charge =  0 Multiplicity = 2

                         Standard orientation:
 ---------------------------------------------------------------------
 Center     Atomic      Atomic             Coordinates (Angstroms)
 Number     Number       Type             X           Y           Z
 ---------------------------------------------------------------------
      1         11           0        0.596759    1.790611    0.234428
      2         11           0        0.276318   -1.393680   -1.021764
      3         11           0        3.108785    0.552925   -1.257613
      4         11           0        2.389183   -0.901010    1.254469
      5         11           0       -1.039042   -0.543897    1.852244
      6         11           0       -2.839232   -1.209980   -0.960423
      7         11           0       -2.492772    1.705032   -0.101342
 ---------------------------------------------------------------------

 SCF Done:  E(UB3LYP) =  -1136.11873942     A.U. after   25 cycles

 The electronic state is 2-A.
 Alpha  occ. eigenvalues --  -38.44661 -38.44500 -38.43997 -38.43916 -38.43462
 Alpha  occ. eigenvalues --  -38.43086 -38.42473  -2.20588  -2.20464  -2.19979
 Alpha  occ. eigenvalues --   -2.19835  -2.19388  -2.19071  -2.18460  -1.14346
 Alpha  occ. eigenvalues --   -1.14245  -1.14204  -1.14143  -1.14090  -1.14045
 Alpha  occ. eigenvalues --   -1.13695  -1.13625  -1.13583  -1.13523  -1.13508
 Alpha  occ. eigenvalues --   -1.13456  -1.13065  -1.13034  -1.13026  -1.12777
 Alpha  occ. eigenvalues --   -1.12735  -1.12687  -1.12160  -1.12133  -1.12084
 Alpha  occ. eigenvalues --   -0.19638  -0.14792  -0.11666  -0.11088
 Alpha virt. eigenvalues --   -0.06478  -0.05071  -0.04787  -0.03201  -0.02477
 Alpha virt. eigenvalues --   -0.02263  -0.02190  -0.00871  -0.00486   0.00133
 Alpha virt. eigenvalues --    0.00198   0.00473   0.00501   0.00703   0.00839

  Beta  occ. eigenvalues --  -38.44619 -38.44466 -38.43923 -38.43892 -38.43457
  Beta  occ. eigenvalues --  -38.43068 -38.42460  -2.20510  -2.20408  -2.19849
  Beta  occ. eigenvalues --   -2.19792  -2.19381  -2.19043  -2.18443  -1.14301
  Beta  occ. eigenvalues --   -1.14186  -1.14149  -1.14096  -1.14047  -1.13985
  Beta  occ. eigenvalues --   -1.13610  -1.13531  -1.13494  -1.13479  -1.13475
  Beta  occ. eigenvalues --   -1.13419  -1.13062  -1.13027  -1.13008  -1.12753
  Beta  occ. eigenvalues --   -1.12696  -1.12663  -1.12152  -1.12089  -1.12066
  Beta  occ. eigenvalues --   -0.18882  -0.14510  -0.10890
  Beta virt. eigenvalues --   -0.07662  -0.06265  -0.04825  -0.04243  -0.02969
  Beta virt. eigenvalues --   -0.02119  -0.01766  -0.01544  -0.00535  -0.00313
  Beta virt. eigenvalues --    0.00227   0.00268   0.00478   0.00621   0.00847

 Mulliken charges and spin densities:
               1          2
     1  Na  -1.047993   0.299233
     2  Na  -1.087816   0.297574
     3  Na   1.365664   0.008767
     4  Na   0.440418   0.078862
     5  Na   0.030376   0.213319
     6  Na   0.303718   0.138816
     7  Na  -0.004367  -0.036571
 Sum of Mulliken charges =  -0.00000   1.00000

 Dipole moment (field-independent basis, Debye):
    X=              0.5437    Y=             -0.2691    Z=              0.0916  Tot=              0.6135
 Quadrupole moment (field-independent basis, Debye-Ang):
   XX=            -48.9837   YY=            -79.6370   ZZ=            -66.1963
   XY=             -0.3630   XZ=              0.0210   YZ=             -3.4483

 Normal termination of Gaussian 16 at Tue Dec  5 23:23:09 2023.
