 Gaussian 16, Revision B.01,
 Gaussian 16:  ES64L-G16RevB.01 20-Dec-2017

 -------------------------
 #P B3LYP/6-311+g(d) force
 -------------------------

 -----
 DPGEN
 -----
 Symbolic Z-matrix:
 Charge =  0 Multiplicity = 2

                         Standard orientation:
 ---------------------------------------------------------------------
 Center     Atomic      Atomic             Coordinates (Angstroms)
 Number     Number       Type             X           Y           Z
 ---------------------------------------------------------------------
      1         11           0        1.031304    2.423192    0.281719
      2         11           0       -2.048960    2.779822   -0.558375
      3         11           0       -3.171986   -0.870613   -0.898543
      4         11           0       -0.977651   -0.320468    1.598442
      5         11           0        2.471499   -0.460461    1.161569
      6         11           0       -1.146385   -2.987881   -0.099476
      7         11           0        3.842180   -0.563591   -1.485336
 ---------------------------------------------------------------------

 SCF Done:  E(UB3LYP) =  -1136.12281629     A.U. after   19 cycles

 The electronic state is 2-A.
 Alpha  occ. eigenvalues --  -38.44302 -38.44244 -38.44114 -38.44039 -38.43887
 Alpha  occ. eigenvalues --  -38.43456 -38.43347  -2.20163  -2.20113  -2.19952
 Alpha  occ. eigenvalues --   -2.19879  -2.19820  -2.19355  -2.19161  -1.13934
 Alpha  occ. eigenvalues --   -1.13845  -1.13803  -1.13774  -1.13752  -1.13675
 Alpha  occ. eigenvalues --   -1.13635  -1.13632  -1.13587  -1.13583  -1.13505
 Alpha  occ. eigenvalues --   -1.13502  -1.13495  -1.13467  -1.13428  -1.13023
 Alpha  occ. eigenvalues --   -1.13017  -1.12995  -1.12835  -1.12812  -1.12805
 Alpha  occ. eigenvalues --   -0.17637  -0.14022  -0.12450  -0.10691
 Alpha virt. eigenvalues --   -0.05962  -0.05393  -0.04623  -0.04117  -0.02701
 Alpha virt. eigenvalues --   -0.02180  -0.01518  -0.01113  -0.00868  -0.00546
 Alpha virt. eigenvalues --   -0.00223   0.00333   0.00397   0.00531   0.00606

  Beta  occ. eigenvalues --  -38.44300 -38.44211 -38.44111 -38.43960 -38.43830
  Beta  occ. eigenvalues --  -38.43443 -38.43338  -2.20160  -2.20050  -2.19949
  Beta  occ. eigenvalues --   -2.19733  -2.19719  -2.19341  -2.19145  -1.13920
  Beta  occ. eigenvalues --   -1.13822  -1.13802  -1.13732  -1.13713  -1.13640
  Beta  occ. eigenvalues --   -1.13634  -1.13614  -1.13589  -1.13493  -1.13440
  Beta  occ. eigenvalues --   -1.13402  -1.13395  -1.13374  -1.13356  -1.13017
  Beta  occ. eigenvalues --   -1.13003  -1.12932  -1.12825  -1.12800  -1.12790
  Beta  occ. eigenvalues --   -0.17038  -0.13544  -0.12221
  Beta virt. eigenvalues --   -0.07163  -0.05757  -0.05069  -0.04096  -0.03983
  Beta virt. eigenvalues --   -0.02317  -0.01521  -0.01357  -0.00936  -0.00862
  Beta virt. eigenvalues --   -0.00371   0.00069   0.00476   0.00572   0.00636

 Mulliken charges and spin densities:
               1          2
     1  Na  -0.396360   0.075233
     2  Na  -0.140518   0.127151
     3  Na  -0.170592   0.316571
     4  Na   1.052226  -0.035130
     5  Na   0.081342   0.052829
     6  Na  -0.354974   0.081433
     7  Na  -0.071125   0.381913
 Sum of Mulliken charges =  -0.00000   1.00000

 Dipole moment (field-independent basis, Debye):
    X=             -0.5546    Y=             -0.5320    Z=             -0.3519  Tot=              0.8453
 Quadrupole moment (field-independent basis, Debye-Ang):
   XX=            -67.2252   YY=            -64.7339   ZZ=            -68.3054
   XY=              1.1887   XZ=              0.3667   YZ=              0.8254

 Normal termination of Gaussian 16 at Tue Nov 28 23:14:51 2023.
