 Gaussian 16, Revision B.01,
 Gaussian 16:  ES64L-G16RevB.01 20-Dec-2017

 -------------------------
 #P B3LYP/6-311+g(d) force
 -------------------------

 -----
 DPGEN
 -----
 Symbolic Z-matrix:
 Charge =  0 Multiplicity = 2

                         Standard orientation:
 ---------------------------------------------------------------------
 Center     Atomic      Atomic             Coordinates (Angstroms)
 Number     Number       Type             X           Y           Z
 ---------------------------------------------------------------------
      1         11           0        0.390608   -0.567078    2.138970
      2         11           0        2.900517   -1.369030   -0.574021
      3         11           0        0.040578    0.168087   -1.537646
      4         11           0       -0.851347   -2.815555    0.117451
      5         11           0        2.062091    2.245188    0.032607
      6         11           0       -3.019618   -0.480860   -0.437281
      7         11           0       -1.522829    2.819249    0.259920
 ---------------------------------------------------------------------

 SCF Done:  E(UB3LYP) =  -1136.13664438     A.U. after   19 cycles

 The electronic state is 2-A.
 Alpha  occ. eigenvalues --  -38.43966 -38.43949 -38.43740 -38.43699 -38.43646
 Alpha  occ. eigenvalues --  -38.43562 -38.43141  -2.19788  -2.19760  -2.19606
 Alpha  occ. eigenvalues --   -2.19499  -2.19495  -2.19433  -2.19116  -1.13488
 Alpha  occ. eigenvalues --   -1.13457  -1.13442  -1.13418  -1.13403  -1.13388
 Alpha  occ. eigenvalues --   -1.13286  -1.13240  -1.13222  -1.13209  -1.13174
 Alpha  occ. eigenvalues --   -1.13169  -1.13162  -1.13145  -1.13126  -1.13093
 Alpha  occ. eigenvalues --   -1.13085  -1.13039  -1.12802  -1.12758  -1.12738
 Alpha  occ. eigenvalues --   -0.18347  -0.12910  -0.12505  -0.10706
 Alpha virt. eigenvalues --   -0.05555  -0.05181  -0.04975  -0.03118  -0.03029
 Alpha virt. eigenvalues --   -0.02494  -0.01480  -0.01244  -0.00501  -0.00412
 Alpha virt. eigenvalues --   -0.00022   0.00346   0.00790   0.00824   0.00868

  Beta  occ. eigenvalues --  -38.43963 -38.43933 -38.43698 -38.43644 -38.43638
  Beta  occ. eigenvalues --  -38.43555 -38.43088  -2.19785  -2.19733  -2.19495
  Beta  occ. eigenvalues --   -2.19485  -2.19428  -2.19424  -2.19020  -1.13482
  Beta  occ. eigenvalues --   -1.13443  -1.13415  -1.13407  -1.13384  -1.13373
  Beta  occ. eigenvalues --   -1.13209  -1.13175  -1.13169  -1.13160  -1.13147
  Beta  occ. eigenvalues --   -1.13137  -1.13120  -1.13117  -1.13101  -1.13072
  Beta  occ. eigenvalues --   -1.13049  -1.13030  -1.12735  -1.12690  -1.12665
  Beta  occ. eigenvalues --   -0.17661  -0.12656  -0.12279
  Beta virt. eigenvalues --   -0.06841  -0.05554  -0.05117  -0.04839  -0.02370
  Beta virt. eigenvalues --   -0.02324  -0.01498  -0.01368  -0.01168  -0.00509
  Beta virt. eigenvalues --   -0.00456   0.00136   0.00391   0.00831   0.00858

 Mulliken charges and spin densities:
               1          2
     1  Na  -0.468262   0.694534
     2  Na   0.130782  -0.022736
     3  Na  -0.005992   0.313200
     4  Na   0.307548   0.016983
     5  Na   0.035616  -0.010638
     6  Na   0.088700  -0.011451
     7  Na  -0.088391   0.020107
 Sum of Mulliken charges =  -0.00000   1.00000

 Dipole moment (field-independent basis, Debye):
    X=              0.2512    Y=              0.0588    Z=              0.1463  Tot=              0.2965
 Quadrupole moment (field-independent basis, Debye-Ang):
   XX=            -58.2588   YY=            -60.9203   ZZ=            -74.4614
   XY=             -0.4170   XZ=             -0.5486   YZ=              1.9164

 Normal termination of Gaussian 16 at Tue Dec  5 18:28:47 2023.
