 Gaussian 16, Revision B.01,
 Gaussian 16:  ES64L-G16RevB.01 20-Dec-2017

 -------------------------
 #P B3LYP/6-311+g(d) force
 -------------------------

 -----
 DPGEN
 -----
 Symbolic Z-matrix:
 Charge =  0 Multiplicity = 2

                         Standard orientation:
 ---------------------------------------------------------------------
 Center     Atomic      Atomic             Coordinates (Angstroms)
 Number     Number       Type             X           Y           Z
 ---------------------------------------------------------------------
      1         11           0       -3.050711    1.393411    0.125063
      2         11           0        0.727840   -2.500252    0.137480
      3         11           0        1.062044    2.898307   -0.480026
      4         11           0       -2.350048   -1.847735   -0.582989
      5         11           0        3.419716   -0.388272    0.145899
      6         11           0       -0.209487    0.327863    2.196170
      7         11           0        0.400647    0.116678   -1.541597
 ---------------------------------------------------------------------

 SCF Done:  E(UB3LYP) =  -1136.12998359     A.U. after   19 cycles

 The electronic state is 2-A.
 Alpha  occ. eigenvalues --  -38.44841 -38.44496 -38.44000 -38.43604 -38.43450
 Alpha  occ. eigenvalues --  -38.43239 -38.42883  -2.20632  -2.20277  -2.19842
 Alpha  occ. eigenvalues --   -2.19423  -2.19315  -2.19231  -2.18801  -1.14307
 Alpha  occ. eigenvalues --   -1.14289  -1.14268  -1.13951  -1.13943  -1.13916
 Alpha  occ. eigenvalues --   -1.13505  -1.13470  -1.13455  -1.13188  -1.13069
 Alpha  occ. eigenvalues --   -1.13036  -1.13003  -1.12981  -1.12953  -1.12927
 Alpha  occ. eigenvalues --   -1.12866  -1.12830  -1.12492  -1.12454  -1.12422
 Alpha  occ. eigenvalues --   -0.18375  -0.13058  -0.12163  -0.10826
 Alpha virt. eigenvalues --   -0.06393  -0.04998  -0.04300  -0.03257  -0.02922
 Alpha virt. eigenvalues --   -0.02612  -0.02019  -0.01069  -0.00571  -0.00150
 Alpha virt. eigenvalues --   -0.00046   0.00309   0.00700   0.00767   0.00807

  Beta  occ. eigenvalues --  -38.44840 -38.44495 -38.43900 -38.43591 -38.43438
  Beta  occ. eigenvalues --  -38.43184 -38.42874  -2.20632  -2.20279  -2.19658
  Beta  occ. eigenvalues --   -2.19403  -2.19294  -2.19131  -2.18790  -1.14303
  Beta  occ. eigenvalues --   -1.14282  -1.14270  -1.13947  -1.13933  -1.13920
  Beta  occ. eigenvalues --   -1.13382  -1.13344  -1.13321  -1.13158  -1.13047
  Beta  occ. eigenvalues --   -1.13024  -1.12986  -1.12960  -1.12931  -1.12859
  Beta  occ. eigenvalues --   -1.12802  -1.12759  -1.12483  -1.12433  -1.12400
  Beta  occ. eigenvalues --   -0.17669  -0.12870  -0.11880
  Beta virt. eigenvalues --   -0.06947  -0.06302  -0.04938  -0.04266  -0.02560
  Beta virt. eigenvalues --   -0.02143  -0.01919  -0.01593  -0.00972  -0.00606
  Beta virt. eigenvalues --   -0.00152   0.00091   0.00337   0.00774   0.00835

 Mulliken charges and spin densities:
               1          2
     1  Na   0.085884  -0.019670
     2  Na   0.263105   0.172201
     3  Na   0.022776  -0.073026
     4  Na   0.160619   0.069116
     5  Na   0.125845  -0.016556
     6  Na  -0.523442   0.666058
     7  Na  -0.134787   0.201876
 Sum of Mulliken charges =  -0.00000   1.00000

 Dipole moment (field-independent basis, Debye):
    X=              0.2832    Y=              0.3532    Z=              0.2827  Tot=              0.5338
 Quadrupole moment (field-independent basis, Debye-Ang):
   XX=            -52.3927   YY=            -66.3546   ZZ=            -74.2630
   XY=             -0.9260   XZ=              1.7217   YZ=              0.0960

 Normal termination of Gaussian 16 at Thu Dec  7 22:17:59 2023.
