 Gaussian 16, Revision B.01,
 Gaussian 16:  ES64L-G16RevB.01 20-Dec-2017

 -------------------------
 #P B3LYP/6-311+g(d) force
 -------------------------

 -----
 DPGEN
 -----
 Symbolic Z-matrix:
 Charge =  0 Multiplicity = 2

                         Standard orientation:
 ---------------------------------------------------------------------
 Center     Atomic      Atomic             Coordinates (Angstroms)
 Number     Number       Type             X           Y           Z
 ---------------------------------------------------------------------
      1         11           0        2.858741   -1.203495    1.096398
      2         11           0       -0.039870   -0.280582    1.586804
      3         11           0       -0.813294    1.919050   -1.190839
      4         11           0        1.022000   -0.881093   -1.527685
      5         11           0        2.927418    1.668900    0.029551
      6         11           0       -4.101372    0.561281    1.136279
      7         11           0       -1.853623   -1.784062   -1.130508
 ---------------------------------------------------------------------

 SCF Done:  E(UB3LYP) =  -1136.11465371     A.U. after   36 cycles

 The electronic state is 2-A.
 Alpha  occ. eigenvalues --  -38.44988 -38.44679 -38.44438 -38.44394 -38.43910
 Alpha  occ. eigenvalues --  -38.43259 -38.42789  -2.20893  -2.20436  -2.20383
 Alpha  occ. eigenvalues --   -2.20217  -2.19771  -2.19121  -2.18806  -1.14596
 Alpha  occ. eigenvalues --   -1.14567  -1.14514  -1.14100  -1.14093  -1.14054
 Alpha  occ. eigenvalues --   -1.14051  -1.14044  -1.13994  -1.13915  -1.13872
 Alpha  occ. eigenvalues --   -1.13820  -1.13440  -1.13425  -1.13405  -1.12858
 Alpha  occ. eigenvalues --   -1.12786  -1.12740  -1.12490  -1.12462  -1.12409
 Alpha  occ. eigenvalues --   -0.18834  -0.13966  -0.11832  -0.10778
 Alpha virt. eigenvalues --   -0.06915  -0.05073  -0.04793  -0.03232  -0.02746
 Alpha virt. eigenvalues --   -0.02483  -0.02307  -0.01088  -0.00953  -0.00220
 Alpha virt. eigenvalues --    0.00074   0.00203   0.00375   0.00558   0.00698

  Beta  occ. eigenvalues --  -38.44950 -38.44628 -38.44402 -38.44348 -38.43896
  Beta  occ. eigenvalues --  -38.43259 -38.42761  -2.20825  -2.20340  -2.20318
  Beta  occ. eigenvalues --   -2.20135  -2.19748  -2.19125  -2.18759  -1.14543
  Beta  occ. eigenvalues --   -1.14503  -1.14473  -1.14034  -1.14025  -1.14019
  Beta  occ. eigenvalues --   -1.13991  -1.13983  -1.13952  -1.13859  -1.13807
  Beta  occ. eigenvalues --   -1.13755  -1.13431  -1.13400  -1.13376  -1.12846
  Beta  occ. eigenvalues --   -1.12779  -1.12750  -1.12462  -1.12412  -1.12365
  Beta  occ. eigenvalues --   -0.18154  -0.13582  -0.10577
  Beta virt. eigenvalues --   -0.07983  -0.06570  -0.04995  -0.04237  -0.02842
  Beta virt. eigenvalues --   -0.02458  -0.02035  -0.01715  -0.01003  -0.00606
  Beta virt. eigenvalues --   -0.00117   0.00157   0.00361   0.00421   0.00635

 Mulliken charges and spin densities:
               1          2
     1  Na   1.376774  -0.103753
     2  Na  -1.011742   0.359861
     3  Na  -0.264772   0.000194
     4  Na   0.008496   0.529667
     5  Na  -0.182414   0.116030
     6  Na   0.217669   0.273175
     7  Na  -0.144011  -0.175173
 Sum of Mulliken charges =  -0.00000   1.00000

 Dipole moment (field-independent basis, Debye):
    X=              0.1737    Y=             -0.2046    Z=              0.1720  Tot=              0.3188
 Quadrupole moment (field-independent basis, Debye-Ang):
   XX=            -53.3774   YY=            -74.7711   ZZ=            -68.9723
   XY=              0.5009   XZ=              0.9847   YZ=             -4.2970

 Normal termination of Gaussian 16 at Tue Dec  5 21:53:18 2023.
