 Gaussian 16, Revision B.01,
 Gaussian 16:  ES64L-G16RevB.01 20-Dec-2017

 -------------------------
 #P B3LYP/6-311+g(d) force
 -------------------------

 -----
 DPGEN
 -----
 Symbolic Z-matrix:
 Charge =  0 Multiplicity = 2

                         Standard orientation:
 ---------------------------------------------------------------------
 Center     Atomic      Atomic             Coordinates (Angstroms)
 Number     Number       Type             X           Y           Z
 ---------------------------------------------------------------------
      1         11           0       -0.672585   -1.172039   -1.288090
      2         11           0        2.127667    1.459795   -1.346384
      3         11           0       -1.335264   -0.726963    1.614949
      4         11           0       -4.321071   -0.293165   -0.362095
      5         11           0        2.399657    0.544137    1.260292
      6         11           0       -0.680802    2.498971    0.232487
      7         11           0        2.482397   -2.310736   -0.111159
 ---------------------------------------------------------------------

 SCF Done:  E(UB3LYP) =  -1136.11699164     A.U. after   24 cycles

 The electronic state is 2-A.
 Alpha  occ. eigenvalues --  -38.45864 -38.44371 -38.44215 -38.44001 -38.43655
 Alpha  occ. eigenvalues --  -38.43191 -38.43180  -2.21610  -2.20311  -2.20082
 Alpha  occ. eigenvalues --   -2.19887  -2.19577  -2.19014  -2.19011  -1.15285
 Alpha  occ. eigenvalues --   -1.15273  -1.15224  -1.14144  -1.13944  -1.13913
 Alpha  occ. eigenvalues --   -1.13889  -1.13737  -1.13666  -1.13570  -1.13519
 Alpha  occ. eigenvalues --   -1.13464  -1.13261  -1.13212  -1.13142  -1.12702
 Alpha  occ. eigenvalues --   -1.12700  -1.12689  -1.12660  -1.12652  -1.12628
 Alpha  occ. eigenvalues --   -0.18295  -0.13824  -0.11449  -0.10464
 Alpha virt. eigenvalues --   -0.07280  -0.04953  -0.04332  -0.03382  -0.02892
 Alpha virt. eigenvalues --   -0.02356  -0.02212  -0.01008  -0.00739  -0.00356
 Alpha virt. eigenvalues --    0.00085   0.00136   0.00322   0.00669   0.00775

  Beta  occ. eigenvalues --  -38.45857 -38.44348 -38.44183 -38.43946 -38.43619
  Beta  occ. eigenvalues --  -38.43181 -38.43180  -2.21596  -2.20272  -2.20026
  Beta  occ. eigenvalues --   -2.19787  -2.19510  -2.19013  -2.19000  -1.15271
  Beta  occ. eigenvalues --   -1.15262  -1.15216  -1.14103  -1.13912  -1.13885
  Beta  occ. eigenvalues --   -1.13834  -1.13694  -1.13626  -1.13507  -1.13443
  Beta  occ. eigenvalues --   -1.13383  -1.13214  -1.13164  -1.13093  -1.12699
  Beta  occ. eigenvalues --   -1.12695  -1.12660  -1.12651  -1.12642  -1.12624
  Beta  occ. eigenvalues --   -0.17592  -0.13660  -0.11274
  Beta virt. eigenvalues --   -0.07093  -0.06678  -0.04937  -0.03663  -0.03284
  Beta virt. eigenvalues --   -0.02727  -0.01798  -0.01381  -0.00904  -0.00454
  Beta virt. eigenvalues --   -0.00241   0.00162   0.00165   0.00465   0.00718

 Mulliken charges and spin densities:
               1          2
     1  Na  -0.332108   0.337025
     2  Na   0.029830   0.233617
     3  Na  -0.095388   0.268289
     4  Na   0.306992   0.027095
     5  Na   0.433189   0.270890
     6  Na  -0.289947  -0.039442
     7  Na  -0.052569  -0.097474
 Sum of Mulliken charges =  -0.00000   1.00000

 Dipole moment (field-independent basis, Debye):
    X=             -1.7706    Y=              0.0020    Z=             -0.0025  Tot=              1.7706
 Quadrupole moment (field-independent basis, Debye-Ang):
   XX=            -45.6518   YY=            -74.0908   ZZ=            -71.7160
   XY=             -1.4764   XZ=              1.3783   YZ=             -0.0750

 Normal termination of Gaussian 16 at Tue Dec  5 18:00:51 2023.
