 Gaussian 16, Revision B.01,
 Gaussian 16:  ES64L-G16RevB.01 20-Dec-2017

 -------------------------
 #P B3LYP/6-311+g(d) force
 -------------------------

 -----
 DPGEN
 -----
 Symbolic Z-matrix:
 Charge =  0 Multiplicity = 2

                         Standard orientation:
 ---------------------------------------------------------------------
 Center     Atomic      Atomic             Coordinates (Angstroms)
 Number     Number       Type             X           Y           Z
 ---------------------------------------------------------------------
      1         11           0       -2.599445   -2.072379   -0.236999
      2         11           0       -2.624552    1.819620   -0.328919
      3         11           0       -0.659122   -0.122958    2.042117
      4         11           0        1.076346    2.787156    0.343681
      5         11           0        3.750770   -0.442409   -0.086576
      6         11           0        0.923064   -2.241674    0.065693
      7         11           0        0.132939    0.272643   -1.798997
 ---------------------------------------------------------------------

 SCF Done:  E(UB3LYP) =  -1136.13186860     A.U. after   19 cycles

 The electronic state is 2-A.
 Alpha  occ. eigenvalues --  -38.44642 -38.44247 -38.43895 -38.43796 -38.43679
 Alpha  occ. eigenvalues --  -38.43565 -38.43008  -2.20405  -2.20048  -2.19701
 Alpha  occ. eigenvalues --   -2.19585  -2.19582  -2.19453  -2.18913  -1.14079
 Alpha  occ. eigenvalues --   -1.14071  -1.14039  -1.13731  -1.13712  -1.13674
 Alpha  occ. eigenvalues --   -1.13371  -1.13355  -1.13351  -1.13293  -1.13277
 Alpha  occ. eigenvalues --   -1.13258  -1.13213  -1.13201  -1.13188  -1.13136
 Alpha  occ. eigenvalues --   -1.13084  -1.13056  -1.12620  -1.12596  -1.12506
 Alpha  occ. eigenvalues --   -0.18189  -0.12813  -0.12164  -0.10669
 Alpha virt. eigenvalues --   -0.06277  -0.05448  -0.04212  -0.03097  -0.02917
 Alpha virt. eigenvalues --   -0.02547  -0.02031  -0.01391  -0.00600  -0.00113
 Alpha virt. eigenvalues --   -0.00064   0.00276   0.00665   0.00724   0.00784

  Beta  occ. eigenvalues --  -38.44647 -38.44238 -38.43892 -38.43789 -38.43613
  Beta  occ. eigenvalues --  -38.43474 -38.42997  -2.20417  -2.20034  -2.19698
  Beta  occ. eigenvalues --   -2.19574  -2.19462  -2.19286  -2.18897  -1.14087
  Beta  occ. eigenvalues --   -1.14072  -1.14047  -1.13708  -1.13695  -1.13666
  Beta  occ. eigenvalues --   -1.13362  -1.13353  -1.13340  -1.13268  -1.13236
  Beta  occ. eigenvalues --   -1.13202  -1.13200  -1.13130  -1.13099  -1.13024
  Beta  occ. eigenvalues --   -1.12969  -1.12934  -1.12612  -1.12549  -1.12500
  Beta  occ. eigenvalues --   -0.17442  -0.12658  -0.11940
  Beta virt. eigenvalues --   -0.06767  -0.06199  -0.05405  -0.04158  -0.02447
  Beta virt. eigenvalues --   -0.02134  -0.01950  -0.01518  -0.01338  -0.00619
  Beta virt. eigenvalues --   -0.00089   0.00056   0.00305   0.00717   0.00784

 Mulliken charges and spin densities:
               1          2
     1  Na   0.205641  -0.051694
     2  Na   0.144281  -0.066599
     3  Na  -0.294683   0.679869
     4  Na  -0.063328  -0.095723
     5  Na   0.044055  -0.083539
     6  Na   0.162655  -0.043621
     7  Na  -0.198620   0.661307
 Sum of Mulliken charges =  -0.00000   1.00000

 Dipole moment (field-independent basis, Debye):
    X=              0.0052    Y=              0.3090    Z=             -0.0214  Tot=              0.3098
 Quadrupole moment (field-independent basis, Debye-Ang):
   XX=            -51.1652   YY=            -66.5920   ZZ=            -74.4519
   XY=              1.4060   XZ=              1.4568   YZ=              1.0682

 Normal termination of Gaussian 16 at Tue Dec  5 13:58:10 2023.
