 Gaussian 16, Revision B.01,
 Gaussian 16:  ES64L-G16RevB.01 20-Dec-2017

 -------------------------
 #P B3LYP/6-311+g(d) force
 -------------------------

 -----
 DPGEN
 -----
 Symbolic Z-matrix:
 Charge =  0 Multiplicity = 2

                         Standard orientation:
 ---------------------------------------------------------------------
 Center     Atomic      Atomic             Coordinates (Angstroms)
 Number     Number       Type             X           Y           Z
 ---------------------------------------------------------------------
      1         11           0       -0.178478   -1.203671   -0.849121
      2         11           0       -0.752921    0.629050    1.986162
      3         11           0       -2.125545    1.836366   -0.960721
      4         11           0        2.048981   -0.807276    1.666802
      5         11           0        1.471363    1.720331   -0.276052
      6         11           0        3.573991   -0.722022   -1.318307
      7         11           0       -4.037392   -1.452778   -0.248765
 ---------------------------------------------------------------------

 SCF Done:  E(UB3LYP) =  -1136.12299767     A.U. after   26 cycles

 The electronic state is 2-A.
 Alpha  occ. eigenvalues --  -38.44535 -38.44478 -38.44043 -38.44015 -38.43624
 Alpha  occ. eigenvalues --  -38.43513 -38.42770  -2.20402  -2.20314  -2.19979
 Alpha  occ. eigenvalues --   -2.19797  -2.19584  -2.19357  -2.18708  -1.14132
 Alpha  occ. eigenvalues --   -1.14108  -1.14004  -1.13984  -1.13963  -1.13909
 Alpha  occ. eigenvalues --   -1.13670  -1.13647  -1.13579  -1.13470  -1.13465
 Alpha  occ. eigenvalues --   -1.13416  -1.13285  -1.13245  -1.13188  -1.13021
 Alpha  occ. eigenvalues --   -1.13018  -1.12984  -1.12412  -1.12350  -1.12327
 Alpha  occ. eigenvalues --   -0.18831  -0.13865  -0.11551  -0.10976
 Alpha virt. eigenvalues --   -0.06625  -0.05338  -0.04587  -0.03113  -0.02652
 Alpha virt. eigenvalues --   -0.02333  -0.02172  -0.01300  -0.00934  -0.00170
 Alpha virt. eigenvalues --    0.00077   0.00280   0.00443   0.00510   0.00654

  Beta  occ. eigenvalues --  -38.44521 -38.44433 -38.44029 -38.43963 -38.43584
  Beta  occ. eigenvalues --  -38.43503 -38.42746  -2.20382  -2.20232  -2.19885
  Beta  occ. eigenvalues --   -2.19771  -2.19512  -2.19339  -2.18669  -1.14103
  Beta  occ. eigenvalues --   -1.14076  -1.13976  -1.13940  -1.13919  -1.13840
  Beta  occ. eigenvalues --   -1.13608  -1.13578  -1.13505  -1.13451  -1.13445
  Beta  occ. eigenvalues --   -1.13400  -1.13240  -1.13177  -1.13134  -1.13007
  Beta  occ. eigenvalues --   -1.12996  -1.12974  -1.12381  -1.12310  -1.12291
  Beta  occ. eigenvalues --   -0.18117  -0.13642  -0.10742
  Beta virt. eigenvalues --   -0.07609  -0.06420  -0.04981  -0.04252  -0.02707
  Beta virt. eigenvalues --   -0.02480  -0.01896  -0.01643  -0.01039  -0.00527
  Beta virt. eigenvalues --   -0.00052   0.00125   0.00371   0.00548   0.00591

 Mulliken charges and spin densities:
               1          2
     1  Na  -1.249482   0.330405
     2  Na  -0.000398   0.170115
     3  Na   0.263336   0.046115
     4  Na   0.368330  -0.007755
     5  Na  -0.341393   0.440168
     6  Na   0.792728   0.002185
     7  Na   0.166880   0.018766
 Sum of Mulliken charges =  -0.00000   1.00000

 Dipole moment (field-independent basis, Debye):
    X=              0.1015    Y=              0.5378    Z=              0.3052  Tot=              0.6266
 Quadrupole moment (field-independent basis, Debye-Ang):
   XX=            -55.6696   YY=            -70.1230   ZZ=            -70.8353
   XY=             -2.3264   XZ=             -0.8984   YZ=             -4.6758

 Normal termination of Gaussian 16 at Tue Dec  5 13:47:22 2023.
