 Gaussian 16, Revision B.01,
 Gaussian 16:  ES64L-G16RevB.01 20-Dec-2017

 -------------------------
 #P B3LYP/6-311+g(d) force
 -------------------------

 -----
 DPGEN
 -----
 Symbolic Z-matrix:
 Charge =  0 Multiplicity = 2

                         Standard orientation:
 ---------------------------------------------------------------------
 Center     Atomic      Atomic             Coordinates (Angstroms)
 Number     Number       Type             X           Y           Z
 ---------------------------------------------------------------------
      1         11           0       -3.017341   -1.075252   -0.104827
      2         11           0        0.047106    0.330940    2.111779
      3         11           0       -0.250171   -0.305762   -1.760896
      4         11           0       -1.872535    2.332477   -0.051674
      5         11           0        2.987419   -0.900302   -0.160171
      6         11           0        0.243427   -2.738206    0.253827
      7         11           0        1.862095    2.356105   -0.288038
 ---------------------------------------------------------------------

 SCF Done:  E(UB3LYP) =  -1136.13981325     A.U. after   18 cycles

 The electronic state is 2-A.
 Alpha  occ. eigenvalues --  -38.43989 -38.43804 -38.43718 -38.43641 -38.43528
 Alpha  occ. eigenvalues --  -38.43420 -38.43171  -2.19814  -2.19644  -2.19593
 Alpha  occ. eigenvalues --   -2.19471  -2.19369  -2.19353  -2.19055  -1.13502
 Alpha  occ. eigenvalues --   -1.13471  -1.13453  -1.13313  -1.13309  -1.13299
 Alpha  occ. eigenvalues --   -1.13258  -1.13225  -1.13217  -1.13152  -1.13137
 Alpha  occ. eigenvalues --   -1.13099  -1.13065  -1.13032  -1.13019  -1.13003
 Alpha  occ. eigenvalues --   -1.12987  -1.12980  -1.12735  -1.12716  -1.12675
 Alpha  occ. eigenvalues --   -0.18564  -0.12959  -0.12414  -0.10886
 Alpha virt. eigenvalues --   -0.05535  -0.05314  -0.04559  -0.03195  -0.03071
 Alpha virt. eigenvalues --   -0.02685  -0.01500  -0.01083  -0.00359  -0.00264
 Alpha virt. eigenvalues --   -0.00042   0.00368   0.00780   0.00880   0.00914

  Beta  occ. eigenvalues --  -38.43987 -38.43801 -38.43637 -38.43622 -38.43523
  Beta  occ. eigenvalues --  -38.43356 -38.43162  -2.19813  -2.19641  -2.19467
  Beta  occ. eigenvalues --   -2.19416  -2.19346  -2.19251  -2.19042  -1.13491
  Beta  occ. eigenvalues --   -1.13458  -1.13456  -1.13312  -1.13302  -1.13285
  Beta  occ. eigenvalues --   -1.13163  -1.13132  -1.13126  -1.13104  -1.13093
  Beta  occ. eigenvalues --   -1.13077  -1.13015  -1.13001  -1.12987  -1.12981
  Beta  occ. eigenvalues --   -1.12928  -1.12895  -1.12725  -1.12678  -1.12670
  Beta  occ. eigenvalues --   -0.17823  -0.12738  -0.12191
  Beta virt. eigenvalues --   -0.06963  -0.05494  -0.05317  -0.04484  -0.02429
  Beta virt. eigenvalues --   -0.02265  -0.01641  -0.01413  -0.01024  -0.00416
  Beta virt. eigenvalues --   -0.00301   0.00105   0.00389   0.00856   0.00866

 Mulliken charges and spin densities:
               1          2
     1  Na   0.238776  -0.068587
     2  Na  -0.487681   0.735162
     3  Na  -0.239074   0.558551
     4  Na   0.112641  -0.105508
     5  Na   0.094390  -0.050106
     6  Na   0.208720   0.001273
     7  Na   0.072228  -0.070785
 Sum of Mulliken charges =  -0.00000   1.00000

 Dipole moment (field-independent basis, Debye):
    X=             -0.1790    Y=              0.0698    Z=              0.0734  Tot=              0.2057
 Quadrupole moment (field-independent basis, Debye-Ang):
   XX=            -56.7257   YY=            -64.0768   ZZ=            -73.2660
   XY=              0.1653   XZ=             -0.6711   YZ=             -1.2987

 Normal termination of Gaussian 16 at Tue Dec  5 11:29:35 2023.
