 Gaussian 16, Revision B.01,
 Gaussian 16:  ES64L-G16RevB.01 20-Dec-2017

 -------------------------
 #P B3LYP/6-311+g(d) force
 -------------------------

 -----
 DPGEN
 -----
 Symbolic Z-matrix:
 Charge =  0 Multiplicity = 2

                         Standard orientation:
 ---------------------------------------------------------------------
 Center     Atomic      Atomic             Coordinates (Angstroms)
 Number     Number       Type             X           Y           Z
 ---------------------------------------------------------------------
      1         11           0        2.122045   -1.704374    1.132706
      2         11           0        1.523878    0.617401   -1.000885
      3         11           0       -2.539831    1.790878   -0.626024
      4         11           0       -1.385285   -1.990436    0.500322
      5         11           0       -4.315415   -1.117288   -0.619566
      6         11           0       -0.009113    2.475908    1.576721
      7         11           0        4.603722   -0.072089   -0.963275
 ---------------------------------------------------------------------

 SCF Done:  E(UB3LYP) =  -1136.12369607     A.U. after   21 cycles

 The electronic state is 2-A.
 Alpha  occ. eigenvalues --  -38.44446 -38.44393 -38.44374 -38.44108 -38.43691
 Alpha  occ. eigenvalues --  -38.43328 -38.43262  -2.20332  -2.20242  -2.20221
 Alpha  occ. eigenvalues --   -2.19920  -2.19512  -2.19163  -2.19065  -1.14065
 Alpha  occ. eigenvalues --   -1.14046  -1.13979  -1.13906  -1.13901  -1.13867
 Alpha  occ. eigenvalues --   -1.13855  -1.13834  -1.13803  -1.13620  -1.13589
 Alpha  occ. eigenvalues --   -1.13533  -1.13205  -1.13179  -1.13151  -1.12815
 Alpha  occ. eigenvalues --   -1.12814  -1.12799  -1.12734  -1.12722  -1.12698
 Alpha  occ. eigenvalues --   -0.17304  -0.14281  -0.11704  -0.11163
 Alpha virt. eigenvalues --   -0.06055  -0.05539  -0.04690  -0.03266  -0.02793
 Alpha virt. eigenvalues --   -0.02679  -0.01911  -0.01361  -0.01106  -0.00390
 Alpha virt. eigenvalues --   -0.00128   0.00125   0.00275   0.00453   0.00755

  Beta  occ. eigenvalues --  -38.44435 -38.44351 -38.44301 -38.44091 -38.43662
  Beta  occ. eigenvalues --  -38.43304 -38.43254  -2.20316  -2.20171  -2.20083
  Beta  occ. eigenvalues --   -2.19892  -2.19463  -2.19117  -2.19050  -1.14050
  Beta  occ. eigenvalues --   -1.14012  -1.13945  -1.13860  -1.13854  -1.13779
  Beta  occ. eigenvalues --   -1.13761  -1.13757  -1.13725  -1.13603  -1.13573
  Beta  occ. eigenvalues --   -1.13499  -1.13177  -1.13148  -1.13086  -1.12784
  Beta  occ. eigenvalues --   -1.12777  -1.12772  -1.12725  -1.12708  -1.12689
  Beta  occ. eigenvalues --   -0.16656  -0.13777  -0.11407
  Beta virt. eigenvalues --   -0.07560  -0.05868  -0.05312  -0.04111  -0.03053
  Beta virt. eigenvalues --   -0.02610  -0.02171  -0.01551  -0.01160  -0.00724
  Beta virt. eigenvalues --   -0.00189   0.00010   0.00227   0.00414   0.00610

 Mulliken charges and spin densities:
               1          2
     1  Na   0.282254  -0.047865
     2  Na  -1.028980   0.041614
     3  Na   0.094935   0.035116
     4  Na  -0.449107   0.113505
     5  Na   0.251079   0.396512
     6  Na   0.088757   0.188274
     7  Na   0.761062   0.272845
 Sum of Mulliken charges =  -0.00000   1.00000

 Dipole moment (field-independent basis, Debye):
    X=              1.0708    Y=              0.1210    Z=              0.2852  Tot=              1.1147
 Quadrupole moment (field-independent basis, Debye-Ang):
   XX=            -58.0021   YY=            -74.4918   ZZ=            -65.4628
   XY=             -2.6064   XZ=              3.3783   YZ=             -1.1665

 Normal termination of Gaussian 16 at Tue Nov 28 21:11:41 2023.
