 Gaussian 16, Revision B.01,
 Gaussian 16:  ES64L-G16RevB.01 20-Dec-2017

 -------------------------
 #P B3LYP/6-311+g(d) force
 -------------------------

 -----
 DPGEN
 -----
 Symbolic Z-matrix:
 Charge =  0 Multiplicity = 2

                         Standard orientation:
 ---------------------------------------------------------------------
 Center     Atomic      Atomic             Coordinates (Angstroms)
 Number     Number       Type             X           Y           Z
 ---------------------------------------------------------------------
      1         11           0        1.119766    1.841605    1.489264
      2         11           0       -1.431723    2.884993   -0.142149
      3         11           0       -3.391995   -2.368398   -0.212477
      4         11           0       -4.677251    0.471703   -1.615249
      5         11           0       -0.656993   -2.100463    2.049900
      6         11           0        3.545282    0.581325    0.092446
      7         11           0        5.492914   -1.310766   -1.661736
 ---------------------------------------------------------------------

 SCF Done:  E(UB3LYP) =  -1136.10263416     A.U. after   22 cycles

 The electronic state is 2-A.
 Alpha  occ. eigenvalues --  -38.46092 -38.45149 -38.44891 -38.44324 -38.44087
 Alpha  occ. eigenvalues --  -38.43758 -38.43715  -2.21864  -2.20927  -2.20648
 Alpha  occ. eigenvalues --   -2.20087  -2.19871  -2.19610  -2.19542  -1.15508
 Alpha  occ. eigenvalues --   -1.15491  -1.15471  -1.14581  -1.14562  -1.14554
 Alpha  occ. eigenvalues --   -1.14324  -1.14320  -1.14291  -1.13772  -1.13762
 Alpha  occ. eigenvalues --   -1.13742  -1.13530  -1.13520  -1.13520  -1.13370
 Alpha  occ. eigenvalues --   -1.13257  -1.13252  -1.13200  -1.13197  -1.13137
 Alpha  occ. eigenvalues --   -0.15880  -0.13868  -0.12401  -0.11764
 Alpha virt. eigenvalues --   -0.07051  -0.05932  -0.04285  -0.03713  -0.03142
 Alpha virt. eigenvalues --   -0.02456  -0.02108  -0.01578  -0.01178  -0.01018
 Alpha virt. eigenvalues --   -0.00809  -0.00630  -0.00421   0.00233   0.00644

  Beta  occ. eigenvalues --  -38.45977 -38.45080 -38.44894 -38.44338 -38.44054
  Beta  occ. eigenvalues --  -38.43753 -38.43720  -2.21649  -2.20796  -2.20655
  Beta  occ. eigenvalues --   -2.20119  -2.19810  -2.19600  -2.19554  -1.15363
  Beta  occ. eigenvalues --   -1.15348  -1.15320  -1.14492  -1.14475  -1.14470
  Beta  occ. eigenvalues --   -1.14329  -1.14325  -1.14289  -1.13798  -1.13786
  Beta  occ. eigenvalues --   -1.13728  -1.13492  -1.13479  -1.13479  -1.13367
  Beta  occ. eigenvalues --   -1.13254  -1.13241  -1.13209  -1.13205  -1.13131
  Beta  occ. eigenvalues --   -0.15324  -0.13463  -0.11607
  Beta virt. eigenvalues --   -0.08684  -0.06692  -0.05210  -0.03993  -0.03362
  Beta virt. eigenvalues --   -0.02874  -0.02315  -0.01960  -0.01160  -0.01054
  Beta virt. eigenvalues --   -0.00699  -0.00645  -0.00311  -0.00175   0.00289

 Mulliken charges and spin densities:
               1          2
     1  Na  -0.994078   0.214534
     2  Na   0.343008  -0.036270
     3  Na  -0.001224  -0.084749
     4  Na   0.159800   0.314283
     5  Na   0.022082   0.560626
     6  Na  -0.153154  -0.056692
     7  Na   0.623567   0.088267
 Sum of Mulliken charges =  -0.00000   1.00000

 Dipole moment (field-independent basis, Debye):
    X=             -1.3334    Y=             -0.4293    Z=             -0.0556  Tot=              1.4019
 Quadrupole moment (field-independent basis, Debye-Ang):
   XX=            -67.0687   YY=            -67.2366   ZZ=            -66.2472
   XY=             -6.2127   XZ=              2.5548   YZ=             -1.4113

 Normal termination of Gaussian 16 at Sun Dec  3 22:33:54 2023.
