 Gaussian 16, Revision B.01,
 Gaussian 16:  ES64L-G16RevB.01 20-Dec-2017

 -------------------------
 #P B3LYP/6-311+g(d) force
 -------------------------

 -----
 DPGEN
 -----
 Symbolic Z-matrix:
 Charge =  0 Multiplicity = 2

                         Standard orientation:
 ---------------------------------------------------------------------
 Center     Atomic      Atomic             Coordinates (Angstroms)
 Number     Number       Type             X           Y           Z
 ---------------------------------------------------------------------
      1         11           0       -1.123933   -1.514140    1.452900
      2         11           0       -2.132306    2.583388   -0.257828
      3         11           0        1.691660    0.782063    2.198292
      4         11           0        3.682039    0.136749   -0.850848
      5         11           0       -3.380196   -1.074199   -0.512372
      6         11           0        0.974520   -2.021459   -0.946390
      7         11           0        0.288216    1.107598   -1.083754
 ---------------------------------------------------------------------

 SCF Done:  E(UB3LYP) =  -1136.12013775     A.U. after   22 cycles

 The electronic state is 2-A.
 Alpha  occ. eigenvalues --  -38.45126 -38.45026 -38.44554 -38.43949 -38.43204
 Alpha  occ. eigenvalues --  -38.43144 -38.42801  -2.20927  -2.20835  -2.20384
 Alpha  occ. eigenvalues --   -2.19828  -2.19110  -2.19097  -2.18631  -1.14646
 Alpha  occ. eigenvalues --   -1.14576  -1.14538  -1.14501  -1.14492  -1.14468
 Alpha  occ. eigenvalues --   -1.14039  -1.14008  -1.13998  -1.13556  -1.13497
 Alpha  occ. eigenvalues --   -1.13415  -1.12825  -1.12790  -1.12781  -1.12768
 Alpha  occ. eigenvalues --   -1.12738  -1.12731  -1.12305  -1.12272  -1.12252
 Alpha  occ. eigenvalues --   -0.18254  -0.13607  -0.11459  -0.11315
 Alpha virt. eigenvalues --   -0.06852  -0.04829  -0.04387  -0.03292  -0.03016
 Alpha virt. eigenvalues --   -0.02517  -0.02376  -0.00981  -0.00768  -0.00030
 Alpha virt. eigenvalues --    0.00100   0.00201   0.00354   0.00683   0.00787

  Beta  occ. eigenvalues --  -38.45125 -38.45011 -38.44451 -38.43918 -38.43177
  Beta  occ. eigenvalues --  -38.43126 -38.42805  -2.20926  -2.20809  -2.20193
  Beta  occ. eigenvalues --   -2.19773  -2.19069  -2.19060  -2.18639  -1.14645
  Beta  occ. eigenvalues --   -1.14574  -1.14537  -1.14482  -1.14457  -1.14454
  Beta  occ. eigenvalues --   -1.13906  -1.13874  -1.13868  -1.13522  -1.13443
  Beta  occ. eigenvalues --   -1.13375  -1.12796  -1.12762  -1.12752  -1.12734
  Beta  occ. eigenvalues --   -1.12711  -1.12682  -1.12307  -1.12274  -1.12257
  Beta  occ. eigenvalues --   -0.17548  -0.13396  -0.11235
  Beta virt. eigenvalues --   -0.07358  -0.06730  -0.04656  -0.03806  -0.03200
  Beta virt. eigenvalues --   -0.02392  -0.02056  -0.01791  -0.00819  -0.00445
  Beta virt. eigenvalues --    0.00018   0.00160   0.00220   0.00464   0.00761

 Mulliken charges and spin densities:
               1          2
     1  Na   0.380051   0.241024
     2  Na   0.045384   0.013517
     3  Na  -0.350501   0.385228
     4  Na   0.848129   0.033443
     5  Na   0.037938  -0.003770
     6  Na  -0.187965   0.030428
     7  Na  -0.773036   0.300130
 Sum of Mulliken charges =  -0.00000   1.00000

 Dipole moment (field-independent basis, Debye):
    X=              0.6945    Y=             -0.4929    Z=             -0.0818  Tot=              0.8556
 Quadrupole moment (field-independent basis, Debye-Ang):
   XX=            -47.2463   YY=            -76.2152   ZZ=            -69.7286
   XY=              2.4940   XZ=              0.2674   YZ=              4.0213

 Normal termination of Gaussian 16 at Sun Dec  3 21:09:23 2023.
