 Gaussian 16, Revision B.01,
 Gaussian 16:  ES64L-G16RevB.01 20-Dec-2017

 -------------------------
 #P B3LYP/6-311+g(d) force
 -------------------------

 -----
 DPGEN
 -----
 Symbolic Z-matrix:
 Charge =  0 Multiplicity = 2

                         Standard orientation:
 ---------------------------------------------------------------------
 Center     Atomic      Atomic             Coordinates (Angstroms)
 Number     Number       Type             X           Y           Z
 ---------------------------------------------------------------------
      1         11           0       -3.339142   -0.670601    0.021494
      2         11           0       -0.573386   -2.576107   -0.334129
      3         11           0       -1.353166    2.960349   -0.185277
      4         11           0        2.942349   -1.486619    0.203789
      5         11           0        2.239615    2.086566    0.031662
      6         11           0       -0.270876   -0.162682    1.813203
      7         11           0        0.354606   -0.150906   -1.550741
 ---------------------------------------------------------------------

 SCF Done:  E(UB3LYP) =  -1136.13182070     A.U. after   19 cycles

 The electronic state is 2-A.
 Alpha  occ. eigenvalues --  -38.44449 -38.44021 -38.43941 -38.43855 -38.43359
 Alpha  occ. eigenvalues --  -38.43252 -38.43089  -2.20245  -2.19842  -2.19766
 Alpha  occ. eigenvalues --   -2.19628  -2.19312  -2.19175  -2.19102  -1.13915
 Alpha  occ. eigenvalues --   -1.13904  -1.13890  -1.13514  -1.13500  -1.13492
 Alpha  occ. eigenvalues --   -1.13459  -1.13432  -1.13385  -1.13307  -1.13284
 Alpha  occ. eigenvalues --   -1.13266  -1.13177  -1.12994  -1.12893  -1.12864
 Alpha  occ. eigenvalues --   -1.12798  -1.12774  -1.12755  -1.12707  -1.12679
 Alpha  occ. eigenvalues --   -0.18591  -0.13031  -0.12426  -0.10242
 Alpha virt. eigenvalues --   -0.05923  -0.05493  -0.04693  -0.03006  -0.02683
 Alpha virt. eigenvalues --   -0.02081  -0.01864  -0.01328  -0.00630  -0.00365
 Alpha virt. eigenvalues --    0.00013   0.00315   0.00725   0.00801   0.00861

  Beta  occ. eigenvalues --  -38.44449 -38.44016 -38.43937 -38.43854 -38.43340
  Beta  occ. eigenvalues --  -38.43171 -38.43020  -2.20247  -2.19836  -2.19761
  Beta  occ. eigenvalues --   -2.19628  -2.19282  -2.19026  -2.18979  -1.13909
  Beta  occ. eigenvalues --   -1.13897  -1.13893  -1.13506  -1.13491  -1.13478
  Beta  occ. eigenvalues --   -1.13449  -1.13416  -1.13383  -1.13295  -1.13285
  Beta  occ. eigenvalues --   -1.13268  -1.13136  -1.12929  -1.12878  -1.12771
  Beta  occ. eigenvalues --   -1.12696  -1.12669  -1.12663  -1.12620  -1.12594
  Beta  occ. eigenvalues --   -0.17875  -0.12809  -0.12191
  Beta virt. eigenvalues --   -0.06358  -0.05873  -0.05491  -0.04650  -0.02264
  Beta virt. eigenvalues --   -0.01959  -0.01761  -0.01289  -0.01072  -0.00668
  Beta virt. eigenvalues --   -0.00390   0.00155   0.00352   0.00766   0.00797

 Mulliken charges and spin densities:
               1          2
     1  Na   0.029844  -0.095792
     2  Na   0.463712   0.009782
     3  Na  -0.152369  -0.125434
     4  Na   0.155089  -0.015729
     5  Na  -0.008327  -0.083548
     6  Na  -0.393972   0.805063
     7  Na  -0.093977   0.505658
 Sum of Mulliken charges =  -0.00000   1.00000

 Dipole moment (field-independent basis, Debye):
    X=             -0.1009    Y=              0.1395    Z=              0.1630  Tot=              0.2371
 Quadrupole moment (field-independent basis, Debye-Ang):
   XX=            -51.5492   YY=            -62.2555   ZZ=            -77.2218
   XY=             -0.8544   XZ=              1.4209   YZ=             -0.1817

 Normal termination of Gaussian 16 at Tue Dec  5 10:21:56 2023.
