 Gaussian 16, Revision B.01,
 Gaussian 16:  ES64L-G16RevB.01 20-Dec-2017

 -------------------------
 #P B3LYP/6-311+g(d) force
 -------------------------

 -----
 DPGEN
 -----
 Symbolic Z-matrix:
 Charge =  0 Multiplicity = 2

                         Standard orientation:
 ---------------------------------------------------------------------
 Center     Atomic      Atomic             Coordinates (Angstroms)
 Number     Number       Type             X           Y           Z
 ---------------------------------------------------------------------
      1         11           0       -2.349669   -3.292264    0.502032
      2         11           0        3.460244    1.695114    1.073415
      3         11           0        0.809492   -3.383403   -0.935407
      4         11           0        3.313296   -1.877656   -0.195745
      5         11           0       -3.929758    0.040372    0.647529
      6         11           0        1.365591    3.399344   -0.371411
      7         11           0       -2.669197    3.418493   -0.720413
 ---------------------------------------------------------------------

 SCF Done:  E(UB3LYP) =  -1136.10488688     A.U. after   22 cycles

 The electronic state is 2-A.
 Alpha  occ. eigenvalues --  -38.45362 -38.45065 -38.44708 -38.44351 -38.44346
 Alpha  occ. eigenvalues --  -38.44272 -38.44268  -2.21077  -2.20847  -2.20528
 Alpha  occ. eigenvalues --   -2.20170  -2.20139  -2.20089  -2.20040  -1.14775
 Alpha  occ. eigenvalues --   -1.14758  -1.14710  -1.14543  -1.14512  -1.14489
 Alpha  occ. eigenvalues --   -1.14253  -1.14176  -1.14151  -1.13835  -1.13827
 Alpha  occ. eigenvalues --   -1.13822  -1.13797  -1.13779  -1.13753  -1.13753
 Alpha  occ. eigenvalues --   -1.13734  -1.13717  -1.13695  -1.13678  -1.13663
 Alpha  occ. eigenvalues --   -0.15546  -0.13831  -0.13518  -0.11001
 Alpha virt. eigenvalues --   -0.07654  -0.04924  -0.04421  -0.03630  -0.03592
 Alpha virt. eigenvalues --   -0.02199  -0.02034  -0.01754  -0.01649  -0.01130
 Alpha virt. eigenvalues --   -0.00859  -0.00142   0.00036   0.00367   0.00689

  Beta  occ. eigenvalues --  -38.45372 -38.45049 -38.44663 -38.44334 -38.44295
  Beta  occ. eigenvalues --  -38.44233 -38.44195  -2.21099  -2.20824  -2.20449
  Beta  occ. eigenvalues --   -2.20153  -2.20035  -2.20026  -2.19896  -1.14794
  Beta  occ. eigenvalues --   -1.14777  -1.14692  -1.14517  -1.14501  -1.14453
  Beta  occ. eigenvalues --   -1.14190  -1.14124  -1.14095  -1.13820  -1.13817
  Beta  occ. eigenvalues --   -1.13779  -1.13727  -1.13712  -1.13706  -1.13692
  Beta  occ. eigenvalues --   -1.13687  -1.13674  -1.13598  -1.13582  -1.13568
  Beta  occ. eigenvalues --   -0.15029  -0.13140  -0.12687
  Beta virt. eigenvalues --   -0.07930  -0.07808  -0.04387  -0.03919  -0.03452
  Beta virt. eigenvalues --   -0.03373  -0.01961  -0.01798  -0.01536  -0.01475
  Beta virt. eigenvalues --   -0.00781  -0.00656   0.00111   0.00200   0.00329

 Mulliken charges and spin densities:
               1          2
     1  Na   0.160667   0.258442
     2  Na   0.281007   0.103908
     3  Na  -0.130881  -0.009333
     4  Na   0.060099   0.178874
     5  Na  -0.109814  -0.026425
     6  Na  -0.461181   0.098028
     7  Na   0.200103   0.396506
 Sum of Mulliken charges =  -0.00000   1.00000

 Dipole moment (field-independent basis, Debye):
    X=              0.4216    Y=             -0.0515    Z=              0.1671  Tot=              0.4564
 Quadrupole moment (field-independent basis, Debye-Ang):
   XX=            -63.7101   YY=            -67.0165   ZZ=            -70.7768
   XY=              0.5665   XZ=              0.7919   YZ=             -1.5515

 Normal termination of Gaussian 16 at Mon Dec  4 01:53:53 2023.
