 Gaussian 16, Revision B.01,
 Gaussian 16:  ES64L-G16RevB.01 20-Dec-2017

 -------------------------
 #P B3LYP/6-311+g(d) force
 -------------------------

 -----
 DPGEN
 -----
 Symbolic Z-matrix:
 Charge =  0 Multiplicity = 2

                         Standard orientation:
 ---------------------------------------------------------------------
 Center     Atomic      Atomic             Coordinates (Angstroms)
 Number     Number       Type             X           Y           Z
 ---------------------------------------------------------------------
      1         11           0       -0.700843   -0.011522    1.327243
      2         11           0        0.256319    2.097850   -0.540757
      3         11           0       -3.379243   -0.000743    0.293243
      4         11           0       -1.091859   -0.559011   -1.345957
      5         11           0        1.825757    0.007203   -1.427457
      6         11           0        1.093895   -2.094675    0.204143
      7         11           0        1.995974    0.560898    1.489543
 ---------------------------------------------------------------------

 SCF Done:  E(UB3LYP) =  -1136.07973280     A.U. after   25 cycles

 The electronic state is 2-A.
 Alpha  occ. eigenvalues --  -38.44816 -38.44479 -38.44376 -38.44070 -38.43848
 Alpha  occ. eigenvalues --  -38.42625 -38.42568  -2.20740  -2.20687  -2.20495
 Alpha  occ. eigenvalues --   -2.20379  -2.20061  -2.18724  -2.18665  -1.14629
 Alpha  occ. eigenvalues --   -1.14488  -1.14469  -1.14406  -1.14364  -1.14354
 Alpha  occ. eigenvalues --   -1.14314  -1.14232  -1.14060  -1.14049  -1.13929
 Alpha  occ. eigenvalues --   -1.13875  -1.13714  -1.13632  -1.13610  -1.12456
 Alpha  occ. eigenvalues --   -1.12378  -1.12368  -1.12317  -1.12293  -1.12254
 Alpha  occ. eigenvalues --   -0.21286  -0.14078  -0.12790  -0.11817
 Alpha virt. eigenvalues --   -0.06088  -0.04173  -0.03668  -0.03462  -0.02862
 Alpha virt. eigenvalues --   -0.02766  -0.01640  -0.00546  -0.00256   0.00270
 Alpha virt. eigenvalues --    0.00584   0.00679   0.00960   0.01021   0.01039

  Beta  occ. eigenvalues --  -38.44812 -38.44418 -38.44316 -38.44007 -38.43795
  Beta  occ. eigenvalues --  -38.42604 -38.42556  -2.20734  -2.20581  -2.20388
  Beta  occ. eigenvalues --   -2.20271  -2.19969  -2.18693  -2.18650  -1.14587
  Beta  occ. eigenvalues --   -1.14445  -1.14428  -1.14312  -1.14310  -1.14292
  Beta  occ. eigenvalues --   -1.14268  -1.14165  -1.13987  -1.13971  -1.13856
  Beta  occ. eigenvalues --   -1.13795  -1.13639  -1.13551  -1.13540  -1.12435
  Beta  occ. eigenvalues --   -1.12373  -1.12314  -1.12281  -1.12267  -1.12218
  Beta  occ. eigenvalues --   -0.20422  -0.13928  -0.11505
  Beta virt. eigenvalues --   -0.08292  -0.05977  -0.03621  -0.03416  -0.03230
  Beta virt. eigenvalues --   -0.02077  -0.01894  -0.01536  -0.00257  -0.00172
  Beta virt. eigenvalues --    0.00308   0.00654   0.00845   0.00955   0.01022

 Mulliken charges and spin densities:
               1          2
     1  Na   0.452543   0.514241
     2  Na  -1.097486  -0.031076
     3  Na  -0.105233   0.016644
     4  Na   0.089916   0.185476
     5  Na   1.165911   0.262603
     6  Na  -0.997306   0.192579
     7  Na   0.491654  -0.140466
 Sum of Mulliken charges =  -0.00000   1.00000

 Dipole moment (field-independent basis, Debye):
    X=             -0.4957    Y=              0.1445    Z=              0.1211  Tot=              0.5304
 Quadrupole moment (field-independent basis, Debye-Ang):
   XX=            -53.9038   YY=            -75.9170   ZZ=            -65.0165
   XY=             -0.3942   XZ=              0.1706   YZ=             -0.1551

 Normal termination of Gaussian 16 at Fri Dec  8 17:28:23 2023.
