 Gaussian 16, Revision B.01,
 Gaussian 16:  ES64L-G16RevB.01 20-Dec-2017

 -------------------------
 #P B3LYP/6-311+g(d) force
 -------------------------

 -----
 DPGEN
 -----
 Symbolic Z-matrix:
 Charge =  0 Multiplicity = 2

                         Standard orientation:
 ---------------------------------------------------------------------
 Center     Atomic      Atomic             Coordinates (Angstroms)
 Number     Number       Type             X           Y           Z
 ---------------------------------------------------------------------
      1         11           0        1.581737    1.214948   -1.370449
      2         11           0       -1.353948    2.521228   -0.578998
      3         11           0       -4.022567   -0.760299    1.018389
      4         11           0       -1.708159   -1.276628   -1.216091
      5         11           0       -0.054998    0.153424    1.609986
      6         11           0        3.515510    0.030701    1.625465
      7         11           0        2.042424   -1.883374   -1.088302
 ---------------------------------------------------------------------

 SCF Done:  E(UB3LYP) =  -1136.12413051     A.U. after   23 cycles

 The electronic state is 2-A.
 Alpha  occ. eigenvalues --  -38.44837 -38.44599 -38.44255 -38.44112 -38.44020
 Alpha  occ. eigenvalues --  -38.43349 -38.42424  -2.20692  -2.20413  -2.20036
 Alpha  occ. eigenvalues --   -2.19956  -2.19881  -2.19260  -2.18263  -1.14399
 Alpha  occ. eigenvalues --   -1.14334  -1.14312  -1.14074  -1.14064  -1.14026
 Alpha  occ. eigenvalues --   -1.13729  -1.13696  -1.13684  -1.13651  -1.13597
 Alpha  occ. eigenvalues --   -1.13591  -1.13560  -1.13532  -1.13481  -1.12950
 Alpha  occ. eigenvalues --   -1.12921  -1.12877  -1.11938  -1.11922  -1.11902
 Alpha  occ. eigenvalues --   -0.18215  -0.13739  -0.11700  -0.10925
 Alpha virt. eigenvalues --   -0.06591  -0.05298  -0.04682  -0.03222  -0.02675
 Alpha virt. eigenvalues --   -0.02438  -0.02354  -0.01447  -0.00790  -0.00115
 Alpha virt. eigenvalues --    0.00079   0.00120   0.00361   0.00574   0.00637

  Beta  occ. eigenvalues --  -38.44794 -38.44547 -38.44254 -38.44084 -38.43972
  Beta  occ. eigenvalues --  -38.43327 -38.42425  -2.20615  -2.20318  -2.20036
  Beta  occ. eigenvalues --   -2.19907  -2.19795  -2.19222  -2.18266  -1.14340
  Beta  occ. eigenvalues --   -1.14282  -1.14246  -1.14005  -1.13990  -1.13970
  Beta  occ. eigenvalues --   -1.13725  -1.13695  -1.13678  -1.13620  -1.13566
  Beta  occ. eigenvalues --   -1.13526  -1.13513  -1.13476  -1.13407  -1.12919
  Beta  occ. eigenvalues --   -1.12870  -1.12862  -1.11933  -1.11925  -1.11904
  Beta  occ. eigenvalues --   -0.17464  -0.13569  -0.10803
  Beta virt. eigenvalues --   -0.07748  -0.06324  -0.04726  -0.04540  -0.02875
  Beta virt. eigenvalues --   -0.02364  -0.01942  -0.01870  -0.01006  -0.00690
  Beta virt. eigenvalues --   -0.00041   0.00140   0.00277   0.00461   0.00634

 Mulliken charges and spin densities:
               1          2
     1  Na   0.122212   0.325679
     2  Na  -0.038558  -0.116537
     3  Na   0.369301   0.006292
     4  Na  -0.266949   0.071375
     5  Na  -0.575647   0.471898
     6  Na   0.257221   0.064012
     7  Na   0.132420   0.177282
 Sum of Mulliken charges =  -0.00000   1.00000

 Dipole moment (field-independent basis, Debye):
    X=              0.2702    Y=              0.0709    Z=              0.4673  Tot=              0.5444
 Quadrupole moment (field-independent basis, Debye-Ang):
   XX=            -53.2699   YY=            -76.1948   ZZ=            -66.8185
   XY=             -1.8513   XZ=             -1.0373   YZ=              2.8966

 Normal termination of Gaussian 16 at Thu Dec  7 16:11:58 2023.
