 Gaussian 16, Revision B.01,
 Gaussian 16:  ES64L-G16RevB.01 20-Dec-2017

 -------------------------
 #P B3LYP/6-311+g(d) force
 -------------------------

 -----
 DPGEN
 -----
 Symbolic Z-matrix:
 Charge =  0 Multiplicity = 2

                         Standard orientation:
 ---------------------------------------------------------------------
 Center     Atomic      Atomic             Coordinates (Angstroms)
 Number     Number       Type             X           Y           Z
 ---------------------------------------------------------------------
      1         11           0       -1.232115   -1.721064    0.010241
      2         11           0       -1.405700    1.677342    1.412139
      3         11           0        3.024981   -1.414316   -0.881517
      4         11           0        1.372231   -0.801059    1.924171
      5         11           0        2.486910    1.703841   -0.269657
      6         11           0       -3.718715   -0.523471   -0.481390
      7         11           0       -0.527592    1.078727   -1.713987
 ---------------------------------------------------------------------

 SCF Done:  E(UB3LYP) =  -1136.12048906     A.U. after   24 cycles

 The electronic state is 2-A.
 Alpha  occ. eigenvalues --  -38.45018 -38.44273 -38.43837 -38.43824 -38.43653
 Alpha  occ. eigenvalues --  -38.43606 -38.43394  -2.20891  -2.20111  -2.19697
 Alpha  occ. eigenvalues --   -2.19682  -2.19535  -2.19500  -2.19337  -1.14658
 Alpha  occ. eigenvalues --   -1.14527  -1.14490  -1.13794  -1.13765  -1.13748
 Alpha  occ. eigenvalues --   -1.13386  -1.13367  -1.13350  -1.13350  -1.13317
 Alpha  occ. eigenvalues --   -1.13307  -1.13241  -1.13193  -1.13175  -1.13140
 Alpha  occ. eigenvalues --   -1.13138  -1.13114  -1.13002  -1.12994  -1.12971
 Alpha  occ. eigenvalues --   -0.18625  -0.14289  -0.11362  -0.10967
 Alpha virt. eigenvalues --   -0.06624  -0.05335  -0.04489  -0.03139  -0.02734
 Alpha virt. eigenvalues --   -0.02464  -0.02376  -0.01070  -0.00562  -0.00115
 Alpha virt. eigenvalues --    0.00190   0.00290   0.00361   0.00657   0.00791

  Beta  occ. eigenvalues --  -38.45007 -38.44254 -38.43816 -38.43784 -38.43628
  Beta  occ. eigenvalues --  -38.43547 -38.43379  -2.20872  -2.20076  -2.19671
  Beta  occ. eigenvalues --   -2.19600  -2.19488  -2.19393  -2.19317  -1.14646
  Beta  occ. eigenvalues --   -1.14503  -1.14479  -1.13773  -1.13735  -1.13719
  Beta  occ. eigenvalues --   -1.13352  -1.13335  -1.13325  -1.13296  -1.13262
  Beta  occ. eigenvalues --   -1.13254  -1.13211  -1.13132  -1.13123  -1.13104
  Beta  occ. eigenvalues --   -1.13071  -1.13021  -1.12993  -1.12968  -1.12929
  Beta  occ. eigenvalues --   -0.17904  -0.14024  -0.10805
  Beta virt. eigenvalues --   -0.07478  -0.06404  -0.05154  -0.03946  -0.02940
  Beta virt. eigenvalues --   -0.02264  -0.02140  -0.01618  -0.00885  -0.00342
  Beta virt. eigenvalues --   -0.00011   0.00222   0.00310   0.00515   0.00728

 Mulliken charges and spin densities:
               1          2
     1  Na  -0.774229   0.034202
     2  Na  -0.316763   0.163512
     3  Na   0.034993  -0.004610
     4  Na   0.171064   0.429786
     5  Na   0.111593   0.114902
     6  Na   0.951093  -0.020539
     7  Na  -0.177750   0.282747
 Sum of Mulliken charges =  -0.00000   1.00000

 Dipole moment (field-independent basis, Debye):
    X=             -0.4461    Y=              0.3800    Z=             -0.1768  Tot=              0.6121
 Quadrupole moment (field-independent basis, Debye-Ang):
   XX=            -49.8332   YY=            -77.3906   ZZ=            -67.8483
   XY=             -1.6518   XZ=             -1.0185   YZ=              4.3996

 Normal termination of Gaussian 16 at Tue Dec  5 22:56:55 2023.
