 Gaussian 16, Revision B.01,
 Gaussian 16:  ES64L-G16RevB.01 20-Dec-2017

 -------------------------
 #P B3LYP/6-311+g(d) force
 -------------------------

 -----
 DPGEN
 -----
 Symbolic Z-matrix:
 Charge =  0 Multiplicity = 2

                         Standard orientation:
 ---------------------------------------------------------------------
 Center     Atomic      Atomic             Coordinates (Angstroms)
 Number     Number       Type             X           Y           Z
 ---------------------------------------------------------------------
      1         11           0       -2.723581   -1.885502    0.210339
      2         11           0       -0.596609    0.305224   -1.705478
      3         11           0       -2.863942    2.260401   -0.082871
      4         11           0        2.552604    2.299492   -0.040433
      5         11           0       -0.187472    0.239290    1.967132
      6         11           0        0.316874   -2.187778   -0.317455
      7         11           0        3.502127   -1.031128   -0.031234
 ---------------------------------------------------------------------

 SCF Done:  E(UB3LYP) =  -1136.12001027     A.U. after   23 cycles

 The electronic state is 2-A.
 Alpha  occ. eigenvalues --  -38.44849 -38.44723 -38.44671 -38.44079 -38.43822
 Alpha  occ. eigenvalues --  -38.43582 -38.42628  -2.20634  -2.20508  -2.20479
 Alpha  occ. eigenvalues --   -2.19849  -2.19680  -2.19510  -2.18599  -1.14303
 Alpha  occ. eigenvalues --   -1.14300  -1.14279  -1.14194  -1.14164  -1.14155
 Alpha  occ. eigenvalues --   -1.14139  -1.14133  -1.14119  -1.13526  -1.13507
 Alpha  occ. eigenvalues --   -1.13496  -1.13373  -1.13303  -1.13289  -1.13236
 Alpha  occ. eigenvalues --   -1.13135  -1.13116  -1.12309  -1.12247  -1.12221
 Alpha  occ. eigenvalues --   -0.18212  -0.13376  -0.11681  -0.10472
 Alpha virt. eigenvalues --   -0.06480  -0.06323  -0.03790  -0.03244  -0.02584
 Alpha virt. eigenvalues --   -0.02469  -0.02160  -0.01791  -0.00836  -0.00152
 Alpha virt. eigenvalues --   -0.00056   0.00206   0.00563   0.00651   0.00709

  Beta  occ. eigenvalues --  -38.44850 -38.44724 -38.44665 -38.44077 -38.43732
  Beta  occ. eigenvalues --  -38.43513 -38.42611  -2.20638  -2.20500  -2.20482
  Beta  occ. eigenvalues --   -2.19849  -2.19515  -2.19383  -2.18574  -1.14309
  Beta  occ. eigenvalues --   -1.14292  -1.14282  -1.14193  -1.14146  -1.14138
  Beta  occ. eigenvalues --   -1.14135  -1.14130  -1.14123  -1.13512  -1.13509
  Beta  occ. eigenvalues --   -1.13493  -1.13262  -1.13186  -1.13170  -1.13148
  Beta  occ. eigenvalues --   -1.13037  -1.13028  -1.12292  -1.12210  -1.12182
  Beta  occ. eigenvalues --   -0.17469  -0.13235  -0.11451
  Beta virt. eigenvalues --   -0.06615  -0.06414  -0.06182  -0.03799  -0.02599
  Beta virt. eigenvalues --   -0.02094  -0.01891  -0.01779  -0.01269  -0.00897
  Beta virt. eigenvalues --   -0.00093   0.00065   0.00245   0.00586   0.00706

 Mulliken charges and spin densities:
               1          2
     1  Na   0.323029   0.039923
     2  Na  -0.070529   0.333115
     3  Na  -0.094259  -0.096140
     4  Na   0.144354  -0.013455
     5  Na  -0.397422   0.566355
     6  Na   0.142037   0.214353
     7  Na  -0.047210  -0.044151
 Sum of Mulliken charges =  -0.00000   1.00000

 Dipole moment (field-independent basis, Debye):
    X=              0.1149    Y=              0.1439    Z=              0.2437  Tot=              0.3055
 Quadrupole moment (field-independent basis, Debye-Ang):
   XX=            -48.8933   YY=            -66.7968   ZZ=            -76.4311
   XY=              1.5500   XZ=             -1.2340   YZ=             -0.3026

 Normal termination of Gaussian 16 at Thu Dec  7 05:50:47 2023.
