 Gaussian 16, Revision B.01,
 Gaussian 16:  ES64L-G16RevB.01 20-Dec-2017

 -------------------------
 #P B3LYP/6-311+g(d) force
 -------------------------

 -----
 DPGEN
 -----
 Symbolic Z-matrix:
 Charge =  0 Multiplicity = 2

                         Standard orientation:
 ---------------------------------------------------------------------
 Center     Atomic      Atomic             Coordinates (Angstroms)
 Number     Number       Type             X           Y           Z
 ---------------------------------------------------------------------
      1         11           0       -2.054017   -1.372037   -1.182186
      2         11           0       -2.275532    1.807325    0.095263
      3         11           0       -4.891147    0.077280   -0.492135
      4         11           0       -1.147576   -0.881361    1.981478
      5         11           0        1.069350    0.243831    0.132377
      6         11           0        4.706089   -1.533416   -0.264702
      7         11           0        4.592833    1.658377   -0.270096
 ---------------------------------------------------------------------

 SCF Done:  E(UB3LYP) =  -1136.11259166     A.U. after   23 cycles

 The electronic state is 2-A.
 Alpha  occ. eigenvalues --  -38.45320 -38.45039 -38.44242 -38.43712 -38.43147
 Alpha  occ. eigenvalues --  -38.43018 -38.42363  -2.21102  -2.20831  -2.20122
 Alpha  occ. eigenvalues --   -2.19625  -2.19069  -2.18903  -2.18218  -1.14767
 Alpha  occ. eigenvalues --   -1.14762  -1.14746  -1.14494  -1.14486  -1.14454
 Alpha  occ. eigenvalues --   -1.13788  -1.13785  -1.13776  -1.13314  -1.13285
 Alpha  occ. eigenvalues --   -1.13216  -1.12761  -1.12725  -1.12664  -1.12611
 Alpha  occ. eigenvalues --   -1.12576  -1.12510  -1.11884  -1.11874  -1.11871
 Alpha  occ. eigenvalues --   -0.17424  -0.14566  -0.11082  -0.09973
 Alpha virt. eigenvalues --   -0.06685  -0.06215  -0.04625  -0.03132  -0.02479
 Alpha virt. eigenvalues --   -0.02269  -0.01840  -0.01494  -0.01201  -0.00803
 Alpha virt. eigenvalues --   -0.00365   0.00130   0.00284   0.00347   0.00473

  Beta  occ. eigenvalues --  -38.45310 -38.45038 -38.44235 -38.43651 -38.43075
  Beta  occ. eigenvalues --  -38.43005 -38.42360  -2.21082  -2.20830  -2.20113
  Beta  occ. eigenvalues --   -2.19514  -2.18936  -2.18882  -2.18216  -1.14753
  Beta  occ. eigenvalues --   -1.14750  -1.14734  -1.14494  -1.14483  -1.14451
  Beta  occ. eigenvalues --   -1.13787  -1.13783  -1.13730  -1.13232  -1.13210
  Beta  occ. eigenvalues --   -1.13133  -1.12670  -1.12637  -1.12602  -1.12563
  Beta  occ. eigenvalues --   -1.12528  -1.12495  -1.11882  -1.11873  -1.11852
  Beta  occ. eigenvalues --   -0.16766  -0.14429  -0.10885
  Beta virt. eigenvalues --   -0.06730  -0.06224  -0.05591  -0.04544  -0.03103
  Beta virt. eigenvalues --   -0.02201  -0.01605  -0.01488  -0.01434  -0.00815
  Beta virt. eigenvalues --   -0.00441  -0.00156   0.00259   0.00377   0.00477

 Mulliken charges and spin densities:
               1          2
     1  Na   0.163710   0.330496
     2  Na   0.180943   0.372566
     3  Na   0.171054  -0.033438
     4  Na   0.537677   0.086792
     5  Na  -1.532519   0.278755
     6  Na   0.303913   0.000591
     7  Na   0.175221  -0.035762
 Sum of Mulliken charges =  -0.00000   1.00000

 Dipole moment (field-independent basis, Debye):
    X=              2.7960    Y=             -0.5452    Z=              0.5694  Tot=              2.9050
 Quadrupole moment (field-independent basis, Debye-Ang):
   XX=            -65.1677   YY=            -66.6174   ZZ=            -66.6575
   XY=              1.4743   XZ=             -5.5278   YZ=             -1.8376

 Normal termination of Gaussian 16 at Sat Dec  9 05:27:01 2023.
