 Gaussian 16, Revision B.01,
 Gaussian 16:  ES64L-G16RevB.01 20-Dec-2017

 -------------------------
 #P B3LYP/6-311+g(d) force
 -------------------------

 -----
 DPGEN
 -----
 Symbolic Z-matrix:
 Charge =  0 Multiplicity = 2

                         Standard orientation:
 ---------------------------------------------------------------------
 Center     Atomic      Atomic             Coordinates (Angstroms)
 Number     Number       Type             X           Y           Z
 ---------------------------------------------------------------------
      1         11           0       -3.609207   -0.682011    0.941026
      2         11           0        4.137836   -0.564151    0.892883
      3         11           0       -1.417073    2.480843   -0.096992
      4         11           0        1.925549    1.928492   -0.723736
      5         11           0       -1.921258   -0.993594   -1.884187
      6         11           0        1.465461   -1.707651   -1.053265
      7         11           0       -0.581308   -0.461928    1.924271
 ---------------------------------------------------------------------

 SCF Done:  E(UB3LYP) =  -1136.12021721     A.U. after   25 cycles

 The electronic state is 2-A.
 Alpha  occ. eigenvalues --  -38.45392 -38.45070 -38.44698 -38.44220 -38.43992
 Alpha  occ. eigenvalues --  -38.43353 -38.42464  -2.21221  -2.20844  -2.20541
 Alpha  occ. eigenvalues --   -2.20062  -2.19817  -2.19159  -2.18281  -1.14885
 Alpha  occ. eigenvalues --   -1.14875  -1.14850  -1.14509  -1.14503  -1.14470
 Alpha  occ. eigenvalues --   -1.14219  -1.14195  -1.14173  -1.13728  -1.13694
 Alpha  occ. eigenvalues --   -1.13692  -1.13507  -1.13494  -1.13425  -1.12853
 Alpha  occ. eigenvalues --   -1.12832  -1.12774  -1.11959  -1.11952  -1.11913
 Alpha  occ. eigenvalues --   -0.17779  -0.14011  -0.11420  -0.10873
 Alpha virt. eigenvalues --   -0.07153  -0.05268  -0.04705  -0.03329  -0.02987
 Alpha virt. eigenvalues --   -0.02542  -0.02295  -0.01417  -0.00845  -0.00341
 Alpha virt. eigenvalues --    0.00006   0.00140   0.00246   0.00538   0.00718

  Beta  occ. eigenvalues --  -38.45334 -38.45054 -38.44683 -38.44154 -38.43963
  Beta  occ. eigenvalues --  -38.43348 -38.42462  -2.21115  -2.20814  -2.20516
  Beta  occ. eigenvalues --   -2.19942  -2.19766  -2.19151  -2.18277  -1.14814
  Beta  occ. eigenvalues --   -1.14788  -1.14777  -1.14487  -1.14482  -1.14451
  Beta  occ. eigenvalues --   -1.14184  -1.14178  -1.14155  -1.13637  -1.13614
  Beta  occ. eigenvalues --   -1.13607  -1.13478  -1.13454  -1.13365  -1.12840
  Beta  occ. eigenvalues --   -1.12827  -1.12770  -1.11954  -1.11945  -1.11910
  Beta  occ. eigenvalues --   -0.17100  -0.13823  -0.10742
  Beta virt. eigenvalues --   -0.07527  -0.06873  -0.05077  -0.04313  -0.03039
  Beta virt. eigenvalues --   -0.02582  -0.02063  -0.01705  -0.01000  -0.00745
  Beta virt. eigenvalues --   -0.00307   0.00067   0.00277   0.00299   0.00634

 Mulliken charges and spin densities:
               1          2
     1  Na   0.837629   0.033593
     2  Na   0.565819   0.115507
     3  Na  -0.241239   0.095309
     4  Na  -0.253138  -0.016213
     5  Na  -0.224836   0.240903
     6  Na  -0.164707   0.177068
     7  Na  -0.519529   0.353834
 Sum of Mulliken charges =  -0.00000   1.00000

 Dipole moment (field-independent basis, Debye):
    X=              0.2241    Y=             -0.5087    Z=              0.6684  Tot=              0.8694
 Quadrupole moment (field-independent basis, Debye-Ang):
   XX=            -46.8541   YY=            -80.7446   ZZ=            -68.2343
   XY=             -0.1990   XZ=              2.9869   YZ=             -0.6237

 Normal termination of Gaussian 16 at Mon Dec  4 04:43:25 2023.
