 Gaussian 16, Revision B.01,
 Gaussian 16:  ES64L-G16RevB.01 20-Dec-2017

 -------------------------
 #P B3LYP/6-311+g(d) force
 -------------------------

 -----
 DPGEN
 -----
 Symbolic Z-matrix:
 Charge =  0 Multiplicity = 2

                         Standard orientation:
 ---------------------------------------------------------------------
 Center     Atomic      Atomic             Coordinates (Angstroms)
 Number     Number       Type             X           Y           Z
 ---------------------------------------------------------------------
      1         11           0        1.885788   -0.980312   -1.728775
      2         11           0       -2.440267   -2.069770   -0.900839
      3         11           0       -3.830399    0.539816    1.025466
      4         11           0       -1.402333    1.480918   -0.778594
      5         11           0        0.187209   -0.271377    1.722892
      6         11           0        3.685054   -0.846105    1.306018
      7         11           0        1.914947    2.146831   -0.646168
 ---------------------------------------------------------------------

 SCF Done:  E(UB3LYP) =  -1136.11839721     A.U. after   27 cycles

 The electronic state is 2-A.
 Alpha  occ. eigenvalues --  -38.45222 -38.45019 -38.44799 -38.44357 -38.43758
 Alpha  occ. eigenvalues --  -38.43070 -38.42837  -2.21042  -2.20839  -2.20626
 Alpha  occ. eigenvalues --   -2.20161  -2.19555  -2.18923  -2.18743  -1.14731
 Alpha  occ. eigenvalues --   -1.14693  -1.14665  -1.14534  -1.14500  -1.14443
 Alpha  occ. eigenvalues --   -1.14297  -1.14284  -1.14241  -1.13826  -1.13817
 Alpha  occ. eigenvalues --   -1.13775  -1.13224  -1.13221  -1.13199  -1.12605
 Alpha  occ. eigenvalues --   -1.12588  -1.12557  -1.12449  -1.12421  -1.12350
 Alpha  occ. eigenvalues --   -0.17979  -0.14340  -0.11058  -0.10716
 Alpha virt. eigenvalues --   -0.06967  -0.05724  -0.05004  -0.03139  -0.02792
 Alpha virt. eigenvalues --   -0.02400  -0.02160  -0.01399  -0.01057  -0.00365
 Alpha virt. eigenvalues --    0.00023   0.00151   0.00209   0.00387   0.00487

  Beta  occ. eigenvalues --  -38.45211 -38.44966 -38.44754 -38.44299 -38.43761
  Beta  occ. eigenvalues --  -38.43070 -38.42833  -2.21023  -2.20744  -2.20541
  Beta  occ. eigenvalues --   -2.20052  -2.19561  -2.18924  -2.18738  -1.14716
  Beta  occ. eigenvalues --   -1.14672  -1.14652  -1.14461  -1.14433  -1.14370
  Beta  occ. eigenvalues --   -1.14235  -1.14219  -1.14186  -1.13748  -1.13741
  Beta  occ. eigenvalues --   -1.13699  -1.13228  -1.13219  -1.13201  -1.12597
  Beta  occ. eigenvalues --   -1.12590  -1.12561  -1.12449  -1.12383  -1.12362
  Beta  occ. eigenvalues --   -0.17374  -0.14206  -0.10548
  Beta virt. eigenvalues --   -0.07352  -0.06716  -0.05149  -0.04746  -0.02790
  Beta virt. eigenvalues --   -0.02625  -0.01846  -0.01632  -0.01090  -0.00748
  Beta virt. eigenvalues --   -0.00282   0.00084   0.00217   0.00311   0.00562

 Mulliken charges and spin densities:
               1          2
     1  Na  -0.234397   0.318732
     2  Na  -0.176715   0.240647
     3  Na   1.121794  -0.058958
     4  Na  -0.533726   0.173560
     5  Na  -0.818621   0.479077
     6  Na   0.537654  -0.183347
     7  Na   0.104012   0.030288
 Sum of Mulliken charges =  -0.00000   1.00000

 Dipole moment (field-independent basis, Debye):
    X=             -0.7564    Y=              0.0831    Z=              0.2636  Tot=              0.8053
 Quadrupole moment (field-independent basis, Debye-Ang):
   XX=            -49.8182   YY=            -76.1053   ZZ=            -70.4343
   XY=              0.6416   XZ=             -4.1664   YZ=              4.8271

 Normal termination of Gaussian 16 at Thu Dec  7 12:41:54 2023.
