 Gaussian 16, Revision B.01,
 Gaussian 16:  ES64L-G16RevB.01 20-Dec-2017

 -------------------------
 #P B3LYP/6-311+g(d) force
 -------------------------

 -----
 DPGEN
 -----
 Symbolic Z-matrix:
 Charge =  0 Multiplicity = 2

                         Standard orientation:
 ---------------------------------------------------------------------
 Center     Atomic      Atomic             Coordinates (Angstroms)
 Number     Number       Type             X           Y           Z
 ---------------------------------------------------------------------
      1         11           0        3.522769   -1.376190   -0.900441
      2         11           0        0.137901   -0.623739   -1.310472
      3         11           0        1.568697    2.465010   -0.519488
      4         11           0        1.215457    0.056004    1.974139
      5         11           0       -3.569538    0.071804   -1.343094
      6         11           0       -1.340215    1.771929    1.009113
      7         11           0       -1.535070   -2.364818    1.090242
 ---------------------------------------------------------------------

 SCF Done:  E(UB3LYP) =  -1136.12800695     A.U. after   23 cycles

 The electronic state is 2-A.
 Alpha  occ. eigenvalues --  -38.44499 -38.44167 -38.44047 -38.43915 -38.43642
 Alpha  occ. eigenvalues --  -38.43446 -38.42960  -2.20281  -2.19967  -2.19948
 Alpha  occ. eigenvalues --   -2.19685  -2.19484  -2.19357  -2.18849  -1.13949
 Alpha  occ. eigenvalues --   -1.13932  -1.13895  -1.13660  -1.13641  -1.13624
 Alpha  occ. eigenvalues --   -1.13583  -1.13580  -1.13556  -1.13361  -1.13339
 Alpha  occ. eigenvalues --   -1.13320  -1.13181  -1.13138  -1.13104  -1.13072
 Alpha  occ. eigenvalues --   -1.13026  -1.12952  -1.12554  -1.12521  -1.12452
 Alpha  occ. eigenvalues --   -0.18171  -0.13027  -0.11473  -0.11323
 Alpha virt. eigenvalues --   -0.06189  -0.05039  -0.04659  -0.03048  -0.02852
 Alpha virt. eigenvalues --   -0.02596  -0.01992  -0.01061  -0.00956  -0.00101
 Alpha virt. eigenvalues --    0.00166   0.00236   0.00391   0.00629   0.00794

  Beta  occ. eigenvalues --  -38.44458 -38.44130 -38.43983 -38.43907 -38.43633
  Beta  occ. eigenvalues --  -38.43422 -38.42948  -2.20205  -2.19900  -2.19833
  Beta  occ. eigenvalues --   -2.19671  -2.19468  -2.19317  -2.18832  -1.13894
  Beta  occ. eigenvalues --   -1.13877  -1.13848  -1.13606  -1.13578  -1.13566
  Beta  occ. eigenvalues --   -1.13530  -1.13491  -1.13470  -1.13347  -1.13328
  Beta  occ. eigenvalues --   -1.13312  -1.13165  -1.13126  -1.13090  -1.13031
  Beta  occ. eigenvalues --   -1.12994  -1.12923  -1.12536  -1.12484  -1.12445
  Beta  occ. eigenvalues --   -0.17451  -0.12708  -0.11237
  Beta virt. eigenvalues --   -0.07618  -0.05869  -0.04875  -0.04282  -0.02846
  Beta virt. eigenvalues --   -0.02288  -0.01909  -0.01678  -0.01008  -0.00560
  Beta virt. eigenvalues --    0.00005   0.00240   0.00280   0.00454   0.00726

 Mulliken charges and spin densities:
               1          2
     1  Na   0.091317   0.048166
     2  Na  -0.580672   0.274065
     3  Na  -0.003475   0.013400
     4  Na   0.297309   0.325453
     5  Na   0.390824   0.044146
     6  Na  -0.001311   0.129987
     7  Na  -0.193993   0.164783
 Sum of Mulliken charges =  -0.00000   1.00000

 Dipole moment (field-independent basis, Debye):
    X=             -0.1354    Y=              0.0349    Z=              0.0891  Tot=              0.1658
 Quadrupole moment (field-independent basis, Debye-Ang):
   XX=            -54.5094   YY=            -70.7642   ZZ=            -67.6368
   XY=              1.4219   XZ=              1.1588   YZ=             -3.8660

 Normal termination of Gaussian 16 at Tue Dec  5 18:36:21 2023.
