 Gaussian 16, Revision B.01,
 Gaussian 16:  ES64L-G16RevB.01 20-Dec-2017

 -------------------------
 #P B3LYP/6-311+g(d) force
 -------------------------

 -----
 DPGEN
 -----
 Symbolic Z-matrix:
 Charge =  0 Multiplicity = 2

                         Standard orientation:
 ---------------------------------------------------------------------
 Center     Atomic      Atomic             Coordinates (Angstroms)
 Number     Number       Type             X           Y           Z
 ---------------------------------------------------------------------
      1         11           0        0.178833   -2.160749    0.445127
      2         11           0       -2.932646   -3.324390   -0.307443
      3         11           0       -2.877339    0.190147   -0.589766
      4         11           0       -2.613582    3.778925   -0.287981
      5         11           0       -0.383061    1.431201    1.141957
      6         11           0        3.033031   -0.442760    0.290782
      7         11           0        5.594764    0.527626   -0.692675
 ---------------------------------------------------------------------

 SCF Done:  E(UB3LYP) =  -1136.12368321     A.U. after   19 cycles

 The electronic state is 2-A.
 Alpha  occ. eigenvalues --  -38.44705 -38.44555 -38.44546 -38.44002 -38.43924
 Alpha  occ. eigenvalues --  -38.43672 -38.42931  -2.20540  -2.20383  -2.20338
 Alpha  occ. eigenvalues --   -2.19855  -2.19778  -2.19487  -2.18810  -1.14269
 Alpha  occ. eigenvalues --   -1.14224  -1.14127  -1.14084  -1.14080  -1.14010
 Alpha  occ. eigenvalues --   -1.14006  -1.13964  -1.13930  -1.13561  -1.13465
 Alpha  occ. eigenvalues --   -1.13464  -1.13464  -1.13448  -1.13404  -1.13144
 Alpha  occ. eigenvalues --   -1.13142  -1.13111  -1.12509  -1.12467  -1.12456
 Alpha  occ. eigenvalues --   -0.17007  -0.13897  -0.12804  -0.11004
 Alpha virt. eigenvalues --   -0.06209  -0.05411  -0.04293  -0.03938  -0.02635
 Alpha virt. eigenvalues --   -0.02161  -0.01948  -0.01580  -0.01466  -0.00885
 Alpha virt. eigenvalues --   -0.00449   0.00096   0.00364   0.00487   0.00604

  Beta  occ. eigenvalues --  -38.44671 -38.44547 -38.44526 -38.43910 -38.43893
  Beta  occ. eigenvalues --  -38.43643 -38.42924  -2.20479  -2.20347  -2.20323
  Beta  occ. eigenvalues --   -2.19726  -2.19684  -2.19433  -2.18809  -1.14233
  Beta  occ. eigenvalues --   -1.14186  -1.14073  -1.14060  -1.14043  -1.13997
  Beta  occ. eigenvalues --   -1.13994  -1.13948  -1.13907  -1.13451  -1.13433
  Beta  occ. eigenvalues --   -1.13411  -1.13349  -1.13348  -1.13348  -1.13107
  Beta  occ. eigenvalues --   -1.13101  -1.13079  -1.12489  -1.12476  -1.12401
  Beta  occ. eigenvalues --   -0.16418  -0.13200  -0.12457
  Beta virt. eigenvalues --   -0.07605  -0.06028  -0.05074  -0.03876  -0.03642
  Beta virt. eigenvalues --   -0.02434  -0.02004  -0.01745  -0.01287  -0.01066
  Beta virt. eigenvalues --   -0.00559  -0.00128   0.00232   0.00515   0.00583

 Mulliken charges and spin densities:
               1          2
     1  Na  -0.164594  -0.196293
     2  Na   1.258251   0.180006
     3  Na  -0.681345   0.251123
     4  Na   0.865032   0.041428
     5  Na  -0.553752   0.092714
     6  Na  -0.554935   0.223433
     7  Na  -0.168659   0.407590
 Sum of Mulliken charges =  -0.00000   1.00000

 Dipole moment (field-independent basis, Debye):
    X=             -1.5027    Y=              1.0817    Z=             -0.0498  Tot=              1.8522
 Quadrupole moment (field-independent basis, Debye-Ang):
   XX=            -67.8078   YY=            -56.5241   ZZ=            -71.0101
   XY=             -1.4296   XZ=              0.2340   YZ=             -1.2445

 Normal termination of Gaussian 16 at Tue Nov 28 23:14:32 2023.
