 Gaussian 16, Revision B.01,
 Gaussian 16:  ES64L-G16RevB.01 20-Dec-2017

 -------------------------
 #P B3LYP/6-311+g(d) force
 -------------------------

 -----
 DPGEN
 -----
 Symbolic Z-matrix:
 Charge =  0 Multiplicity = 2

                         Standard orientation:
 ---------------------------------------------------------------------
 Center     Atomic      Atomic             Coordinates (Angstroms)
 Number     Number       Type             X           Y           Z
 ---------------------------------------------------------------------
      1         11           0        0.116891    0.003865    1.768528
      2         11           0        2.531477   -0.862200   -0.122182
      3         11           0       -2.521472   -0.960740    0.017498
      4         11           0       -0.255908    0.307024   -1.699441
      5         11           0       -1.579529    1.757895    0.152367
      6         11           0        0.139083   -2.097889   -0.094892
      7         11           0        1.569458    1.852044   -0.021878
 ---------------------------------------------------------------------

 SCF Done:  E(UB3LYP) =  -1136.08918749     A.U. after   19 cycles

 The electronic state is 2-A.
 Alpha  occ. eigenvalues --  -38.44046 -38.43966 -38.43911 -38.43791 -38.43572
 Alpha  occ. eigenvalues --  -38.43372 -38.43319  -2.20210  -2.20127  -2.20111
 Alpha  occ. eigenvalues --   -2.19845  -2.19699  -2.19548  -2.19408  -1.14121
 Alpha  occ. eigenvalues --   -1.14058  -1.13936  -1.13890  -1.13877  -1.13830
 Alpha  occ. eigenvalues --   -1.13814  -1.13736  -1.13674  -1.13605  -1.13558
 Alpha  occ. eigenvalues --   -1.13448  -1.13311  -1.13286  -1.13218  -1.13153
 Alpha  occ. eigenvalues --   -1.13131  -1.13073  -1.13070  -1.13040  -1.12986
 Alpha  occ. eigenvalues --   -0.21454  -0.14035  -0.12832  -0.12007
 Alpha virt. eigenvalues --   -0.05338  -0.04527  -0.03988  -0.03687  -0.03041
 Alpha virt. eigenvalues --   -0.02674  -0.01223  -0.00547  -0.00054   0.00345
 Alpha virt. eigenvalues --    0.00679   0.00703   0.00976   0.01114   0.01132

  Beta  occ. eigenvalues --  -38.44038 -38.43879 -38.43817 -38.43783 -38.43557
  Beta  occ. eigenvalues --  -38.43354 -38.43307  -2.20103  -2.20052  -2.19956
  Beta  occ. eigenvalues --   -2.19835  -2.19677  -2.19523  -2.19392  -1.14050
  Beta  occ. eigenvalues --   -1.14024  -1.13881  -1.13820  -1.13770  -1.13740
  Beta  occ. eigenvalues --   -1.13718  -1.13667  -1.13611  -1.13582  -1.13529
  Beta  occ. eigenvalues --   -1.13396  -1.13279  -1.13213  -1.13211  -1.13135
  Beta  occ. eigenvalues --   -1.13066  -1.13062  -1.13046  -1.12983  -1.12974
  Beta  occ. eigenvalues --   -0.20632  -0.13673  -0.12477
  Beta virt. eigenvalues --   -0.07826  -0.05358  -0.04514  -0.03963  -0.02729
  Beta virt. eigenvalues --   -0.02136  -0.01586  -0.01143  -0.00509   0.00088
  Beta virt. eigenvalues --    0.00375   0.00643   0.00679   0.01012   0.01118

 Mulliken charges and spin densities:
               1          2
     1  Na  -0.382084   0.459774
     2  Na  -0.111040  -0.043505
     3  Na   0.040007  -0.029593
     4  Na  -0.351137   0.430969
     5  Na   0.237987   0.036775
     6  Na   0.330299   0.127901
     7  Na   0.235969   0.017680
 Sum of Mulliken charges =  -0.00000   1.00000

 Dipole moment (field-independent basis, Debye):
    X=             -0.0112    Y=              0.0691    Z=              0.0569  Tot=              0.0902
 Quadrupole moment (field-independent basis, Debye-Ang):
   XX=            -57.9907   YY=            -69.4184   ZZ=            -69.7364
   XY=              0.5644   XZ=             -0.7137   YZ=              0.5322

 Normal termination of Gaussian 16 at Fri Dec  8 17:41:18 2023.
