 Gaussian 16, Revision B.01,
 Gaussian 16:  ES64L-G16RevB.01 20-Dec-2017

 -------------------------
 #P B3LYP/6-311+g(d) force
 -------------------------

 -----
 DPGEN
 -----
 Symbolic Z-matrix:
 Charge =  0 Multiplicity = 2

                         Standard orientation:
 ---------------------------------------------------------------------
 Center     Atomic      Atomic             Coordinates (Angstroms)
 Number     Number       Type             X           Y           Z
 ---------------------------------------------------------------------
      1         11           0       -0.827656    3.744259   -0.304268
      2         11           0        2.738494    2.432868    0.060037
      3         11           0        4.617844   -0.092297    0.381361
      4         11           0       -1.171846   -2.936727   -0.612261
      5         11           0       -4.259457   -2.037994    0.596187
      6         11           0       -3.523354    2.112215    0.010365
      7         11           0        2.425976   -3.222324   -0.131422
 ---------------------------------------------------------------------

 SCF Done:  E(UB3LYP) =  -1136.10742748     A.U. after   22 cycles

 The electronic state is 2-A.
 Alpha  occ. eigenvalues --  -38.45388 -38.44836 -38.44746 -38.44715 -38.44486
 Alpha  occ. eigenvalues --  -38.44153 -38.43997  -2.21156  -2.20626  -2.20534
 Alpha  occ. eigenvalues --   -2.20467  -2.20267  -2.19943  -2.19794  -1.14829
 Alpha  occ. eigenvalues --   -1.14826  -1.14787  -1.14331  -1.14291  -1.14276
 Alpha  occ. eigenvalues --   -1.14199  -1.14175  -1.14159  -1.14153  -1.14152
 Alpha  occ. eigenvalues --   -1.14104  -1.13923  -1.13909  -1.13883  -1.13593
 Alpha  occ. eigenvalues --   -1.13581  -1.13571  -1.13460  -1.13454  -1.13439
 Alpha  occ. eigenvalues --   -0.15367  -0.13860  -0.13528  -0.11110
 Alpha virt. eigenvalues --   -0.07656  -0.04966  -0.04352  -0.03575  -0.03530
 Alpha virt. eigenvalues --   -0.02450  -0.02202  -0.02067  -0.01458  -0.01068
 Alpha virt. eigenvalues --   -0.00478  -0.00232   0.00095   0.00281   0.00455

  Beta  occ. eigenvalues --  -38.45367 -38.44799 -38.44738 -38.44714 -38.44407
  Beta  occ. eigenvalues --  -38.44085 -38.43981  -2.21121  -2.20561  -2.20523
  Beta  occ. eigenvalues --   -2.20472  -2.20120  -2.19817  -2.19768  -1.14806
  Beta  occ. eigenvalues --   -1.14803  -1.14745  -1.14289  -1.14249  -1.14229
  Beta  occ. eigenvalues --   -1.14194  -1.14169  -1.14168  -1.14163  -1.14114
  Beta  occ. eigenvalues --   -1.14061  -1.13824  -1.13811  -1.13783  -1.13507
  Beta  occ. eigenvalues --   -1.13496  -1.13489  -1.13439  -1.13437  -1.13414
  Beta  occ. eigenvalues --   -0.14854  -0.13138  -0.12742
  Beta virt. eigenvalues --   -0.07981  -0.07795  -0.04403  -0.03998  -0.03399
  Beta virt. eigenvalues --   -0.03201  -0.02225  -0.02021  -0.01851  -0.01273
  Beta virt. eigenvalues --   -0.00654  -0.00299   0.00079   0.00261   0.00304

 Mulliken charges and spin densities:
               1          2
     1  Na   0.420990   0.094796
     2  Na  -0.146020   0.205383
     3  Na   0.372440  -0.111704
     4  Na  -0.617691  -0.022578
     5  Na   0.409462   0.315929
     6  Na  -0.438665   0.146646
     7  Na  -0.000516   0.371528
 Sum of Mulliken charges =  -0.00000   1.00000

 Dipole moment (field-independent basis, Debye):
    X=              0.1430    Y=              0.3421    Z=              0.1266  Tot=              0.3918
 Quadrupole moment (field-independent basis, Debye-Ang):
   XX=            -55.2370   YY=            -70.0297   ZZ=            -73.8343
   XY=             -3.2912   XZ=             -0.6498   YZ=             -0.6500

 Normal termination of Gaussian 16 at Sun Dec  3 21:01:09 2023.
