 Gaussian 16, Revision B.01,
 Gaussian 16:  ES64L-G16RevB.01 20-Dec-2017

 -------------------------
 #P B3LYP/6-311+g(d) force
 -------------------------

 -----
 DPGEN
 -----
 Symbolic Z-matrix:
 Charge =  0 Multiplicity = 2

                         Standard orientation:
 ---------------------------------------------------------------------
 Center     Atomic      Atomic             Coordinates (Angstroms)
 Number     Number       Type             X           Y           Z
 ---------------------------------------------------------------------
      1         11           0        3.539408    0.823711    0.444761
      2         11           0       -2.643166   -2.204139    0.206738
      3         11           0        2.752238   -2.073107   -0.608398
      4         11           0       -0.525012   -0.077906   -1.671913
      5         11           0       -3.057867    0.958655    0.075968
      6         11           0       -0.054475    2.687569   -0.427066
      7         11           0       -0.011127   -0.114783    1.979911
 ---------------------------------------------------------------------

 SCF Done:  E(UB3LYP) =  -1136.12296983     A.U. after   22 cycles

 The electronic state is 2-A.
 Alpha  occ. eigenvalues --  -38.45108 -38.44764 -38.44244 -38.44167 -38.43707
 Alpha  occ. eigenvalues --  -38.43414 -38.42361  -2.20892  -2.20652  -2.20081
 Alpha  occ. eigenvalues --   -2.19963  -2.19652  -2.19249  -2.18236  -1.14569
 Alpha  occ. eigenvalues --   -1.14558  -1.14527  -1.14348  -1.14316  -1.14275
 Alpha  occ. eigenvalues --   -1.13763  -1.13718  -1.13686  -1.13625  -1.13617
 Alpha  occ. eigenvalues --   -1.13609  -1.13339  -1.13290  -1.13281  -1.12925
 Alpha  occ. eigenvalues --   -1.12905  -1.12896  -1.11947  -1.11885  -1.11861
 Alpha  occ. eigenvalues --   -0.18201  -0.13813  -0.11478  -0.10637
 Alpha virt. eigenvalues --   -0.06648  -0.05734  -0.04130  -0.03431  -0.02533
 Alpha virt. eigenvalues --   -0.02512  -0.02288  -0.01296  -0.00694  -0.00318
 Alpha virt. eigenvalues --   -0.00108   0.00264   0.00500   0.00601   0.00722

  Beta  occ. eigenvalues --  -38.45108 -38.44759 -38.44158 -38.44153 -38.43641
  Beta  occ. eigenvalues --  -38.43415 -38.42356  -2.20893  -2.20646  -2.19938
  Beta  occ. eigenvalues --   -2.19922  -2.19530  -2.19254  -2.18231  -1.14569
  Beta  occ. eigenvalues --   -1.14552  -1.14527  -1.14339  -1.14295  -1.14272
  Beta  occ. eigenvalues --   -1.13654  -1.13610  -1.13609  -1.13592  -1.13590
  Beta  occ. eigenvalues --   -1.13569  -1.13256  -1.13202  -1.13190  -1.12932
  Beta  occ. eigenvalues --   -1.12906  -1.12883  -1.11938  -1.11875  -1.11845
  Beta  occ. eigenvalues --   -0.17498  -0.13668  -0.11246
  Beta virt. eigenvalues --   -0.06860  -0.06454  -0.05583  -0.03966  -0.02929
  Beta virt. eigenvalues --   -0.02227  -0.01824  -0.01575  -0.01102  -0.00720
  Beta virt. eigenvalues --   -0.00268   0.00046   0.00291   0.00673   0.00728

 Mulliken charges and spin densities:
               1          2
     1  Na   0.112651   0.004751
     2  Na  -0.167488  -0.035111
     3  Na  -0.106013   0.044134
     4  Na   0.244853   0.350713
     5  Na   0.450220   0.086323
     6  Na  -0.292037   0.001492
     7  Na  -0.242186   0.547698
 Sum of Mulliken charges =  -0.00000   1.00000

 Dipole moment (field-independent basis, Debye):
    X=              0.2896    Y=              0.1643    Z=              0.3089  Tot=              0.4542
 Quadrupole moment (field-independent basis, Debye-Ang):
   XX=            -52.1867   YY=            -67.6688   ZZ=            -75.0791
   XY=              0.7238   XZ=              0.0128   YZ=              1.6529

 Normal termination of Gaussian 16 at Thu Dec  7 05:08:19 2023.
