 Gaussian 16, Revision B.01,
 Gaussian 16:  ES64L-G16RevB.01 20-Dec-2017

 -------------------------
 #P B3LYP/6-311+g(d) force
 -------------------------

 -----
 DPGEN
 -----
 Symbolic Z-matrix:
 Charge =  0 Multiplicity = 2

                         Standard orientation:
 ---------------------------------------------------------------------
 Center     Atomic      Atomic             Coordinates (Angstroms)
 Number     Number       Type             X           Y           Z
 ---------------------------------------------------------------------
      1         11           0        0.044758   -0.251749   -1.752197
      2         11           0        3.056842   -0.974413   -0.038625
      3         11           0       -0.032739    0.293617    1.888506
      4         11           0        0.025931   -2.493794    0.263098
      5         11           0       -3.104516   -0.851511   -0.135584
      6         11           0       -1.751771    2.025114   -0.064687
      7         11           0        1.761494    2.252735   -0.160510
 ---------------------------------------------------------------------

 SCF Done:  E(UB3LYP) =  -1136.13573843     A.U. after   19 cycles

 The electronic state is 2-A.
 Alpha  occ. eigenvalues --  -38.44187 -38.44119 -38.43385 -38.43366 -38.43215
 Alpha  occ. eigenvalues --  -38.43203 -38.42926  -2.20024  -2.19970  -2.19369
 Alpha  occ. eigenvalues --   -2.19364  -2.19148  -2.19080  -2.18863  -1.13693
 Alpha  occ. eigenvalues --   -1.13679  -1.13675  -1.13656  -1.13627  -1.13610
 Alpha  occ. eigenvalues --   -1.13105  -1.13070  -1.13031  -1.13021  -1.12980
 Alpha  occ. eigenvalues --   -1.12967  -1.12812  -1.12804  -1.12775  -1.12747
 Alpha  occ. eigenvalues --   -1.12744  -1.12701  -1.12556  -1.12530  -1.12452
 Alpha  occ. eigenvalues --   -0.19273  -0.13360  -0.12333  -0.10941
 Alpha virt. eigenvalues --   -0.05907  -0.05000  -0.04094  -0.03287  -0.02855
 Alpha virt. eigenvalues --   -0.02531  -0.01809  -0.00967  -0.00062  -0.00011
 Alpha virt. eigenvalues --    0.00018   0.00348   0.00799   0.00935   0.00952

  Beta  occ. eigenvalues --  -38.44185 -38.44116 -38.43295 -38.43293 -38.43205
  Beta  occ. eigenvalues --  -38.43197 -38.42913  -2.20024  -2.19968  -2.19234
  Beta  occ. eigenvalues --   -2.19201  -2.19136  -2.19073  -2.18844  -1.13683
  Beta  occ. eigenvalues --   -1.13680  -1.13668  -1.13658  -1.13613  -1.13602
  Beta  occ. eigenvalues --   -1.13017  -1.12980  -1.12932  -1.12913  -1.12877
  Beta  occ. eigenvalues --   -1.12864  -1.12789  -1.12773  -1.12746  -1.12738
  Beta  occ. eigenvalues --   -1.12714  -1.12697  -1.12542  -1.12474  -1.12446
  Beta  occ. eigenvalues --   -0.18512  -0.13116  -0.12059
  Beta virt. eigenvalues --   -0.06972  -0.05867  -0.05011  -0.04091  -0.02487
  Beta virt. eigenvalues --   -0.02031  -0.01719  -0.01448  -0.00928  -0.00076
  Beta virt. eigenvalues --   -0.00041   0.00111   0.00367   0.00850   0.00918

 Mulliken charges and spin densities:
               1          2
     1  Na  -0.608413   0.670625
     2  Na   0.110776  -0.092556
     3  Na  -0.532841   0.678967
     4  Na   0.337986  -0.058345
     5  Na   0.143563  -0.051003
     6  Na   0.376756  -0.043210
     7  Na   0.172173  -0.104479
 Sum of Mulliken charges =  -0.00000   1.00000

 Dipole moment (field-independent basis, Debye):
    X=              0.1109    Y=             -0.1019    Z=              0.0048  Tot=              0.1507
 Quadrupole moment (field-independent basis, Debye-Ang):
   XX=            -52.5250   YY=            -67.2273   ZZ=            -73.3237
   XY=              0.4862   XZ=              0.2073   YZ=             -1.0048

 Normal termination of Gaussian 16 at Thu Dec  7 23:03:38 2023.
