 Gaussian 16, Revision B.01,
 Gaussian 16:  ES64L-G16RevB.01 20-Dec-2017

 -------------------------
 #P B3LYP/6-311+g(d) force
 -------------------------

 -----
 DPGEN
 -----
 Symbolic Z-matrix:
 Charge =  0 Multiplicity = 2

                         Standard orientation:
 ---------------------------------------------------------------------
 Center     Atomic      Atomic             Coordinates (Angstroms)
 Number     Number       Type             X           Y           Z
 ---------------------------------------------------------------------
      1         11           0        2.795028   -1.809060   -0.586281
      2         11           0        5.668174   -0.264217   -0.350664
      3         11           0        2.708830    1.859351   -0.170830
      4         11           0       -0.859970    1.623379   -0.167124
      5         11           0        0.028141   -1.119852    1.638652
      6         11           0       -4.074867    0.516084    0.739651
      7         11           0       -6.265335   -0.805685   -1.103403
 ---------------------------------------------------------------------

 SCF Done:  E(UB3LYP) =  -1136.11731565     A.U. after   20 cycles

 The electronic state is 2-A.
 Alpha  occ. eigenvalues --  -38.44716 -38.44605 -38.44441 -38.44235 -38.43948
 Alpha  occ. eigenvalues --  -38.43892 -38.43611  -2.20535  -2.20440  -2.20251
 Alpha  occ. eigenvalues --   -2.20039  -2.19777  -2.19662  -2.19429  -1.14223
 Alpha  occ. eigenvalues --   -1.14194  -1.14129  -1.14117  -1.14097  -1.14066
 Alpha  occ. eigenvalues --   -1.13917  -1.13899  -1.13876  -1.13703  -1.13700
 Alpha  occ. eigenvalues --   -1.13668  -1.13451  -1.13428  -1.13420  -1.13349
 Alpha  occ. eigenvalues --   -1.13325  -1.13324  -1.13108  -1.13091  -1.13033
 Alpha  occ. eigenvalues --   -0.16849  -0.13996  -0.11673  -0.11282
 Alpha virt. eigenvalues --   -0.06889  -0.05814  -0.03965  -0.03727  -0.02989
 Alpha virt. eigenvalues --   -0.02763  -0.01914  -0.01659  -0.01285  -0.00846
 Alpha virt. eigenvalues --   -0.00171  -0.00042   0.00190   0.00302   0.00443

  Beta  occ. eigenvalues --  -38.44647 -38.44558 -38.44386 -38.44227 -38.43927
  Beta  occ. eigenvalues --  -38.43909 -38.43606  -2.20406  -2.20355  -2.20151
  Beta  occ. eigenvalues --   -2.20025  -2.19740  -2.19694  -2.19418  -1.14138
  Beta  occ. eigenvalues --   -1.14109  -1.14060  -1.14045  -1.14022  -1.13986
  Beta  occ. eigenvalues --   -1.13849  -1.13832  -1.13797  -1.13692  -1.13682
  Beta  occ. eigenvalues --   -1.13659  -1.13429  -1.13399  -1.13383  -1.13367
  Beta  occ. eigenvalues --   -1.13347  -1.13346  -1.13097  -1.13083  -1.13039
  Beta  occ. eigenvalues --   -0.16101  -0.13951  -0.11590
  Beta virt. eigenvalues --   -0.07302  -0.06683  -0.05295  -0.03824  -0.03415
  Beta virt. eigenvalues --   -0.02602  -0.02171  -0.01773  -0.01532  -0.00805
  Beta virt. eigenvalues --   -0.00763  -0.00044   0.00099   0.00350   0.00469

 Mulliken charges and spin densities:
               1          2
     1  Na  -0.116461   0.241492
     2  Na   0.315384   0.003813
     3  Na  -0.114249   0.301732
     4  Na  -0.224781   0.199463
     5  Na  -0.175486   0.301198
     6  Na   0.169321   0.052152
     7  Na   0.146272  -0.099849
 Sum of Mulliken charges =  -0.00000   1.00000

 Dipole moment (field-independent basis, Debye):
    X=              1.5787    Y=             -0.3679    Z=             -0.0328  Tot=              1.6213
 Quadrupole moment (field-independent basis, Debye-Ang):
   XX=            -62.1399   YY=            -70.1953   ZZ=            -67.1212
   XY=              2.6624   XZ=              2.9695   YZ=              2.0922

 Normal termination of Gaussian 16 at Tue Nov 28 23:01:14 2023.
