 Gaussian 16, Revision B.01,
 Gaussian 16:  ES64L-G16RevB.01 20-Dec-2017

 -------------------------
 #P B3LYP/6-311+g(d) force
 -------------------------

 -----
 DPGEN
 -----
 Symbolic Z-matrix:
 Charge =  0 Multiplicity = 2

                         Standard orientation:
 ---------------------------------------------------------------------
 Center     Atomic      Atomic             Coordinates (Angstroms)
 Number     Number       Type             X           Y           Z
 ---------------------------------------------------------------------
      1         11           0        4.001287   -0.579251   -0.838818
      2         11           0       -0.544006   -0.957672   -0.059955
      3         11           0        2.812965   -1.646774    1.380434
      4         11           0        2.304597    2.225706   -0.189258
      5         11           0       -3.278183   -2.612743   -0.798732
      6         11           0       -1.296454    2.595785   -0.264885
      7         11           0       -4.000206    0.974950    0.771214
 ---------------------------------------------------------------------

 SCF Done:  E(UB3LYP) =  -1136.10965877     A.U. after   24 cycles

 The electronic state is 2-A.
 Alpha  occ. eigenvalues --  -38.45488 -38.45049 -38.44245 -38.44231 -38.44055
 Alpha  occ. eigenvalues --  -38.43743 -38.43112  -2.21386  -2.20926  -2.20069
 Alpha  occ. eigenvalues --   -2.20019  -2.19881  -2.19562  -2.18929  -1.15260
 Alpha  occ. eigenvalues --   -1.15015  -1.14997  -1.14553  -1.14542  -1.14520
 Alpha  occ. eigenvalues --   -1.13788  -1.13731  -1.13717  -1.13678  -1.13662
 Alpha  occ. eigenvalues --   -1.13619  -1.13537  -1.13532  -1.13482  -1.13242
 Alpha  occ. eigenvalues --   -1.13205  -1.13190  -1.12618  -1.12614  -1.12564
 Alpha  occ. eigenvalues --   -0.17123  -0.14747  -0.11918  -0.10214
 Alpha virt. eigenvalues --   -0.07408  -0.05328  -0.04754  -0.03352  -0.03148
 Alpha virt. eigenvalues --   -0.02406  -0.02290  -0.01273  -0.00916  -0.00568
 Alpha virt. eigenvalues --   -0.00349  -0.00104   0.00275   0.00460   0.00532

  Beta  occ. eigenvalues --  -38.45467 -38.45023 -38.44223 -38.44207 -38.43965
  Beta  occ. eigenvalues --  -38.43708 -38.43112  -2.21352  -2.20881  -2.20029
  Beta  occ. eigenvalues --   -2.19976  -2.19715  -2.19498  -2.18936  -1.15226
  Beta  occ. eigenvalues --   -1.14994  -1.14957  -1.14515  -1.14501  -1.14495
  Beta  occ. eigenvalues --   -1.13757  -1.13702  -1.13692  -1.13650  -1.13628
  Beta  occ. eigenvalues --   -1.13590  -1.13425  -1.13419  -1.13366  -1.13199
  Beta  occ. eigenvalues --   -1.13163  -1.13147  -1.12631  -1.12624  -1.12518
  Beta  occ. eigenvalues --   -0.16767  -0.14087  -0.11355
  Beta virt. eigenvalues --   -0.07386  -0.06821  -0.05157  -0.04382  -0.02981
  Beta virt. eigenvalues --   -0.02959  -0.02148  -0.01697  -0.01061  -0.00793
  Beta virt. eigenvalues --   -0.00331  -0.00044   0.00030   0.00415   0.00542

 Mulliken charges and spin densities:
               1          2
     1  Na   0.761656   0.168296
     2  Na  -1.837272   0.059834
     3  Na   0.219570   0.190356
     4  Na   0.038727   0.121854
     5  Na   0.575589   0.012637
     6  Na   0.150930   0.030532
     7  Na   0.090800   0.416491
 Sum of Mulliken charges =  -0.00000   1.00000

 Dipole moment (field-independent basis, Debye):
    X=              1.0806    Y=             -0.8674    Z=             -0.1660  Tot=              1.3956
 Quadrupole moment (field-independent basis, Debye-Ang):
   XX=            -56.7620   YY=            -76.3334   ZZ=            -66.5418
   XY=              7.4681   XZ=             -2.1600   YZ=             -0.3912

 Normal termination of Gaussian 16 at Tue Dec  5 10:02:57 2023.
