 Gaussian 16, Revision B.01,
 Gaussian 16:  ES64L-G16RevB.01 20-Dec-2017

 -------------------------
 #P B3LYP/6-311+g(d) force
 -------------------------

 -----
 DPGEN
 -----
 Symbolic Z-matrix:
 Charge =  0 Multiplicity = 2

                         Standard orientation:
 ---------------------------------------------------------------------
 Center     Atomic      Atomic             Coordinates (Angstroms)
 Number     Number       Type             X           Y           Z
 ---------------------------------------------------------------------
      1         11           0       -0.190186   -1.888910   -0.175029
      2         11           0       -0.054737    0.206137   -1.649629
      3         11           0       -2.545856   -0.603404   -0.064929
      4         11           0       -0.101244   -0.098762    1.697471
      5         11           0       -1.084697    1.889061    0.178871
      6         11           0        2.310014   -1.043919    0.085371
      7         11           0        1.666705    1.539796   -0.072129
 ---------------------------------------------------------------------

 SCF Done:  E(UB3LYP) =  -1136.04403840     A.U. after   23 cycles

 The electronic state is 2-A.
 Alpha  occ. eigenvalues --  -38.44772 -38.44565 -38.44303 -38.44226 -38.44068
 Alpha  occ. eigenvalues --  -38.43974 -38.43738  -2.21184  -2.20937  -2.20652
 Alpha  occ. eigenvalues --   -2.20385  -2.20196  -2.20193  -2.19972  -1.15244
 Alpha  occ. eigenvalues --   -1.15079  -1.14940  -1.14859  -1.14710  -1.14643
 Alpha  occ. eigenvalues --   -1.14498  -1.14311  -1.14157  -1.14070  -1.13976
 Alpha  occ. eigenvalues --   -1.13937  -1.13921  -1.13880  -1.13788  -1.13762
 Alpha  occ. eigenvalues --   -1.13684  -1.13643  -1.13564  -1.13556  -1.13413
 Alpha  occ. eigenvalues --   -0.22370  -0.14291  -0.13004  -0.12476
 Alpha virt. eigenvalues --   -0.05315  -0.04217  -0.04010  -0.03799  -0.03162
 Alpha virt. eigenvalues --   -0.02659  -0.01195  -0.00389  -0.00062   0.00316
 Alpha virt. eigenvalues --    0.00808   0.00927   0.01054   0.01194   0.01276

  Beta  occ. eigenvalues --  -38.44675 -38.44467 -38.44278 -38.44215 -38.44057
  Beta  occ. eigenvalues --  -38.43958 -38.43719  -2.21014  -2.20771  -2.20606
  Beta  occ. eigenvalues --   -2.20371  -2.20180  -2.20174  -2.19947  -1.15162
  Beta  occ. eigenvalues --   -1.14963  -1.14833  -1.14770  -1.14600  -1.14579
  Beta  occ. eigenvalues --   -1.14415  -1.14281  -1.14117  -1.13969  -1.13954
  Beta  occ. eigenvalues --   -1.13906  -1.13874  -1.13862  -1.13728  -1.13687
  Beta  occ. eigenvalues --   -1.13676  -1.13632  -1.13547  -1.13473  -1.13406
  Beta  occ. eigenvalues --   -0.21539  -0.13883  -0.12606
  Beta virt. eigenvalues --   -0.08193  -0.05364  -0.04192  -0.03942  -0.02787
  Beta virt. eigenvalues --   -0.02209  -0.01600  -0.01119  -0.00352   0.00077
  Beta virt. eigenvalues --    0.00343   0.00814   0.00918   0.01071   0.01207

 Mulliken charges and spin densities:
               1          2
     1  Na   0.280332   0.102638
     2  Na  -0.357649   0.435806
     3  Na  -0.045288  -0.091977
     4  Na  -0.283872   0.502301
     5  Na   0.226341   0.034180
     6  Na  -0.092388  -0.044627
     7  Na   0.272525   0.061680
 Sum of Mulliken charges =  -0.00000   1.00000

 Dipole moment (field-independent basis, Debye):
    X=             -0.0856    Y=              0.0800    Z=              0.1235  Tot=              0.1703
 Quadrupole moment (field-independent basis, Debye-Ang):
   XX=            -58.5219   YY=            -71.0261   ZZ=            -68.9993
   XY=             -0.1469   XZ=              0.1931   YZ=              0.3735

 Normal termination of Gaussian 16 at Fri Dec  8 18:25:20 2023.
