 Gaussian 16, Revision B.01,
 Gaussian 16:  ES64L-G16RevB.01 20-Dec-2017

 -------------------------
 #P B3LYP/6-311+g(d) force
 -------------------------

 -----
 DPGEN
 -----
 Symbolic Z-matrix:
 Charge =  0 Multiplicity = 2

                         Standard orientation:
 ---------------------------------------------------------------------
 Center     Atomic      Atomic             Coordinates (Angstroms)
 Number     Number       Type             X           Y           Z
 ---------------------------------------------------------------------
      1         11           0        1.189418   -2.647563   -0.648755
      2         11           0       -3.058179   -1.538900   -0.069859
      3         11           0       -4.135041    1.334990   -0.121408
      4         11           0        1.546996   -1.005363    2.094457
      5         11           0       -0.667750    0.837787   -0.233375
      6         11           0        2.037625    3.089470    0.179200
      7         11           0        3.086931   -0.070422   -1.200261
 ---------------------------------------------------------------------

 SCF Done:  E(UB3LYP) =  -1136.12098119     A.U. after   22 cycles

 The electronic state is 2-A.
 Alpha  occ. eigenvalues --  -38.45221 -38.45201 -38.44003 -38.43993 -38.43514
 Alpha  occ. eigenvalues --  -38.43113 -38.43027  -2.21051  -2.21027  -2.19871
 Alpha  occ. eigenvalues --   -2.19841  -2.19380  -2.18898  -2.18893  -1.14801
 Alpha  occ. eigenvalues --   -1.14728  -1.14710  -1.14674  -1.14671  -1.14584
 Alpha  occ. eigenvalues --   -1.13585  -1.13552  -1.13496  -1.13492  -1.13478
 Alpha  occ. eigenvalues --   -1.13461  -1.13060  -1.13039  -1.12986  -1.12568
 Alpha  occ. eigenvalues --   -1.12563  -1.12562  -1.12559  -1.12540  -1.12526
 Alpha  occ. eigenvalues --   -0.17503  -0.14501  -0.11579  -0.10011
 Alpha virt. eigenvalues --   -0.06707  -0.05933  -0.04472  -0.03336  -0.02765
 Alpha virt. eigenvalues --   -0.02318  -0.01942  -0.01588  -0.01072  -0.00565
 Alpha virt. eigenvalues --   -0.00277   0.00168   0.00389   0.00531   0.00672

  Beta  occ. eigenvalues --  -38.45220 -38.45196 -38.43992 -38.43922 -38.43442
  Beta  occ. eigenvalues --  -38.43111 -38.43010  -2.21050  -2.21018  -2.19852
  Beta  occ. eigenvalues --   -2.19710  -2.19249  -2.18896  -2.18865  -1.14799
  Beta  occ. eigenvalues --   -1.14729  -1.14701  -1.14669  -1.14662  -1.14581
  Beta  occ. eigenvalues --   -1.13557  -1.13533  -1.13473  -1.13405  -1.13394
  Beta  occ. eigenvalues --   -1.13371  -1.12968  -1.12953  -1.12882  -1.12568
  Beta  occ. eigenvalues --   -1.12549  -1.12546  -1.12543  -1.12540  -1.12471
  Beta  occ. eigenvalues --   -0.17003  -0.14138  -0.11428
  Beta virt. eigenvalues --   -0.06563  -0.06145  -0.05828  -0.04341  -0.03047
  Beta virt. eigenvalues --   -0.02509  -0.01775  -0.01614  -0.01244  -0.00810
  Beta virt. eigenvalues --   -0.00464   0.00127   0.00257   0.00543   0.00560

 Mulliken charges and spin densities:
               1          2
     1  Na   0.295913   0.194497
     2  Na   0.594231   0.015169
     3  Na   0.567292  -0.006880
     4  Na   0.092645   0.340782
     5  Na  -2.430981   0.115498
     6  Na   0.540447  -0.010149
     7  Na   0.340453   0.351083
 Sum of Mulliken charges =  -0.00000   1.00000

 Dipole moment (field-independent basis, Debye):
    X=             -2.5301    Y=              0.0874    Z=              0.6022  Tot=              2.6022
 Quadrupole moment (field-independent basis, Debye-Ang):
   XX=            -54.0991   YY=            -65.7671   ZZ=            -74.4560
   XY=             -0.0639   XZ=              3.5478   YZ=              0.8036

 Normal termination of Gaussian 16 at Tue Dec  5 14:16:07 2023.
