 Gaussian 16, Revision B.01,
 Gaussian 16:  ES64L-G16RevB.01 20-Dec-2017

 -------------------------
 #P B3LYP/6-311+g(d) force
 -------------------------

 -----
 DPGEN
 -----
 Symbolic Z-matrix:
 Charge =  0 Multiplicity = 2

                         Standard orientation:
 ---------------------------------------------------------------------
 Center     Atomic      Atomic             Coordinates (Angstroms)
 Number     Number       Type             X           Y           Z
 ---------------------------------------------------------------------
      1         11           0       -3.446389    0.142166    0.260346
      2         11           0        0.288167   -0.524187    2.003851
      3         11           0       -0.543997    0.048286   -1.754843
      4         11           0        2.904882   -1.756964   -0.500666
      5         11           0       -0.557085    3.108585   -0.142558
      6         11           0       -1.232120   -2.654229   -0.103147
      7         11           0        2.586541    1.636344    0.237016
 ---------------------------------------------------------------------

 SCF Done:  E(UB3LYP) =  -1136.13268138     A.U. after   20 cycles

 The electronic state is 2-A.
 Alpha  occ. eigenvalues --  -38.44918 -38.44173 -38.43832 -38.43731 -38.43652
 Alpha  occ. eigenvalues --  -38.43478 -38.43327  -2.20693  -2.19952  -2.19651
 Alpha  occ. eigenvalues --   -2.19584  -2.19512  -2.19379  -2.19126  -1.14368
 Alpha  occ. eigenvalues --   -1.14345  -1.14335  -1.13624  -1.13613  -1.13592
 Alpha  occ. eigenvalues --   -1.13334  -1.13318  -1.13302  -1.13285  -1.13275
 Alpha  occ. eigenvalues --   -1.13196  -1.13174  -1.13142  -1.13121  -1.13057
 Alpha  occ. eigenvalues --   -1.13020  -1.12995  -1.12802  -1.12786  -1.12766
 Alpha  occ. eigenvalues --   -0.17983  -0.13065  -0.12143  -0.10450
 Alpha virt. eigenvalues --   -0.06246  -0.05267  -0.04797  -0.03280  -0.02800
 Alpha virt. eigenvalues --   -0.02395  -0.01939  -0.01147  -0.00633  -0.00577
 Alpha virt. eigenvalues --   -0.00056   0.00332   0.00692   0.00776   0.00792

  Beta  occ. eigenvalues --  -38.44916 -38.44164 -38.43828 -38.43722 -38.43568
  Beta  occ. eigenvalues --  -38.43413 -38.43327  -2.20692  -2.19936  -2.19647
  Beta  occ. eigenvalues --   -2.19572  -2.19357  -2.19260  -2.19129  -1.14353
  Beta  occ. eigenvalues --   -1.14346  -1.14335  -1.13611  -1.13591  -1.13583
  Beta  occ. eigenvalues --   -1.13321  -1.13304  -1.13290  -1.13287  -1.13230
  Beta  occ. eigenvalues --   -1.13188  -1.13073  -1.13036  -1.13011  -1.12977
  Beta  occ. eigenvalues --   -1.12936  -1.12909  -1.12795  -1.12782  -1.12769
  Beta  occ. eigenvalues --   -0.17281  -0.12881  -0.11936
  Beta virt. eigenvalues --   -0.06650  -0.06155  -0.05227  -0.04677  -0.02573
  Beta virt. eigenvalues --   -0.02100  -0.01821  -0.01428  -0.01059  -0.00686
  Beta virt. eigenvalues --   -0.00595   0.00103   0.00365   0.00756   0.00808

 Mulliken charges and spin densities:
               1          2
     1  Na   0.033600  -0.078822
     2  Na  -0.201438   0.627456
     3  Na  -0.001447   0.648927
     4  Na  -0.015759  -0.008469
     5  Na  -0.086782  -0.125382
     6  Na   0.244606  -0.034154
     7  Na   0.027220  -0.029555
 Sum of Mulliken charges =  -0.00000   1.00000

 Dipole moment (field-independent basis, Debye):
    X=             -0.4551    Y=             -0.2289    Z=              0.1035  Tot=              0.5199
 Quadrupole moment (field-independent basis, Debye-Ang):
   XX=            -53.6065   YY=            -64.0525   ZZ=            -75.5131
   XY=             -0.9563   XZ=             -2.0030   YZ=              1.6064

 Normal termination of Gaussian 16 at Tue Dec  5 15:00:45 2023.
