 Gaussian 16, Revision B.01,
 Gaussian 16:  ES64L-G16RevB.01 20-Dec-2017

 -------------------------
 #P B3LYP/6-311+g(d) force
 -------------------------

 -----
 DPGEN
 -----
 Symbolic Z-matrix:
 Charge =  0 Multiplicity = 2

                         Standard orientation:
 ---------------------------------------------------------------------
 Center     Atomic      Atomic             Coordinates (Angstroms)
 Number     Number       Type             X           Y           Z
 ---------------------------------------------------------------------
      1         11           0       -0.256962   -0.092231    1.553040
      2         11           0        2.803273    1.176665    1.366073
      3         11           0        3.220046   -1.688196   -0.538982
      4         11           0       -3.505892   -1.258391    0.780060
      5         11           0        0.933737    2.048540   -1.266973
      6         11           0       -2.923086    1.606827   -0.644686
      7         11           0       -0.271115   -1.793213   -1.248532
 ---------------------------------------------------------------------

 SCF Done:  E(UB3LYP) =  -1136.12116058     A.U. after   26 cycles

 The electronic state is 2-A.
 Alpha  occ. eigenvalues --  -38.44713 -38.44581 -38.44528 -38.44474 -38.43811
 Alpha  occ. eigenvalues --  -38.43526 -38.43371  -2.20510  -2.20416  -2.20412
 Alpha  occ. eigenvalues --   -2.20254  -2.19682  -2.19358  -2.19191  -1.14198
 Alpha  occ. eigenvalues --   -1.14183  -1.14158  -1.14133  -1.14085  -1.14053
 Alpha  occ. eigenvalues --   -1.14047  -1.14046  -1.14016  -1.13928  -1.13919
 Alpha  occ. eigenvalues --   -1.13893  -1.13354  -1.13326  -1.13309  -1.13073
 Alpha  occ. eigenvalues --   -1.13012  -1.12954  -1.12868  -1.12842  -1.12825
 Alpha  occ. eigenvalues --   -0.18025  -0.14168  -0.11186  -0.10790
 Alpha virt. eigenvalues --   -0.07067  -0.05599  -0.04614  -0.03210  -0.02842
 Alpha virt. eigenvalues --   -0.02590  -0.02012  -0.01498  -0.00760  -0.00390
 Alpha virt. eigenvalues --    0.00073   0.00198   0.00318   0.00452   0.00605

  Beta  occ. eigenvalues --  -38.44699 -38.44560 -38.44485 -38.44472 -38.43773
  Beta  occ. eigenvalues --  -38.43492 -38.43342  -2.20488  -2.20373  -2.20339
  Beta  occ. eigenvalues --   -2.20252  -2.19612  -2.19297  -2.19139  -1.14180
  Beta  occ. eigenvalues --   -1.14165  -1.14133  -1.14068  -1.14044  -1.14023
  Beta  occ. eigenvalues --   -1.14016  -1.14004  -1.13967  -1.13924  -1.13910
  Beta  occ. eigenvalues --   -1.13890  -1.13297  -1.13281  -1.13266  -1.13035
  Beta  occ. eigenvalues --   -1.12957  -1.12909  -1.12833  -1.12798  -1.12783
  Beta  occ. eigenvalues --   -0.17408  -0.13930  -0.10848
  Beta virt. eigenvalues --   -0.07169  -0.06967  -0.05465  -0.03941  -0.02973
  Beta virt. eigenvalues --   -0.02586  -0.02154  -0.01392  -0.01264  -0.00418
  Beta virt. eigenvalues --   -0.00322   0.00131   0.00228   0.00446   0.00556

 Mulliken charges and spin densities:
               1          2
     1  Na  -1.337329   0.194349
     2  Na   1.111779   0.195697
     3  Na  -0.191907  -0.015650
     4  Na   1.179824   0.087848
     5  Na  -0.406550   0.164787
     6  Na  -0.118003   0.102775
     7  Na  -0.237813   0.270194
 Sum of Mulliken charges =  -0.00000   1.00000

 Dipole moment (field-independent basis, Debye):
    X=             -0.6203    Y=             -0.1340    Z=              0.0254  Tot=              0.6352
 Quadrupole moment (field-independent basis, Debye-Ang):
   XX=            -45.9734   YY=            -76.3260   ZZ=            -71.8402
   XY=              0.9184   XZ=              0.1143   YZ=             -1.6027

 Normal termination of Gaussian 16 at Thu Dec  7 04:01:52 2023.
