 Gaussian 16, Revision B.01,
 Gaussian 16:  ES64L-G16RevB.01 20-Dec-2017

 -------------------------
 #P B3LYP/6-311+g(d) force
 -------------------------

 -----
 DPGEN
 -----
 Symbolic Z-matrix:
 Charge =  0 Multiplicity = 2

                         Standard orientation:
 ---------------------------------------------------------------------
 Center     Atomic      Atomic             Coordinates (Angstroms)
 Number     Number       Type             X           Y           Z
 ---------------------------------------------------------------------
      1         11           0       -3.244492   -0.412696   -0.183628
      2         11           0       -0.492638   -0.015425    1.974660
      3         11           0        2.485625    2.205736    0.050226
      4         11           0       -1.440966    2.442131   -0.134090
      5         11           0        2.921280   -1.586662    0.165299
      6         11           0       -0.515374   -2.593014   -0.140465
      7         11           0        0.286564   -0.040070   -1.732002
 ---------------------------------------------------------------------

 SCF Done:  E(UB3LYP) =  -1136.13529557     A.U. after   20 cycles

 The electronic state is 2-A.
 Alpha  occ. eigenvalues --  -38.44334 -38.44280 -38.44039 -38.43543 -38.43413
 Alpha  occ. eigenvalues --  -38.43304 -38.42992  -2.20122  -2.20120  -2.19810
 Alpha  occ. eigenvalues --   -2.19449  -2.19272  -2.19251  -2.18897  -1.13797
 Alpha  occ. eigenvalues --   -1.13785  -1.13782  -1.13775  -1.13773  -1.13764
 Alpha  occ. eigenvalues --   -1.13490  -1.13466  -1.13451  -1.13129  -1.13098
 Alpha  occ. eigenvalues --   -1.13058  -1.12974  -1.12962  -1.12940  -1.12897
 Alpha  occ. eigenvalues --   -1.12881  -1.12855  -1.12587  -1.12563  -1.12500
 Alpha  occ. eigenvalues --   -0.18544  -0.13093  -0.12207  -0.10597
 Alpha virt. eigenvalues --   -0.05918  -0.05614  -0.04285  -0.03216  -0.02755
 Alpha virt. eigenvalues --   -0.02459  -0.01822  -0.01263  -0.00450  -0.00276
 Alpha virt. eigenvalues --   -0.00038   0.00329   0.00713   0.00824   0.00894

  Beta  occ. eigenvalues --  -38.44334 -38.44276 -38.44041 -38.43455 -38.43405
  Beta  occ. eigenvalues --  -38.43233 -38.42980  -2.20123  -2.20116  -2.19815
  Beta  occ. eigenvalues --   -2.19287  -2.19261  -2.19123  -2.18881  -1.13784
  Beta  occ. eigenvalues --   -1.13782  -1.13777  -1.13774  -1.13769  -1.13751
  Beta  occ. eigenvalues --   -1.13480  -1.13470  -1.13458  -1.13028  -1.12992
  Beta  occ. eigenvalues --   -1.12946  -1.12940  -1.12898  -1.12889  -1.12880
  Beta  occ. eigenvalues --   -1.12801  -1.12761  -1.12574  -1.12512  -1.12494
  Beta  occ. eigenvalues --   -0.17795  -0.12910  -0.11964
  Beta virt. eigenvalues --   -0.06688  -0.05822  -0.05630  -0.04266  -0.02480
  Beta virt. eigenvalues --   -0.01984  -0.01729  -0.01411  -0.01203  -0.00505
  Beta virt. eigenvalues --   -0.00309   0.00116   0.00354   0.00779   0.00813

 Mulliken charges and spin densities:
               1          2
     1  Na   0.341650   0.014636
     2  Na  -0.442364   0.793864
     3  Na  -0.077530  -0.135629
     4  Na   0.070099  -0.123769
     5  Na  -0.019115  -0.089640
     6  Na   0.238905  -0.061505
     7  Na  -0.111645   0.602042
 Sum of Mulliken charges =  -0.00000   1.00000

 Dipole moment (field-independent basis, Debye):
    X=              0.1664    Y=              0.0202    Z=              0.1088  Tot=              0.1998
 Quadrupole moment (field-independent basis, Debye-Ang):
   XX=            -52.2529   YY=            -65.2602   ZZ=            -74.9856
   XY=             -0.0470   XZ=              1.9113   YZ=             -0.0940

 Normal termination of Gaussian 16 at Thu Dec  7 06:39:24 2023.
