 Gaussian 16, Revision B.01,
 Gaussian 16:  ES64L-G16RevB.01 20-Dec-2017

 -------------------------
 #P B3LYP/6-311+g(d) force
 -------------------------

 -----
 DPGEN
 -----
 Symbolic Z-matrix:
 Charge =  0 Multiplicity = 2

                         Standard orientation:
 ---------------------------------------------------------------------
 Center     Atomic      Atomic             Coordinates (Angstroms)
 Number     Number       Type             X           Y           Z
 ---------------------------------------------------------------------
      1         11           0       -0.729571   -0.699001   -1.161476
      2         11           0        2.213733   -1.897141    0.442390
      3         11           0       -4.348360   -0.720922   -0.981335
      4         11           0       -0.877371   -0.785864    1.820196
      5         11           0       -2.286073    2.225281    0.285736
      6         11           0        1.646561    1.197103    0.755942
      7         11           0        4.381082    0.680545   -1.161452
 ---------------------------------------------------------------------

 SCF Done:  E(UB3LYP) =  -1136.11816244     A.U. after   27 cycles

 The electronic state is 2-A.
 Alpha  occ. eigenvalues --  -38.45001 -38.44531 -38.44318 -38.44199 -38.43860
 Alpha  occ. eigenvalues --  -38.43241 -38.42548  -2.20920  -2.20345  -2.20105
 Alpha  occ. eigenvalues --   -2.20081  -2.19790  -2.19173  -2.18349  -1.14639
 Alpha  occ. eigenvalues --   -1.14605  -1.14502  -1.14030  -1.14000  -1.13950
 Alpha  occ. eigenvalues --   -1.13801  -1.13774  -1.13769  -1.13760  -1.13713
 Alpha  occ. eigenvalues --   -1.13646  -1.13496  -1.13454  -1.13384  -1.12883
 Alpha  occ. eigenvalues --   -1.12839  -1.12769  -1.12019  -1.12014  -1.11990
 Alpha  occ. eigenvalues --   -0.18421  -0.14070  -0.11481  -0.10685
 Alpha virt. eigenvalues --   -0.06608  -0.05544  -0.04882  -0.03042  -0.02803
 Alpha virt. eigenvalues --   -0.02251  -0.02000  -0.01494  -0.01091  -0.00448
 Alpha virt. eigenvalues --   -0.00132   0.00124   0.00390   0.00431   0.00608

  Beta  occ. eigenvalues --  -38.44971 -38.44484 -38.44269 -38.44177 -38.43830
  Beta  occ. eigenvalues --  -38.43234 -38.42550  -2.20868  -2.20260  -2.20041
  Beta  occ. eigenvalues --   -2.20014  -2.19735  -2.19166  -2.18352  -1.14609
  Beta  occ. eigenvalues --   -1.14540  -1.14464  -1.13975  -1.13942  -1.13873
  Beta  occ. eigenvalues --   -1.13776  -1.13742  -1.13706  -1.13691  -1.13658
  Beta  occ. eigenvalues --   -1.13616  -1.13462  -1.13416  -1.13325  -1.12881
  Beta  occ. eigenvalues --   -1.12813  -1.12753  -1.12019  -1.12017  -1.11992
  Beta  occ. eigenvalues --   -0.17729  -0.13776  -0.10551
  Beta virt. eigenvalues --   -0.07628  -0.06381  -0.05033  -0.04633  -0.02640
  Beta virt. eigenvalues --   -0.02535  -0.01795  -0.01658  -0.01102  -0.00910
  Beta virt. eigenvalues --   -0.00241  -0.00083   0.00268   0.00434   0.00521

 Mulliken charges and spin densities:
               1          2
     1  Na  -0.630241   0.261594
     2  Na   0.676929   0.116648
     3  Na   0.296515   0.203606
     4  Na   0.177400  -0.034340
     5  Na  -0.134436   0.204178
     6  Na  -0.509161   0.256825
     7  Na   0.122995  -0.008510
 Sum of Mulliken charges =  -0.00000   1.00000

 Dipole moment (field-independent basis, Debye):
    X=             -1.2978    Y=             -0.8059    Z=              0.6833  Tot=              1.6735
 Quadrupole moment (field-independent basis, Debye-Ang):
   XX=            -66.6267   YY=            -67.7752   ZZ=            -68.2395
   XY=             -3.9223   XZ=             -1.9061   YZ=              1.9161

 Normal termination of Gaussian 16 at Thu Dec  7 13:58:00 2023.
