 Gaussian 16, Revision B.01,
 Gaussian 16:  ES64L-G16RevB.01 20-Dec-2017

 -------------------------
 #P B3LYP/6-311+g(d) force
 -------------------------

 -----
 DPGEN
 -----
 Symbolic Z-matrix:
 Charge =  0 Multiplicity = 2

                         Standard orientation:
 ---------------------------------------------------------------------
 Center     Atomic      Atomic             Coordinates (Angstroms)
 Number     Number       Type             X           Y           Z
 ---------------------------------------------------------------------
      1         11           0        1.202136   -2.856431   -0.431175
      2         11           0       -1.510662   -0.413254    3.190972
      3         11           0        3.873355   -0.361720   -0.109118
      4         11           0        2.033728    2.708401   -0.580661
      5         11           0       -0.123069    0.003721    0.309298
      6         11           0       -2.413912    2.342822   -0.469405
      7         11           0       -3.061575   -1.423540   -1.909911
 ---------------------------------------------------------------------

 SCF Done:  E(UB3LYP) =  -1136.11201534     A.U. after   23 cycles

 The electronic state is 2-A.
 Alpha  occ. eigenvalues --  -38.45404 -38.45289 -38.44475 -38.44395 -38.43551
 Alpha  occ. eigenvalues --  -38.43503 -38.42989  -2.21210  -2.21038  -2.20232
 Alpha  occ. eigenvalues --   -2.20159  -2.19335  -2.19267  -2.18935  -1.14863
 Alpha  occ. eigenvalues --   -1.14820  -1.14810  -1.14699  -1.14665  -1.14654
 Alpha  occ. eigenvalues --   -1.13911  -1.13900  -1.13862  -1.13848  -1.13809
 Alpha  occ. eigenvalues --   -1.13792  -1.13047  -1.13001  -1.12957  -1.12950
 Alpha  occ. eigenvalues --   -1.12946  -1.12891  -1.12678  -1.12586  -1.12560
 Alpha  occ. eigenvalues --   -0.16738  -0.12905  -0.11790  -0.11297
 Alpha virt. eigenvalues --   -0.06497  -0.05834  -0.04322  -0.03130  -0.02907
 Alpha virt. eigenvalues --   -0.02639  -0.01784  -0.01300  -0.01030  -0.00905
 Alpha virt. eigenvalues --   -0.00463   0.00218   0.00246   0.00641   0.00717

  Beta  occ. eigenvalues --  -38.45272 -38.45210 -38.44472 -38.44401 -38.43561
  Beta  occ. eigenvalues --  -38.43511 -38.42979  -2.20966  -2.20889  -2.20228
  Beta  occ. eigenvalues --   -2.20168  -2.19354  -2.19282  -2.18922  -1.14693
  Beta  occ. eigenvalues --   -1.14657  -1.14644  -1.14597  -1.14564  -1.14555
  Beta  occ. eigenvalues --   -1.13911  -1.13891  -1.13854  -1.13854  -1.13814
  Beta  occ. eigenvalues --   -1.13804  -1.13062  -1.13010  -1.12968  -1.12960
  Beta  occ. eigenvalues --   -1.12955  -1.12905  -1.12620  -1.12585  -1.12561
  Beta  occ. eigenvalues --   -0.16241  -0.12588  -0.11252
  Beta virt. eigenvalues --   -0.07667  -0.05961  -0.05748  -0.04119  -0.02776
  Beta virt. eigenvalues --   -0.02433  -0.02111  -0.01630  -0.01160  -0.00752
  Beta virt. eigenvalues --   -0.00576  -0.00358   0.00300   0.00565   0.00706

 Mulliken charges and spin densities:
               1          2
     1  Na   0.500442   0.022506
     2  Na   0.272452   0.532088
     3  Na   0.235385  -0.076820
     4  Na   0.422128  -0.132836
     5  Na  -2.346394   0.043971
     6  Na   0.664215   0.088281
     7  Na   0.251772   0.522811
 Sum of Mulliken charges =  -0.00000   1.00000

 Dipole moment (field-independent basis, Debye):
    X=             -0.7049    Y=             -0.2230    Z=              0.2885  Tot=              0.7936
 Quadrupole moment (field-independent basis, Debye-Ang):
   XX=            -55.5729   YY=            -68.3116   ZZ=            -67.3370
   XY=             -1.5960   XZ=              0.7552   YZ=              0.4933

 Normal termination of Gaussian 16 at Tue Dec  5 10:15:32 2023.
