 Gaussian 16, Revision B.01,
 Gaussian 16:  ES64L-G16RevB.01 20-Dec-2017

 -------------------------
 #P B3LYP/6-311+g(d) force
 -------------------------

 -----
 DPGEN
 -----
 Symbolic Z-matrix:
 Charge =  0 Multiplicity = 2

                         Standard orientation:
 ---------------------------------------------------------------------
 Center     Atomic      Atomic             Coordinates (Angstroms)
 Number     Number       Type             X           Y           Z
 ---------------------------------------------------------------------
      1         11           0        1.631630    2.791884   -0.355280
      2         11           0        4.336898    0.267446   -0.312647
      3         11           0       -3.479565   -2.789054   -0.169061
      4         11           0       -0.268841   -2.035562    0.211728
      5         11           0        3.040244   -2.495482    0.312041
      6         11           0       -3.886019    1.005106   -0.352776
      7         11           0       -1.374348    3.255662    0.665995
 ---------------------------------------------------------------------

 SCF Done:  E(UB3LYP) =  -1136.11103871     A.U. after   36 cycles

 The electronic state is 2-A.
 Alpha  occ. eigenvalues --  -38.45778 -38.45288 -38.45287 -38.43879 -38.43681
 Alpha  occ. eigenvalues --  -38.43648 -38.43612  -2.21536  -2.21082  -2.21074
 Alpha  occ. eigenvalues --   -2.19681  -2.19490  -2.19471  -2.19463  -1.15220
 Alpha  occ. eigenvalues --   -1.15196  -1.15148  -1.14765  -1.14758  -1.14754
 Alpha  occ. eigenvalues --   -1.14753  -1.14726  -1.14698  -1.13361  -1.13351
 Alpha  occ. eigenvalues --   -1.13328  -1.13160  -1.13151  -1.13135  -1.13124
 Alpha  occ. eigenvalues --   -1.13123  -1.13113  -1.13109  -1.13106  -1.13086
 Alpha  occ. eigenvalues --   -0.16089  -0.14143  -0.13265  -0.10372
 Alpha virt. eigenvalues --   -0.07803  -0.05000  -0.04136  -0.03743  -0.03312
 Alpha virt. eigenvalues --   -0.02529  -0.02342  -0.01880  -0.01153  -0.00472
 Alpha virt. eigenvalues --   -0.00294  -0.00085   0.00268   0.00414   0.00620

  Beta  occ. eigenvalues --  -38.45737 -38.45278 -38.45264 -38.43849 -38.43680
  Beta  occ. eigenvalues --  -38.43599 -38.43567  -2.21464  -2.21068  -2.21038
  Beta  occ. eigenvalues --   -2.19626  -2.19490  -2.19386  -2.19372  -1.15174
  Beta  occ. eigenvalues --   -1.15149  -1.15073  -1.14750  -1.14746  -1.14744
  Beta  occ. eigenvalues --   -1.14731  -1.14691  -1.14637  -1.13331  -1.13313
  Beta  occ. eigenvalues --   -1.13292  -1.13162  -1.13151  -1.13103  -1.13078
  Beta  occ. eigenvalues --   -1.13058  -1.13052  -1.13051  -1.13048  -1.13029
  Beta  occ. eigenvalues --   -0.15617  -0.13555  -0.12781
  Beta virt. eigenvalues --   -0.07772  -0.06984  -0.04705  -0.03872  -0.03460
  Beta virt. eigenvalues --   -0.02731  -0.02353  -0.02074  -0.01703  -0.00982
  Beta virt. eigenvalues --   -0.00266  -0.00046   0.00180   0.00304   0.00548

 Mulliken charges and spin densities:
               1          2
     1  Na  -0.068907   0.102234
     2  Na   0.020841   0.050648
     3  Na   1.205956   0.225697
     4  Na  -1.724443   0.374702
     5  Na   0.685990  -0.073294
     6  Na   0.185019   0.266357
     7  Na  -0.304456   0.053657
 Sum of Mulliken charges =  -0.00000   1.00000

 Dipole moment (field-independent basis, Debye):
    X=             -0.3401    Y=             -0.4016    Z=             -0.1431  Tot=              0.5454
 Quadrupole moment (field-independent basis, Debye-Ang):
   XX=            -52.0953   YY=            -73.6348   ZZ=            -72.7861
   XY=             -1.3261   XZ=              0.9301   YZ=              0.3032

 Normal termination of Gaussian 16 at Mon Dec  4 03:23:43 2023.
