 Gaussian 16, Revision B.01,
 Gaussian 16:  ES64L-G16RevB.01 20-Dec-2017

 -------------------------
 #P B3LYP/6-311+g(d) force
 -------------------------

 -----
 DPGEN
 -----
 Symbolic Z-matrix:
 Charge =  0 Multiplicity = 2

                         Standard orientation:
 ---------------------------------------------------------------------
 Center     Atomic      Atomic             Coordinates (Angstroms)
 Number     Number       Type             X           Y           Z
 ---------------------------------------------------------------------
      1         11           0        2.453660   -0.381431    0.868573
      2         11           0        3.830678    2.879087   -0.364551
      3         11           0       -3.411257    0.195651    0.510556
      4         11           0        4.450775   -2.644066   -0.470017
      5         11           0       -6.166629   -0.249602   -0.500604
      6         11           0       -0.303005    1.768006   -0.046658
      7         11           0       -0.854222   -1.567646    0.002701
 ---------------------------------------------------------------------

 SCF Done:  E(UB3LYP) =  -1136.10734423     A.U. after   26 cycles

 The electronic state is 2-A.
 Alpha  occ. eigenvalues --  -38.46001 -38.45957 -38.44163 -38.43925 -38.43573
 Alpha  occ. eigenvalues --  -38.43462 -38.43342  -2.21852  -2.21728  -2.19985
 Alpha  occ. eigenvalues --   -2.19758  -2.19493  -2.19312  -2.19108  -1.15517
 Alpha  occ. eigenvalues --   -1.15497  -1.15467  -1.15373  -1.15350  -1.15333
 Alpha  occ. eigenvalues --   -1.13678  -1.13666  -1.13615  -1.13498  -1.13384
 Alpha  occ. eigenvalues --   -1.13382  -1.13189  -1.13148  -1.13090  -1.13011
 Alpha  occ. eigenvalues --   -1.13002  -1.12941  -1.12773  -1.12767  -1.12745
 Alpha  occ. eigenvalues --   -0.17129  -0.14292  -0.12037  -0.11187
 Alpha virt. eigenvalues --   -0.06494  -0.05880  -0.04772  -0.03556  -0.02782
 Alpha virt. eigenvalues --   -0.02693  -0.02247  -0.01468  -0.00976  -0.00858
 Alpha virt. eigenvalues --   -0.00635  -0.00191  -0.00151   0.00273   0.00720

  Beta  occ. eigenvalues --  -38.45951 -38.45840 -38.44178 -38.43868 -38.43569
  Beta  occ. eigenvalues --  -38.43457 -38.43345  -2.21760  -2.21510  -2.20015
  Beta  occ. eigenvalues --   -2.19652  -2.19492  -2.19307  -2.19113  -1.15455
  Beta  occ. eigenvalues --   -1.15433  -1.15404  -1.15224  -1.15201  -1.15187
  Beta  occ. eigenvalues --   -1.13701  -1.13692  -1.13614  -1.13430  -1.13314
  Beta  occ. eigenvalues --   -1.13312  -1.13188  -1.13151  -1.13051  -1.13007
  Beta  occ. eigenvalues --   -1.12974  -1.12941  -1.12777  -1.12770  -1.12747
  Beta  occ. eigenvalues --   -0.16675  -0.13540  -0.10831
  Beta virt. eigenvalues --   -0.08586  -0.06078  -0.05463  -0.04591  -0.03176
  Beta virt. eigenvalues --   -0.02486  -0.02347  -0.01878  -0.01104  -0.00825
  Beta virt. eigenvalues --   -0.00561  -0.00407  -0.00065  -0.00047   0.00359

 Mulliken charges and spin densities:
               1          2
     1  Na  -0.504863   0.001971
     2  Na   0.444837   0.482223
     3  Na  -0.038178   0.144915
     4  Na   0.207057  -0.018850
     5  Na  -0.150473   0.149849
     6  Na  -0.049994   0.050262
     7  Na   0.091614   0.189630
 Sum of Mulliken charges =  -0.00000   1.00000

 Dipole moment (field-independent basis, Debye):
    X=              0.2277    Y=              0.8727    Z=             -0.6679  Tot=              1.1223
 Quadrupole moment (field-independent basis, Debye-Ang):
   XX=            -69.3265   YY=            -64.3435   ZZ=            -71.3460
   XY=              7.3576   XZ=             -1.2047   YZ=              1.0114

 Normal termination of Gaussian 16 at Wed Nov 29 03:33:31 2023.
