 Gaussian 16, Revision B.01,
 Gaussian 16:  ES64L-G16RevB.01 20-Dec-2017

 -------------------------
 #P B3LYP/6-311+g(d) force
 -------------------------

 -----
 DPGEN
 -----
 Symbolic Z-matrix:
 Charge =  0 Multiplicity = 2

                         Standard orientation:
 ---------------------------------------------------------------------
 Center     Atomic      Atomic             Coordinates (Angstroms)
 Number     Number       Type             X           Y           Z
 ---------------------------------------------------------------------
      1         11           0       -3.026771   -0.989978    0.329780
      2         11           0        1.750524    2.302196   -0.208561
      3         11           0        0.030040   -0.280852    1.899590
      4         11           0       -1.769644    2.128210    0.116165
      5         11           0        3.113624   -0.934012    0.391135
      6         11           0        0.119761   -2.454377   -0.759056
      7         11           0       -0.217533    0.228813   -1.769053
 ---------------------------------------------------------------------

 SCF Done:  E(UB3LYP) =  -1136.13474385     A.U. after   19 cycles

 The electronic state is 2-A.
 Alpha  occ. eigenvalues --  -38.44044 -38.43978 -38.43746 -38.43479 -38.43278
 Alpha  occ. eigenvalues --  -38.43259 -38.43136  -2.19864  -2.19823  -2.19672
 Alpha  occ. eigenvalues --   -2.19513  -2.19165  -2.19135  -2.19060  -1.13541
 Alpha  occ. eigenvalues --   -1.13514  -1.13510  -1.13497  -1.13487  -1.13465
 Alpha  occ. eigenvalues --   -1.13355  -1.13310  -1.13286  -1.13281  -1.13189
 Alpha  occ. eigenvalues --   -1.13120  -1.12849  -1.12833  -1.12821  -1.12799
 Alpha  occ. eigenvalues --   -1.12779  -1.12744  -1.12743  -1.12694  -1.12641
 Alpha  occ. eigenvalues --   -0.19046  -0.13161  -0.12287  -0.11206
 Alpha virt. eigenvalues --   -0.05707  -0.05017  -0.04095  -0.03374  -0.02979
 Alpha virt. eigenvalues --   -0.02771  -0.01693  -0.00959  -0.00168   0.00010
 Alpha virt. eigenvalues --    0.00105   0.00348   0.00798   0.00910   0.00935

  Beta  occ. eigenvalues --  -38.44038 -38.43971 -38.43671 -38.43394 -38.43275
  Beta  occ. eigenvalues --  -38.43252 -38.43107  -2.19855  -2.19814  -2.19535
  Beta  occ. eigenvalues --   -2.19360  -2.19157  -2.19131  -2.19013  -1.13520
  Beta  occ. eigenvalues --   -1.13512  -1.13503  -1.13485  -1.13476  -1.13449
  Beta  occ. eigenvalues --   -1.13267  -1.13217  -1.13178  -1.13176  -1.13093
  Beta  occ. eigenvalues --   -1.13019  -1.12833  -1.12813  -1.12805  -1.12785
  Beta  occ. eigenvalues --   -1.12768  -1.12740  -1.12696  -1.12639  -1.12614
  Beta  occ. eigenvalues --   -0.18308  -0.12898  -0.12010
  Beta virt. eigenvalues --   -0.07255  -0.05616  -0.05029  -0.04067  -0.02626
  Beta virt. eigenvalues --   -0.02208  -0.01688  -0.01555  -0.00929  -0.00091
  Beta virt. eigenvalues --   -0.00000   0.00134   0.00374   0.00852   0.00910

 Mulliken charges and spin densities:
               1          2
     1  Na   0.149828  -0.005625
     2  Na   0.004476  -0.083884
     3  Na  -0.462718   0.693943
     4  Na   0.085993  -0.046293
     5  Na   0.001626  -0.005591
     6  Na   0.266607   0.027627
     7  Na  -0.045810   0.419822
 Sum of Mulliken charges =  -0.00000   1.00000

 Dipole moment (field-independent basis, Debye):
    X=              0.0164    Y=             -0.0892    Z=              0.3518  Tot=              0.3633
 Quadrupole moment (field-independent basis, Debye-Ang):
   XX=            -54.3898   YY=            -67.0588   ZZ=            -72.2451
   XY=              0.4313   XZ=             -0.3920   YZ=              0.4902

 Normal termination of Gaussian 16 at Thu Dec  7 05:00:45 2023.
