 Gaussian 16, Revision B.01,
 Gaussian 16:  ES64L-G16RevB.01 20-Dec-2017

 -------------------------
 #P B3LYP/6-311+g(d) force
 -------------------------

 -----
 DPGEN
 -----
 Symbolic Z-matrix:
 Charge =  0 Multiplicity = 2

                         Standard orientation:
 ---------------------------------------------------------------------
 Center     Atomic      Atomic             Coordinates (Angstroms)
 Number     Number       Type             X           Y           Z
 ---------------------------------------------------------------------
      1         11           0        1.164933    2.399398   -0.852373
      2         11           0        0.834571    0.553817    2.086887
      3         11           0       -2.982235   -1.503713   -0.199032
      4         11           0        3.253770   -0.944198   -0.243082
      5         11           0       -0.259419   -0.001324   -1.488827
      6         11           0       -2.077655    2.162918    0.458807
      7         11           0        0.066036   -2.666897    0.237620
 ---------------------------------------------------------------------

 SCF Done:  E(UB3LYP) =  -1136.13327619     A.U. after   20 cycles

 The electronic state is 2-A.
 Alpha  occ. eigenvalues --  -38.44190 -38.43821 -38.43743 -38.43670 -38.43602
 Alpha  occ. eigenvalues --  -38.43381 -38.43180  -2.19978  -2.19650  -2.19609
 Alpha  occ. eigenvalues --   -2.19518  -2.19500  -2.19251  -2.19217  -1.13651
 Alpha  occ. eigenvalues --   -1.13633  -1.13622  -1.13374  -1.13322  -1.13317
 Alpha  occ. eigenvalues --   -1.13287  -1.13272  -1.13261  -1.13210  -1.13180
 Alpha  occ. eigenvalues --   -1.13171  -1.13141  -1.13140  -1.13097  -1.12996
 Alpha  occ. eigenvalues --   -1.12921  -1.12862  -1.12850  -1.12821  -1.12805
 Alpha  occ. eigenvalues --   -0.18545  -0.12809  -0.12599  -0.10833
 Alpha virt. eigenvalues --   -0.05696  -0.05186  -0.04532  -0.03134  -0.03031
 Alpha virt. eigenvalues --   -0.02573  -0.01680  -0.01133  -0.00359  -0.00119
 Alpha virt. eigenvalues --   -0.00007   0.00327   0.00782   0.00847   0.00896

  Beta  occ. eigenvalues --  -38.44190 -38.43811 -38.43671 -38.43656 -38.43571
  Beta  occ. eigenvalues --  -38.43376 -38.43121  -2.19980  -2.19633  -2.19503
  Beta  occ. eigenvalues --   -2.19466  -2.19449  -2.19244  -2.19112  -1.13646
  Beta  occ. eigenvalues --   -1.13627  -1.13624  -1.13333  -1.13301  -1.13283
  Beta  occ. eigenvalues --   -1.13275  -1.13181  -1.13168  -1.13167  -1.13155
  Beta  occ. eigenvalues --   -1.13142  -1.13094  -1.13084  -1.13060  -1.12977
  Beta  occ. eigenvalues --   -1.12900  -1.12847  -1.12795  -1.12750  -1.12729
  Beta  occ. eigenvalues --   -0.17843  -0.12609  -0.12383
  Beta virt. eigenvalues --   -0.06862  -0.05635  -0.05134  -0.04468  -0.02456
  Beta virt. eigenvalues --   -0.02311  -0.01626  -0.01514  -0.01043  -0.00319
  Beta virt. eigenvalues --   -0.00123   0.00133   0.00367   0.00820   0.00870

 Mulliken charges and spin densities:
               1          2
     1  Na   0.342283   0.012508
     2  Na  -0.471335   0.656006
     3  Na   0.109468  -0.009701
     4  Na   0.067671  -0.050500
     5  Na   0.002843   0.288676
     6  Na  -0.018302   0.113739
     7  Na  -0.032628  -0.010728
 Sum of Mulliken charges =  -0.00000   1.00000

 Dipole moment (field-independent basis, Debye):
    X=              0.1145    Y=              0.0549    Z=              0.2867  Tot=              0.3136
 Quadrupole moment (field-independent basis, Debye-Ang):
   XX=            -54.7897   YY=            -64.5615   ZZ=            -73.7271
   XY=             -1.0558   XZ=             -2.0159   YZ=             -0.3646

 Normal termination of Gaussian 16 at Wed Dec  6 00:18:43 2023.
