 Gaussian 16, Revision B.01,
 Gaussian 16:  ES64L-G16RevB.01 20-Dec-2017

 -------------------------
 #P B3LYP/6-311+g(d) force
 -------------------------

 -----
 DPGEN
 -----
 Symbolic Z-matrix:
 Charge =  0 Multiplicity = 2

                         Standard orientation:
 ---------------------------------------------------------------------
 Center     Atomic      Atomic             Coordinates (Angstroms)
 Number     Number       Type             X           Y           Z
 ---------------------------------------------------------------------
      1         11           0       -2.886977   -0.893498   -0.396966
      2         11           0       -0.056231    0.008334    1.966187
      3         11           0       -0.142569   -0.302486   -1.714498
      4         11           0        1.871712    2.420625   -0.152984
      5         11           0       -1.951495    2.252794    0.153851
      6         11           0        3.022075   -0.783859   -0.248054
      7         11           0        0.143484   -2.701909    0.392464
 ---------------------------------------------------------------------

 SCF Done:  E(UB3LYP) =  -1136.13789291     A.U. after   19 cycles

 The electronic state is 2-A.
 Alpha  occ. eigenvalues --  -38.43947 -38.43827 -38.43558 -38.43542 -38.43515
 Alpha  occ. eigenvalues --  -38.43410 -38.43041  -2.19786  -2.19714  -2.19492
 Alpha  occ. eigenvalues --   -2.19394  -2.19361  -2.19355  -2.18957  -1.13463
 Alpha  occ. eigenvalues --   -1.13447  -1.13443  -1.13429  -1.13363  -1.13344
 Alpha  occ. eigenvalues --   -1.13182  -1.13141  -1.13106  -1.13075  -1.13045
 Alpha  occ. eigenvalues --   -1.13031  -1.13027  -1.13022  -1.13005  -1.13003
 Alpha  occ. eigenvalues --   -1.13001  -1.12983  -1.12645  -1.12617  -1.12565
 Alpha  occ. eigenvalues --   -0.18884  -0.13179  -0.12368  -0.10976
 Alpha virt. eigenvalues --   -0.05490  -0.05229  -0.04489  -0.03275  -0.02945
 Alpha virt. eigenvalues --   -0.02641  -0.01507  -0.01019  -0.00282  -0.00219
 Alpha virt. eigenvalues --    0.00017   0.00359   0.00811   0.00903   0.00921

  Beta  occ. eigenvalues --  -38.43942 -38.43814 -38.43541 -38.43511 -38.43464
  Beta  occ. eigenvalues --  -38.43344 -38.43026  -2.19779  -2.19694  -2.19358
  Beta  occ. eigenvalues --   -2.19354  -2.19320  -2.19272  -2.18935  -1.13450
  Beta  occ. eigenvalues --   -1.13439  -1.13421  -1.13418  -1.13344  -1.13323
  Beta  occ. eigenvalues --   -1.13074  -1.13051  -1.13027  -1.13024  -1.13009
  Beta  occ. eigenvalues --   -1.13002  -1.12995  -1.12984  -1.12980  -1.12970
  Beta  occ. eigenvalues --   -1.12934  -1.12918  -1.12627  -1.12568  -1.12554
  Beta  occ. eigenvalues --   -0.18150  -0.12914  -0.12116
  Beta virt. eigenvalues --   -0.07037  -0.05448  -0.05215  -0.04455  -0.02497
  Beta virt. eigenvalues --   -0.02157  -0.01585  -0.01403  -0.00957  -0.00323
  Beta virt. eigenvalues --   -0.00233   0.00127   0.00392   0.00875   0.00903

 Mulliken charges and spin densities:
               1          2
     1  Na   0.356802   0.013038
     2  Na  -0.295645   0.673703
     3  Na  -0.247355   0.564055
     4  Na  -0.113805  -0.097184
     5  Na  -0.042708  -0.086422
     6  Na   0.048097  -0.068389
     7  Na   0.294614   0.001198
 Sum of Mulliken charges =  -0.00000   1.00000

 Dipole moment (field-independent basis, Debye):
    X=              0.0440    Y=              0.0420    Z=              0.0156  Tot=              0.0628
 Quadrupole moment (field-independent basis, Debye-Ang):
   XX=            -56.7411   YY=            -63.9058   ZZ=            -73.3725
   XY=             -0.2984   XZ=             -0.1863   YZ=             -0.3604

 Normal termination of Gaussian 16 at Thu Dec  7 19:10:03 2023.
