 Gaussian 16, Revision B.01,
 Gaussian 16:  ES64L-G16RevB.01 20-Dec-2017

 -------------------------
 #P B3LYP/6-311+g(d) force
 -------------------------

 -----
 DPGEN
 -----
 Symbolic Z-matrix:
 Charge =  0 Multiplicity = 2

                         Standard orientation:
 ---------------------------------------------------------------------
 Center     Atomic      Atomic             Coordinates (Angstroms)
 Number     Number       Type             X           Y           Z
 ---------------------------------------------------------------------
      1         11           0       -0.616214    1.764943    0.804695
      2         11           0        2.533921    0.384252    0.130581
      3         11           0        0.105365   -1.815219   -0.965545
      4         11           0       -2.941820   -0.716207    1.662208
      5         11           0       -4.077620   -0.922083   -1.228301
      6         11           0        3.823864   -2.674474    0.234354
      7         11           0        1.172505    3.978787   -0.637991
 ---------------------------------------------------------------------

 SCF Done:  E(UB3LYP) =  -1136.11744845     A.U. after   32 cycles

 The electronic state is 2-A.
 Alpha  occ. eigenvalues --  -38.46321 -38.45060 -38.44453 -38.43707 -38.43624
 Alpha  occ. eigenvalues --  -38.43502 -38.43050  -2.22060  -2.20833  -2.20300
 Alpha  occ. eigenvalues --   -2.19532  -2.19481  -2.19316  -2.18936  -1.15781
 Alpha  occ. eigenvalues --   -1.15755  -1.15630  -1.14517  -1.14500  -1.14453
 Alpha  occ. eigenvalues --   -1.14028  -1.14001  -1.13865  -1.13269  -1.13179
 Alpha  occ. eigenvalues --   -1.13159  -1.13137  -1.13124  -1.13067  -1.13000
 Alpha  occ. eigenvalues --   -1.12968  -1.12938  -1.12636  -1.12613  -1.12531
 Alpha  occ. eigenvalues --   -0.16994  -0.13856  -0.12737  -0.09562
 Alpha virt. eigenvalues --   -0.07231  -0.05598  -0.04654  -0.03689  -0.02889
 Alpha virt. eigenvalues --   -0.02441  -0.02043  -0.01486  -0.01209  -0.00777
 Alpha virt. eigenvalues --   -0.00177   0.00071   0.00350   0.00473   0.00574

  Beta  occ. eigenvalues --  -38.46311 -38.45066 -38.44453 -38.43648 -38.43586
  Beta  occ. eigenvalues --  -38.43473 -38.43015  -2.22043  -2.20845  -2.20300
  Beta  occ. eigenvalues --   -2.19422  -2.19413  -2.19262  -2.18875  -1.15771
  Beta  occ. eigenvalues --   -1.15729  -1.15618  -1.14525  -1.14507  -1.14460
  Beta  occ. eigenvalues --   -1.14028  -1.13992  -1.13868  -1.13203  -1.13108
  Beta  occ. eigenvalues --   -1.13095  -1.13079  -1.13061  -1.12996  -1.12964
  Beta  occ. eigenvalues --   -1.12930  -1.12902  -1.12598  -1.12574  -1.12457
  Beta  occ. eigenvalues --   -0.16609  -0.13491  -0.12508
  Beta virt. eigenvalues --   -0.07098  -0.05975  -0.05416  -0.04315  -0.03383
  Beta virt. eigenvalues --   -0.02715  -0.02205  -0.01882  -0.01062  -0.01009
  Beta virt. eigenvalues --   -0.00364  -0.00085   0.00240   0.00527   0.00593

 Mulliken charges and spin densities:
               1          2
     1  Na  -1.115803   0.227964
     2  Na  -0.888389   0.019509
     3  Na  -0.498381   0.128745
     4  Na   0.531943  -0.007173
     5  Na  -0.011721   0.445701
     6  Na   1.018485  -0.027190
     7  Na   0.963865   0.212444
 Sum of Mulliken charges =  -0.00000   1.00000

 Dipole moment (field-independent basis, Debye):
    X=              1.9977    Y=             -1.1001    Z=              0.1508  Tot=              2.2856
 Quadrupole moment (field-independent basis, Debye-Ang):
   XX=            -59.0407   YY=            -63.3590   ZZ=            -74.2118
   XY=             -7.2460   XZ=             -0.9289   YZ=             -3.9227

 Normal termination of Gaussian 16 at Wed Nov 29 01:01:00 2023.
