 Gaussian 16, Revision B.01,
 Gaussian 16:  ES64L-G16RevB.01 20-Dec-2017

 -------------------------
 #P B3LYP/6-311+g(d) force
 -------------------------

 -----
 DPGEN
 -----
 Symbolic Z-matrix:
 Charge =  0 Multiplicity = 2

                         Standard orientation:
 ---------------------------------------------------------------------
 Center     Atomic      Atomic             Coordinates (Angstroms)
 Number     Number       Type             X           Y           Z
 ---------------------------------------------------------------------
      1         11           0       -1.836425   -2.912870    0.009824
      2         11           0        1.819874    2.936970   -0.900099
      3         11           0        2.250552   -2.750300   -0.107376
      4         11           0        3.288470   -0.142340    0.824473
      5         11           0       -3.639594   -0.032871   -0.057179
      6         11           0       -1.456795    2.832807    0.895932
      7         11           0       -0.426083    0.068604   -0.665575
 ---------------------------------------------------------------------

 SCF Done:  E(UB3LYP) =  -1136.12453315     A.U. after   21 cycles

 The electronic state is 2-A.
 Alpha  occ. eigenvalues --  -38.44321 -38.44303 -38.43989 -38.43915 -38.43733
 Alpha  occ. eigenvalues --  -38.43627 -38.43422  -2.20161  -2.20146  -2.19826
 Alpha  occ. eigenvalues --   -2.19809  -2.19577  -2.19464  -2.19241  -1.13878
 Alpha  occ. eigenvalues --   -1.13858  -1.13834  -1.13805  -1.13782  -1.13763
 Alpha  occ. eigenvalues --   -1.13565  -1.13517  -1.13484  -1.13458  -1.13434
 Alpha  occ. eigenvalues --   -1.13414  -1.13243  -1.13228  -1.13195  -1.13120
 Alpha  occ. eigenvalues --   -1.13111  -1.13091  -1.12903  -1.12884  -1.12858
 Alpha  occ. eigenvalues --   -0.17230  -0.13817  -0.13095  -0.09672
 Alpha virt. eigenvalues --   -0.06367  -0.05629  -0.04841  -0.02958  -0.02714
 Alpha virt. eigenvalues --   -0.02111  -0.01855  -0.01702  -0.01438  -0.00521
 Alpha virt. eigenvalues --    0.00105   0.00278   0.00534   0.00584   0.00674

  Beta  occ. eigenvalues --  -38.44305 -38.44274 -38.43955 -38.43916 -38.43707
  Beta  occ. eigenvalues --  -38.43586 -38.43363  -2.20137  -2.20099  -2.19828
  Beta  occ. eigenvalues --   -2.19749  -2.19535  -2.19387  -2.19131  -1.13848
  Beta  occ. eigenvalues --   -1.13836  -1.13823  -1.13777  -1.13727  -1.13710
  Beta  occ. eigenvalues --   -1.13556  -1.13510  -1.13459  -1.13447  -1.13413
  Beta  occ. eigenvalues --   -1.13348  -1.13211  -1.13201  -1.13149  -1.13067
  Beta  occ. eigenvalues --   -1.13058  -1.13045  -1.12826  -1.12810  -1.12789
  Beta  occ. eigenvalues --   -0.16916  -0.13148  -0.12520
  Beta virt. eigenvalues --   -0.06422  -0.06354  -0.05386  -0.04583  -0.02552
  Beta virt. eigenvalues --   -0.02289  -0.01868  -0.01658  -0.01338  -0.01231
  Beta virt. eigenvalues --   -0.00314   0.00340   0.00433   0.00567   0.00670

 Mulliken charges and spin densities:
               1          2
     1  Na   0.855271   0.168106
     2  Na   0.502414   0.297711
     3  Na  -0.024812   0.156535
     4  Na   0.260439   0.093697
     5  Na   0.520918   0.152165
     6  Na   0.361479   0.138157
     7  Na  -2.475709  -0.006370
 Sum of Mulliken charges =  -0.00000   1.00000

 Dipole moment (field-independent basis, Debye):
    X=             -0.5229    Y=             -0.0418    Z=              0.3146  Tot=              0.6117
 Quadrupole moment (field-independent basis, Debye-Ang):
   XX=            -63.6551   YY=            -63.8833   ZZ=            -70.5200
   XY=              4.6535   XZ=              0.4927   YZ=              1.9902

 Normal termination of Gaussian 16 at Tue Dec  5 13:33:51 2023.
