 Gaussian 16, Revision B.01,
 Gaussian 16:  ES64L-G16RevB.01 20-Dec-2017

 -------------------------
 #P B3LYP/6-311+g(d) force
 -------------------------

 -----
 DPGEN
 -----
 Symbolic Z-matrix:
 Charge =  0 Multiplicity = 2

                         Standard orientation:
 ---------------------------------------------------------------------
 Center     Atomic      Atomic             Coordinates (Angstroms)
 Number     Number       Type             X           Y           Z
 ---------------------------------------------------------------------
      1         11           0       -2.179646   -2.304725    0.042406
      2         11           0       -2.968817    0.701705   -0.270984
      3         11           0       -0.309512    2.768551    0.190207
      4         11           0        0.066027    0.021527   -1.522602
      5         11           0        3.073215    0.972410   -0.108634
      6         11           0       -0.115765   -0.072158    1.679619
      7         11           0        2.434499   -2.087309   -0.010012
 ---------------------------------------------------------------------

 SCF Done:  E(UB3LYP) =  -1136.13202286     A.U. after   19 cycles

 The electronic state is 2-A.
 Alpha  occ. eigenvalues --  -38.44538 -38.44186 -38.44027 -38.43590 -38.43162
 Alpha  occ. eigenvalues --  -38.42896 -38.42653  -2.20389  -2.20095  -2.19869
 Alpha  occ. eigenvalues --   -2.19445  -2.19169  -2.18886  -2.18556  -1.14076
 Alpha  occ. eigenvalues --   -1.14056  -1.14024  -1.13781  -1.13756  -1.13739
 Alpha  occ. eigenvalues --   -1.13531  -1.13530  -1.13511  -1.13117  -1.13099
 Alpha  occ. eigenvalues --   -1.13093  -1.12907  -1.12799  -1.12782  -1.12584
 Alpha  occ. eigenvalues --   -1.12517  -1.12491  -1.12235  -1.12211  -1.12185
 Alpha  occ. eigenvalues --   -0.19004  -0.13867  -0.12065  -0.10240
 Alpha virt. eigenvalues --   -0.06091  -0.05573  -0.04245  -0.03340  -0.02381
 Alpha virt. eigenvalues --   -0.02009  -0.01952  -0.01226  -0.00544  -0.00273
 Alpha virt. eigenvalues --    0.00038   0.00327   0.00705   0.00821   0.00893

  Beta  occ. eigenvalues --  -38.44533 -38.44174 -38.44025 -38.43587 -38.43102
  Beta  occ. eigenvalues --  -38.42810 -38.42644  -2.20383  -2.20077  -2.19868
  Beta  occ. eigenvalues --   -2.19443  -2.19061  -2.18730  -2.18545  -1.14075
  Beta  occ. eigenvalues --   -1.14038  -1.14014  -1.13772  -1.13738  -1.13707
  Beta  occ. eigenvalues --   -1.13532  -1.13523  -1.13497  -1.13118  -1.13093
  Beta  occ. eigenvalues --   -1.13071  -1.12825  -1.12723  -1.12700  -1.12479
  Beta  occ. eigenvalues --   -1.12404  -1.12381  -1.12225  -1.12182  -1.12165
  Beta  occ. eigenvalues --   -0.18294  -0.13608  -0.11810
  Beta virt. eigenvalues --   -0.06375  -0.06005  -0.05573  -0.04254  -0.02539
  Beta virt. eigenvalues --   -0.01893  -0.01658  -0.01216  -0.00923  -0.00595
  Beta virt. eigenvalues --   -0.00290   0.00181   0.00362   0.00758   0.00818

 Mulliken charges and spin densities:
               1          2
     1  Na   0.081688  -0.073142
     2  Na   0.356576   0.114303
     3  Na   0.098939  -0.018499
     4  Na  -0.380891   0.406351
     5  Na   0.188188  -0.001366
     6  Na  -0.425705   0.651077
     7  Na   0.081205  -0.078725
 Sum of Mulliken charges =  -0.00000   1.00000

 Dipole moment (field-independent basis, Debye):
    X=              0.3721    Y=             -0.1307    Z=              0.0199  Tot=              0.3949
 Quadrupole moment (field-independent basis, Debye-Ang):
   XX=            -51.6489   YY=            -62.8830   ZZ=            -77.2137
   XY=              0.2284   XZ=              0.4382   YZ=              0.1078

 Normal termination of Gaussian 16 at Tue Nov 28 21:42:49 2023.
