 Gaussian 16, Revision B.01,
 Gaussian 16:  ES64L-G16RevB.01 20-Dec-2017

 -------------------------
 #P B3LYP/6-311+g(d) force
 -------------------------

 -----
 DPGEN
 -----
 Symbolic Z-matrix:
 Charge =  0 Multiplicity = 2

                         Standard orientation:
 ---------------------------------------------------------------------
 Center     Atomic      Atomic             Coordinates (Angstroms)
 Number     Number       Type             X           Y           Z
 ---------------------------------------------------------------------
      1         11           0        0.101036    2.709154    0.675951
      2         11           0        6.000156   -0.236138   -0.325648
      3         11           0        2.635016    1.309533   -0.526030
      4         11           0        2.605635   -2.451071    0.561100
      5         11           0       -0.520599   -0.581377   -0.058348
      6         11           0       -3.853014   -0.465599   -0.160324
      7         11           0       -6.968230   -0.284502   -0.166701
 ---------------------------------------------------------------------

 SCF Done:  E(UB3LYP) =  -1136.11326492     A.U. after   22 cycles

 The electronic state is 2-A.
 Alpha  occ. eigenvalues --  -38.45255 -38.44436 -38.44367 -38.44323 -38.44282
 Alpha  occ. eigenvalues --  -38.44178 -38.43666  -2.21024  -2.20185  -2.20178
 Alpha  occ. eigenvalues --   -2.20155  -2.20125  -2.20037  -2.19484  -1.14699
 Alpha  occ. eigenvalues --   -1.14684  -1.14621  -1.13910  -1.13862  -1.13856
 Alpha  occ. eigenvalues --   -1.13850  -1.13842  -1.13822  -1.13804  -1.13804
 Alpha  occ. eigenvalues --   -1.13802  -1.13771  -1.13759  -1.13718  -1.13708
 Alpha  occ. eigenvalues --   -1.13704  -1.13643  -1.13151  -1.13145  -1.13128
 Alpha  occ. eigenvalues --   -0.16838  -0.13652  -0.12236  -0.11459
 Alpha virt. eigenvalues --   -0.07259  -0.05477  -0.03879  -0.03770  -0.03260
 Alpha virt. eigenvalues --   -0.02473  -0.02064  -0.01766  -0.01193  -0.01051
 Alpha virt. eigenvalues --   -0.00589  -0.00149   0.00015   0.00245   0.00564

  Beta  occ. eigenvalues --  -38.45192 -38.44417 -38.44350 -38.44288 -38.44248
  Beta  occ. eigenvalues --  -38.44138 -38.43669  -2.20910  -2.20150  -2.20124
  Beta  occ. eigenvalues --   -2.20115  -2.20062  -2.19966  -2.19491  -1.14624
  Beta  occ. eigenvalues --   -1.14604  -1.14530  -1.13860  -1.13833  -1.13825
  Beta  occ. eigenvalues --   -1.13808  -1.13801  -1.13796  -1.13782  -1.13782
  Beta  occ. eigenvalues --   -1.13780  -1.13729  -1.13715  -1.13672  -1.13660
  Beta  occ. eigenvalues --   -1.13656  -1.13578  -1.13152  -1.13148  -1.13128
  Beta  occ. eigenvalues --   -0.16138  -0.13455  -0.11764
  Beta virt. eigenvalues --   -0.08051  -0.06669  -0.05185  -0.03614  -0.03445
  Beta virt. eigenvalues --   -0.02723  -0.02395  -0.01796  -0.01543  -0.01043
  Beta virt. eigenvalues --   -0.00707  -0.00281   0.00104   0.00124   0.00358

 Mulliken charges and spin densities:
               1          2
     1  Na   0.458910   0.020641
     2  Na  -0.009436   0.133963
     3  Na   0.178434   0.434336
     4  Na   0.784549  -0.015005
     5  Na  -1.175104   0.303728
     6  Na  -0.653181   0.074669
     7  Na   0.415828   0.047669
 Sum of Mulliken charges =  -0.00000   1.00000

 Dipole moment (field-independent basis, Debye):
    X=              0.5438    Y=              0.3197    Z=              0.4477  Tot=              0.7735
 Quadrupole moment (field-independent basis, Debye-Ang):
   XX=            -54.1567   YY=            -66.7339   ZZ=            -72.3612
   XY=             -3.9370   XZ=             -0.5358   YZ=              0.2272

 Normal termination of Gaussian 16 at Wed Nov 29 04:12:56 2023.
