 Gaussian 16, Revision B.01,
 Gaussian 16:  ES64L-G16RevB.01 20-Dec-2017

 -------------------------
 #P B3LYP/6-311+g(d) force
 -------------------------

 -----
 DPGEN
 -----
 Symbolic Z-matrix:
 Charge =  0 Multiplicity = 2

                         Standard orientation:
 ---------------------------------------------------------------------
 Center     Atomic      Atomic             Coordinates (Angstroms)
 Number     Number       Type             X           Y           Z
 ---------------------------------------------------------------------
      1         11           0        0.459705   -2.365308    0.713426
      2         11           0       -1.702418    2.327603   -0.591444
      3         11           0       -0.677813    0.503136    1.963230
      4         11           0        1.440896    2.231008    0.291943
      5         11           0        3.251799   -0.787846   -0.427408
      6         11           0       -2.920326   -1.636302   -0.408641
      7         11           0        0.148159   -0.272291   -1.541106
 ---------------------------------------------------------------------

 SCF Done:  E(UB3LYP) =  -1136.13560157     A.U. after   19 cycles

 The electronic state is 2-A.
 Alpha  occ. eigenvalues --  -38.43955 -38.43623 -38.43585 -38.43480 -38.43359
 Alpha  occ. eigenvalues --  -38.43354 -38.43157  -2.19749  -2.19470  -2.19462
 Alpha  occ. eigenvalues --   -2.19429  -2.19271  -2.19264  -2.19175  -1.13426
 Alpha  occ. eigenvalues --   -1.13401  -1.13391  -1.13190  -1.13156  -1.13145
 Alpha  occ. eigenvalues --   -1.13130  -1.13122  -1.13112  -1.13101  -1.13068
 Alpha  occ. eigenvalues --   -1.13036  -1.13023  -1.12949  -1.12935  -1.12923
 Alpha  occ. eigenvalues --   -1.12864  -1.12853  -1.12839  -1.12796  -1.12768
 Alpha  occ. eigenvalues --   -0.18929  -0.12852  -0.12584  -0.11007
 Alpha virt. eigenvalues --   -0.05496  -0.05120  -0.04345  -0.03216  -0.03030
 Alpha virt. eigenvalues --   -0.02555  -0.01613  -0.01106  -0.00259   0.00050
 Alpha virt. eigenvalues --    0.00134   0.00335   0.00805   0.00857   0.00912

  Beta  occ. eigenvalues --  -38.43950 -38.43620 -38.43571 -38.43393 -38.43344
  Beta  occ. eigenvalues --  -38.43339 -38.43101  -2.19743  -2.19458  -2.19447
  Beta  occ. eigenvalues --   -2.19270  -2.19251  -2.19237  -2.19074  -1.13412
  Beta  occ. eigenvalues --   -1.13395  -1.13386  -1.13167  -1.13134  -1.13117
  Beta  occ. eigenvalues --   -1.13114  -1.13109  -1.13081  -1.13042  -1.13005
  Beta  occ. eigenvalues --   -1.12958  -1.12932  -1.12924  -1.12881  -1.12870
  Beta  occ. eigenvalues --   -1.12850  -1.12834  -1.12777  -1.12728  -1.12692
  Beta  occ. eigenvalues --   -0.18188  -0.12631  -0.12349
  Beta virt. eigenvalues --   -0.07033  -0.05419  -0.05069  -0.04282  -0.02512
  Beta virt. eigenvalues --   -0.02332  -0.01534  -0.01502  -0.01047  -0.00115
  Beta virt. eigenvalues --    0.00051   0.00173   0.00372   0.00844   0.00887

 Mulliken charges and spin densities:
               1          2
     1  Na   0.197458   0.140587
     2  Na   0.003464  -0.005226
     3  Na  -0.146924   0.372202
     4  Na   0.252238   0.110759
     5  Na   0.180496  -0.036226
     6  Na  -0.084725  -0.057203
     7  Na  -0.402009   0.475106
 Sum of Mulliken charges =  -0.00000   1.00000

 Dipole moment (field-independent basis, Debye):
    X=             -0.2368    Y=              0.0347    Z=              0.0213  Tot=              0.2403
 Quadrupole moment (field-independent basis, Debye-Ang):
   XX=            -55.3947   YY=            -64.9327   ZZ=            -72.4983
   XY=              0.0575   XZ=              1.2616   YZ=             -1.0613

 Normal termination of Gaussian 16 at Thu Dec  7 16:33:54 2023.
