 Gaussian 16, Revision B.01,
 Gaussian 16:  ES64L-G16RevB.01 20-Dec-2017

 -------------------------
 #P B3LYP/6-311+g(d) force
 -------------------------

 -----
 DPGEN
 -----
 Symbolic Z-matrix:
 Charge =  0 Multiplicity = 2

                         Standard orientation:
 ---------------------------------------------------------------------
 Center     Atomic      Atomic             Coordinates (Angstroms)
 Number     Number       Type             X           Y           Z
 ---------------------------------------------------------------------
      1         11           0       -2.934118    0.488636    0.020252
      2         11           0       -0.845772    3.174876   -0.106440
      3         11           0        0.294564    0.221670    2.086000
      4         11           0       -1.945441   -2.720530    0.000205
      5         11           0        3.494791    0.981907   -0.161190
      6         11           0       -0.094909    0.146359   -1.718466
      7         11           0        2.030885   -2.292918   -0.120361
 ---------------------------------------------------------------------

 SCF Done:  E(UB3LYP) =  -1136.13249066     A.U. after   19 cycles

 The electronic state is 2-A.
 Alpha  occ. eigenvalues --  -38.44816 -38.44188 -38.43900 -38.43731 -38.43591
 Alpha  occ. eigenvalues --  -38.43580 -38.43452  -2.20569  -2.19983  -2.19767
 Alpha  occ. eigenvalues --   -2.19566  -2.19471  -2.19401  -2.19247  -1.14241
 Alpha  occ. eigenvalues --   -1.14227  -1.14208  -1.13667  -1.13657  -1.13603
 Alpha  occ. eigenvalues --   -1.13464  -1.13434  -1.13401  -1.13233  -1.13192
 Alpha  occ. eigenvalues --   -1.13184  -1.13159  -1.13111  -1.13099  -1.13060
 Alpha  occ. eigenvalues --   -1.13052  -1.13045  -1.12917  -1.12911  -1.12891
 Alpha  occ. eigenvalues --   -0.17918  -0.13083  -0.12033  -0.10429
 Alpha virt. eigenvalues --   -0.06169  -0.05333  -0.04918  -0.03253  -0.02668
 Alpha virt. eigenvalues --   -0.02477  -0.01872  -0.01344  -0.00729  -0.00637
 Alpha virt. eigenvalues --   -0.00050   0.00324   0.00687   0.00754   0.00806

  Beta  occ. eigenvalues --  -38.44817 -38.44183 -38.43895 -38.43633 -38.43589
  Beta  occ. eigenvalues --  -38.43516 -38.43452  -2.20572  -2.19976  -2.19760
  Beta  occ. eigenvalues --   -2.19402  -2.19385  -2.19355  -2.19251  -1.14233
  Beta  occ. eigenvalues --   -1.14229  -1.14213  -1.13658  -1.13638  -1.13602
  Beta  occ. eigenvalues --   -1.13457  -1.13406  -1.13403  -1.13116  -1.13083
  Beta  occ. eigenvalues --   -1.13067  -1.13062  -1.13058  -1.13055  -1.13038
  Beta  occ. eigenvalues --   -1.13016  -1.13000  -1.12921  -1.12900  -1.12894
  Beta  occ. eigenvalues --   -0.17201  -0.12901  -0.11864
  Beta virt. eigenvalues --   -0.06540  -0.06145  -0.05220  -0.04910  -0.02485
  Beta virt. eigenvalues --   -0.01974  -0.01791  -0.01461  -0.01248  -0.00780
  Beta virt. eigenvalues --   -0.00675   0.00116   0.00359   0.00708   0.00812

 Mulliken charges and spin densities:
               1          2
     1  Na   0.233096   0.063092
     2  Na   0.114195  -0.108664
     3  Na  -0.326065   0.740146
     4  Na  -0.109553  -0.053478
     5  Na   0.039281  -0.121320
     6  Na   0.012430   0.510545
     7  Na   0.036617  -0.030322
 Sum of Mulliken charges =  -0.00000   1.00000

 Dipole moment (field-independent basis, Debye):
    X=              0.6595    Y=              0.2253    Z=             -0.0160  Tot=              0.6971
 Quadrupole moment (field-independent basis, Debye-Ang):
   XX=            -56.0998   YY=            -60.6932   ZZ=            -76.4064
   XY=              0.9944   XZ=             -0.9173   YZ=             -0.2252

 Normal termination of Gaussian 16 at Thu Dec  7 23:38:22 2023.
