 Gaussian 16, Revision B.01,
 Gaussian 16:  ES64L-G16RevB.01 20-Dec-2017

 -------------------------
 #P B3LYP/6-311+g(d) force
 -------------------------

 -----
 DPGEN
 -----
 Symbolic Z-matrix:
 Charge =  0 Multiplicity = 2

                         Standard orientation:
 ---------------------------------------------------------------------
 Center     Atomic      Atomic             Coordinates (Angstroms)
 Number     Number       Type             X           Y           Z
 ---------------------------------------------------------------------
      1         11           0        0.318450    1.291073    2.190685
      2         11           0        2.423493   -2.945651   -0.334158
      3         11           0       -4.230884   -0.363650   -0.502321
      4         11           0       -1.055081   -2.268568    0.702992
      5         11           0       -1.516287    0.681968   -0.882226
      6         11           0        3.136281    0.225398   -0.688595
      7         11           0        0.924027    3.379429   -0.486377
 ---------------------------------------------------------------------

 SCF Done:  E(UB3LYP) =  -1136.12269972     A.U. after   20 cycles

 The electronic state is 2-A.
 Alpha  occ. eigenvalues --  -38.44398 -38.44297 -38.44293 -38.44242 -38.43994
 Alpha  occ. eigenvalues --  -38.43881 -38.43424  -2.20221  -2.20133  -2.20097
 Alpha  occ. eigenvalues --   -2.20038  -2.19798  -2.19789  -2.19215  -1.13892
 Alpha  occ. eigenvalues --   -1.13883  -1.13868  -1.13831  -1.13805  -1.13769
 Alpha  occ. eigenvalues --   -1.13766  -1.13746  -1.13720  -1.13700  -1.13693
 Alpha  occ. eigenvalues --   -1.13656  -1.13475  -1.13469  -1.13457  -1.13451
 Alpha  occ. eigenvalues --   -1.13435  -1.13375  -1.12884  -1.12883  -1.12859
 Alpha  occ. eigenvalues --   -0.17274  -0.13440  -0.12499  -0.10484
 Alpha virt. eigenvalues --   -0.06319  -0.05398  -0.05230  -0.03245  -0.02785
 Alpha virt. eigenvalues --   -0.02304  -0.02006  -0.01332  -0.01000  -0.00834
 Alpha virt. eigenvalues --   -0.00231   0.00166   0.00566   0.00614   0.00725

  Beta  occ. eigenvalues --  -38.44319 -38.44271 -38.44261 -38.44203 -38.43990
  Beta  occ. eigenvalues --  -38.43868 -38.43427  -2.20075  -2.20074  -2.20049
  Beta  occ. eigenvalues --   -2.19966  -2.19792  -2.19770  -2.19222  -1.13852
  Beta  occ. eigenvalues --   -1.13785  -1.13775  -1.13769  -1.13728  -1.13725
  Beta  occ. eigenvalues --   -1.13718  -1.13706  -1.13668  -1.13665  -1.13651
  Beta  occ. eigenvalues --   -1.13604  -1.13469  -1.13452  -1.13439  -1.13431
  Beta  occ. eigenvalues --   -1.13422  -1.13360  -1.12890  -1.12882  -1.12856
  Beta  occ. eigenvalues --   -0.16708  -0.13027  -0.12335
  Beta virt. eigenvalues --   -0.07046  -0.05817  -0.05154  -0.05028  -0.02825
  Beta virt. eigenvalues --   -0.02392  -0.01962  -0.01506  -0.01285  -0.00862
  Beta virt. eigenvalues --   -0.00582   0.00037   0.00266   0.00609   0.00757

 Mulliken charges and spin densities:
               1          2
     1  Na   0.095969   0.281721
     2  Na   0.153737  -0.137148
     3  Na   0.711596   0.040667
     4  Na  -0.185818   0.188212
     5  Na  -1.176693   0.106189
     6  Na  -0.305976   0.342404
     7  Na   0.707185   0.177955
 Sum of Mulliken charges =  -0.00000   1.00000

 Dipole moment (field-independent basis, Debye):
    X=             -0.7100    Y=              0.4614    Z=              0.5353  Tot=              1.0018
 Quadrupole moment (field-independent basis, Debye-Ang):
   XX=            -62.6688   YY=            -61.8829   ZZ=            -72.0116
   XY=              4.0429   XZ=             -0.6496   YZ=             -1.4340

 Normal termination of Gaussian 16 at Sun Dec  3 12:34:13 2023.
