 Gaussian 16, Revision B.01,
 Gaussian 16:  ES64L-G16RevB.01 20-Dec-2017

 -------------------------
 #P B3LYP/6-311+g(d) force
 -------------------------

 -----
 DPGEN
 -----
 Symbolic Z-matrix:
 Charge =  0 Multiplicity = 2

                         Standard orientation:
 ---------------------------------------------------------------------
 Center     Atomic      Atomic             Coordinates (Angstroms)
 Number     Number       Type             X           Y           Z
 ---------------------------------------------------------------------
      1         11           0       -0.001547   -1.461603    0.370992
      2         11           0       -9.428416    0.031095   -0.274215
      3         11           0       -6.978713    1.572634    0.316553
      4         11           0       -3.526859   -1.004003   -0.290295
      5         11           0        3.211704   -0.238532    0.145132
      6         11           0        6.820687    0.780710   -0.256303
      7         11           0        9.903144    0.319698   -0.011864
 ---------------------------------------------------------------------

 SCF Done:  E(UB3LYP) =  -1136.10432647     A.U. after   19 cycles

 The electronic state is 2-A.
 Alpha  occ. eigenvalues --  -38.45280 -38.45160 -38.44810 -38.44642 -38.44448
 Alpha  occ. eigenvalues --  -38.44068 -38.43859  -2.21051  -2.20969  -2.20613
 Alpha  occ. eigenvalues --   -2.20442  -2.20242  -2.19823  -2.19646  -1.14702
 Alpha  occ. eigenvalues --   -1.14702  -1.14699  -1.14646  -1.14608  -1.14605
 Alpha  occ. eigenvalues --   -1.14266  -1.14253  -1.14251  -1.14096  -1.14081
 Alpha  occ. eigenvalues --   -1.14081  -1.13894  -1.13894  -1.13854  -1.13512
 Alpha  occ. eigenvalues --   -1.13509  -1.13472  -1.13318  -1.13317  -1.13303
 Alpha  occ. eigenvalues --   -0.14849  -0.14285  -0.13170  -0.11603
 Alpha virt. eigenvalues --   -0.07078  -0.05729  -0.04008  -0.03334  -0.03013
 Alpha virt. eigenvalues --   -0.02821  -0.02527  -0.02238  -0.01844  -0.01287
 Alpha virt. eigenvalues --   -0.00947  -0.00664  -0.00299   0.00186   0.00461

  Beta  occ. eigenvalues --  -38.45185 -38.45134 -38.44815 -38.44589 -38.44368
  Beta  occ. eigenvalues --  -38.44090 -38.43869  -2.20922  -2.20874  -2.20625
  Beta  occ. eigenvalues --   -2.20343  -2.20091  -2.19871  -2.19671  -1.14672
  Beta  occ. eigenvalues --   -1.14582  -1.14581  -1.14576  -1.14573  -1.14529
  Beta  occ. eigenvalues --   -1.14275  -1.14262  -1.14241  -1.14032  -1.14014
  Beta  occ. eigenvalues --   -1.14013  -1.13791  -1.13790  -1.13765  -1.13551
  Beta  occ. eigenvalues --   -1.13547  -1.13458  -1.13340  -1.13339  -1.13282
  Beta  occ. eigenvalues --   -0.14256  -0.13726  -0.12594
  Beta virt. eigenvalues --   -0.08461  -0.06601  -0.05390  -0.03655  -0.03175
  Beta virt. eigenvalues --   -0.02815  -0.02681  -0.02328  -0.02013  -0.01523
  Beta virt. eigenvalues --   -0.01111  -0.00481  -0.00383  -0.00029   0.00311

 Mulliken charges and spin densities:
               1          2
     1  Na  -0.063099  -0.080372
     2  Na   0.169822   0.111200
     3  Na  -0.105154  -0.030651
     4  Na   0.072061   0.513099
     5  Na   0.139079   0.285074
     6  Na  -0.387388  -0.024609
     7  Na   0.174679   0.226259
 Sum of Mulliken charges =  -0.00000   1.00000

 Dipole moment (field-independent basis, Debye):
    X=             -2.2358    Y=              0.0069    Z=             -0.1021  Tot=              2.2381
 Quadrupole moment (field-independent basis, Debye-Ang):
   XX=            -27.4960   YY=            -70.8053   ZZ=            -75.4094
   XY=              2.8542   XZ=              3.3307   YZ=              1.0420

 Normal termination of Gaussian 16 at Sun Dec  3 12:03:32 2023.
