 Gaussian 16, Revision B.01,
 Gaussian 16:  ES64L-G16RevB.01 20-Dec-2017

 -------------------------
 #P B3LYP/6-311+g(d) force
 -------------------------

 -----
 DPGEN
 -----
 Symbolic Z-matrix:
 Charge =  0 Multiplicity = 2

                         Standard orientation:
 ---------------------------------------------------------------------
 Center     Atomic      Atomic             Coordinates (Angstroms)
 Number     Number       Type             X           Y           Z
 ---------------------------------------------------------------------
      1         11           0       -1.043205    2.829937   -0.351551
      2         11           0        0.130057   -0.605915   -1.387354
      3         11           0       -3.439538   -0.064051   -0.432198
      4         11           0        2.898371   -1.831264    0.023321
      5         11           0       -1.319562   -2.634675    0.331599
      6         11           0        3.006928    1.598522   -0.271493
      7         11           0       -0.233051    0.707446    2.087676
 ---------------------------------------------------------------------

 SCF Done:  E(UB3LYP) =  -1136.12909519     A.U. after   20 cycles

 The electronic state is 2-A.
 Alpha  occ. eigenvalues --  -38.44641 -38.44618 -38.44338 -38.43613 -38.43471
 Alpha  occ. eigenvalues --  -38.43375 -38.43240  -2.20442  -2.20393  -2.20137
 Alpha  occ. eigenvalues --   -2.19549  -2.19329  -2.19185  -2.19099  -1.14114
 Alpha  occ. eigenvalues --   -1.14092  -1.14080  -1.14074  -1.14051  -1.14030
 Alpha  occ. eigenvalues --   -1.13818  -1.13796  -1.13771  -1.13310  -1.13217
 Alpha  occ. eigenvalues --   -1.13165  -1.12990  -1.12971  -1.12948  -1.12882
 Alpha  occ. eigenvalues --   -1.12856  -1.12818  -1.12754  -1.12723  -1.12708
 Alpha  occ. eigenvalues --   -0.17971  -0.13299  -0.12087  -0.10168
 Alpha virt. eigenvalues --   -0.06294  -0.05726  -0.04493  -0.03079  -0.02839
 Alpha virt. eigenvalues --   -0.02158  -0.02068  -0.01417  -0.00781  -0.00552
 Alpha virt. eigenvalues --   -0.00052   0.00266   0.00646   0.00755   0.00799

  Beta  occ. eigenvalues --  -38.44623 -38.44613 -38.44339 -38.43584 -38.43462
  Beta  occ. eigenvalues --  -38.43369 -38.43141  -2.20411  -2.20385  -2.20141
  Beta  occ. eigenvalues --   -2.19497  -2.19314  -2.19178  -2.18917  -1.14076
  Beta  occ. eigenvalues --   -1.14073  -1.14061  -1.14060  -1.14047  -1.14023
  Beta  occ. eigenvalues --   -1.13817  -1.13795  -1.13769  -1.13268  -1.13182
  Beta  occ. eigenvalues --   -1.13123  -1.12975  -1.12951  -1.12928  -1.12866
  Beta  occ. eigenvalues --   -1.12839  -1.12810  -1.12634  -1.12601  -1.12579
  Beta  occ. eigenvalues --   -0.17325  -0.13067  -0.11898
  Beta virt. eigenvalues --   -0.06426  -0.06128  -0.05694  -0.04391  -0.02463
  Beta virt. eigenvalues --   -0.02134  -0.01975  -0.01369  -0.01158  -0.00799
  Beta virt. eigenvalues --   -0.00527   0.00134   0.00344   0.00727   0.00773

 Mulliken charges and spin densities:
               1          2
     1  Na  -0.037451  -0.023612
     2  Na  -0.031088   0.266740
     3  Na   0.165974   0.102158
     4  Na   0.201664   0.001989
     5  Na   0.079723   0.061347
     6  Na   0.026264  -0.053379
     7  Na  -0.405085   0.644756
 Sum of Mulliken charges =  -0.00000   1.00000

 Dipole moment (field-independent basis, Debye):
    X=              0.3127    Y=             -0.0803    Z=              0.0398  Tot=              0.3253
 Quadrupole moment (field-independent basis, Debye-Ang):
   XX=            -52.1467   YY=            -64.2294   ZZ=            -76.3739
   XY=              0.3564   XZ=              0.7857   YZ=             -2.9417

 Normal termination of Gaussian 16 at Thu Dec  7 17:19:11 2023.
