 Gaussian 16, Revision B.01,
 Gaussian 16:  ES64L-G16RevB.01 20-Dec-2017

 -------------------------
 #P B3LYP/6-311+g(d) force
 -------------------------

 -----
 DPGEN
 -----
 Symbolic Z-matrix:
 Charge =  0 Multiplicity = 2

                         Standard orientation:
 ---------------------------------------------------------------------
 Center     Atomic      Atomic             Coordinates (Angstroms)
 Number     Number       Type             X           Y           Z
 ---------------------------------------------------------------------
      1         11           0        2.360325   -1.944496    0.175120
      2         11           0        0.059725   -0.217031   -1.615693
      3         11           0        2.827593    1.514941   -0.208643
      4         11           0       -1.425255   -2.596128   -0.339771
      5         11           0       -2.924993    0.351925    0.074206
      6         11           0       -0.080764    0.012102    2.132960
      7         11           0       -0.816630    2.878687   -0.218179
 ---------------------------------------------------------------------

 SCF Done:  E(UB3LYP) =  -1136.13836471     A.U. after   19 cycles

 The electronic state is 2-A.
 Alpha  occ. eigenvalues --  -38.44021 -38.43863 -38.43770 -38.43672 -38.43351
 Alpha  occ. eigenvalues --  -38.43350 -38.43166  -2.19822  -2.19692  -2.19641
 Alpha  occ. eigenvalues --   -2.19559  -2.19227  -2.19186  -2.19156  -1.13501
 Alpha  occ. eigenvalues --   -1.13483  -1.13464  -1.13371  -1.13364  -1.13318
 Alpha  occ. eigenvalues --   -1.13309  -1.13271  -1.13261  -1.13236  -1.13216
 Alpha  occ. eigenvalues --   -1.13210  -1.12994  -1.12877  -1.12868  -1.12852
 Alpha  occ. eigenvalues --   -1.12845  -1.12825  -1.12815  -1.12773  -1.12751
 Alpha  occ. eigenvalues --   -0.18638  -0.13052  -0.12378  -0.10835
 Alpha virt. eigenvalues --   -0.05495  -0.05311  -0.04669  -0.03243  -0.02859
 Alpha virt. eigenvalues --   -0.02659  -0.01426  -0.01172  -0.00388  -0.00344
 Alpha virt. eigenvalues --   -0.00015   0.00363   0.00803   0.00855   0.00908

  Beta  occ. eigenvalues --  -38.44019 -38.43859 -38.43669 -38.43667 -38.43346
  Beta  occ. eigenvalues --  -38.43342 -38.43104  -2.19820  -2.19687  -2.19552
  Beta  occ. eigenvalues --   -2.19456  -2.19214  -2.19182  -2.19045  -1.13490
  Beta  occ. eigenvalues --   -1.13476  -1.13465  -1.13365  -1.13338  -1.13318
  Beta  occ. eigenvalues --   -1.13246  -1.13218  -1.13193  -1.13172  -1.13134
  Beta  occ. eigenvalues --   -1.13121  -1.12963  -1.12863  -1.12852  -1.12838
  Beta  occ. eigenvalues --   -1.12830  -1.12820  -1.12748  -1.12697  -1.12680
  Beta  occ. eigenvalues --   -0.17905  -0.12837  -0.12136
  Beta virt. eigenvalues --   -0.06894  -0.05496  -0.05254  -0.04630  -0.02443
  Beta virt. eigenvalues --   -0.02103  -0.01588  -0.01337  -0.01095  -0.00434
  Beta virt. eigenvalues --   -0.00395   0.00130   0.00388   0.00847   0.00881

 Mulliken charges and spin densities:
               1          2
     1  Na   0.117772  -0.025119
     2  Na  -0.236191   0.400429
     3  Na   0.001401  -0.086550
     4  Na   0.326028   0.001379
     5  Na   0.303608   0.056074
     6  Na  -0.503675   0.729469
     7  Na  -0.008943  -0.075682
 Sum of Mulliken charges =  -0.00000   1.00000

 Dipole moment (field-independent basis, Debye):
    X=              0.3009    Y=             -0.0153    Z=              0.1987  Tot=              0.3609
 Quadrupole moment (field-independent basis, Debye-Ang):
   XX=            -57.6157   YY=            -62.0027   ZZ=            -74.1302
   XY=              0.2735   XZ=              0.1884   YZ=             -0.6233

 Normal termination of Gaussian 16 at Thu Dec  7 03:59:25 2023.
