 Gaussian 16, Revision B.01,
 Gaussian 16:  ES64L-G16RevB.01 20-Dec-2017

 -------------------------
 #P B3LYP/6-311+g(d) force
 -------------------------

 -----
 DPGEN
 -----
 Symbolic Z-matrix:
 Charge =  0 Multiplicity = 2

                         Standard orientation:
 ---------------------------------------------------------------------
 Center     Atomic      Atomic             Coordinates (Angstroms)
 Number     Number       Type             X           Y           Z
 ---------------------------------------------------------------------
      1         11           0       -0.264646    1.428429    0.327568
      2         11           0        1.888144    4.147276   -0.188491
      3         11           0        3.107957    0.567701    0.052257
      4         11           0        0.556631   -2.155107    0.538985
      5         11           0       -2.723334   -0.992509    1.271693
      6         11           0        3.400188   -3.052820   -0.907460
      7         11           0       -5.964940    0.057031   -1.094553
 ---------------------------------------------------------------------

 SCF Done:  E(UB3LYP) =  -1136.12355455     A.U. after   20 cycles

 The electronic state is 2-A.
 Alpha  occ. eigenvalues --  -38.44912 -38.44809 -38.44295 -38.44033 -38.43903
 Alpha  occ. eigenvalues --  -38.43779 -38.43342  -2.20692  -2.20602  -2.20070
 Alpha  occ. eigenvalues --   -2.19868  -2.19705  -2.19629  -2.19130  -1.14325
 Alpha  occ. eigenvalues --   -1.14320  -1.14320  -1.14309  -1.14290  -1.14161
 Alpha  occ. eigenvalues --   -1.13743  -1.13740  -1.13689  -1.13587  -1.13572
 Alpha  occ. eigenvalues --   -1.13435  -1.13387  -1.13366  -1.13337  -1.13329
 Alpha  occ. eigenvalues --   -1.13321  -1.13204  -1.12817  -1.12800  -1.12769
 Alpha  occ. eigenvalues --   -0.16612  -0.13305  -0.12747  -0.11200
 Alpha virt. eigenvalues --   -0.06214  -0.05215  -0.04977  -0.03854  -0.02437
 Alpha virt. eigenvalues --   -0.02194  -0.01994  -0.01737  -0.01684  -0.00964
 Alpha virt. eigenvalues --   -0.00404  -0.00121   0.00059   0.00298   0.00575

  Beta  occ. eigenvalues --  -38.44804 -38.44763 -38.44292 -38.44021 -38.43888
  Beta  occ. eigenvalues --  -38.43761 -38.43347  -2.20592  -2.20413  -2.20064
  Beta  occ. eigenvalues --   -2.19847  -2.19676  -2.19599  -2.19145  -1.14315
  Beta  occ. eigenvalues --   -1.14303  -1.14153  -1.14131  -1.14131  -1.14104
  Beta  occ. eigenvalues --   -1.13738  -1.13735  -1.13686  -1.13573  -1.13558
  Beta  occ. eigenvalues --   -1.13415  -1.13368  -1.13346  -1.13318  -1.13309
  Beta  occ. eigenvalues --   -1.13302  -1.13169  -1.12832  -1.12815  -1.12742
  Beta  occ. eigenvalues --   -0.16330  -0.12686  -0.12419
  Beta virt. eigenvalues --   -0.07267  -0.06096  -0.05096  -0.04486  -0.03733
  Beta virt. eigenvalues --   -0.02322  -0.01874  -0.01650  -0.01394  -0.01217
  Beta virt. eigenvalues --   -0.00673   0.00017   0.00044   0.00249   0.00494

 Mulliken charges and spin densities:
               1          2
     1  Na  -1.765435  -0.011694
     2  Na   1.059701   0.045538
     3  Na  -0.262805   0.118345
     4  Na  -0.745754   0.009792
     5  Na   0.671952  -0.088911
     6  Na   0.915382   0.114827
     7  Na   0.126959   0.812103
 Sum of Mulliken charges =  -0.00000   1.00000

 Dipole moment (field-independent basis, Debye):
    X=              1.5401    Y=              0.5715    Z=             -0.2794  Tot=              1.6663
 Quadrupole moment (field-independent basis, Debye-Ang):
   XX=            -68.2706   YY=            -57.3999   ZZ=            -71.3957
   XY=              0.1175   XZ=             -1.7840   YZ=             -0.2083

 Normal termination of Gaussian 16 at Tue Nov 28 21:49:49 2023.
