 Gaussian 16, Revision B.01,
 Gaussian 16:  ES64L-G16RevB.01 20-Dec-2017

 -------------------------
 #P B3LYP/6-311+g(d) force
 -------------------------

 -----
 DPGEN
 -----
 Symbolic Z-matrix:
 Charge =  0 Multiplicity = 2

                         Standard orientation:
 ---------------------------------------------------------------------
 Center     Atomic      Atomic             Coordinates (Angstroms)
 Number     Number       Type             X           Y           Z
 ---------------------------------------------------------------------
      1         11           0       -0.285445   -0.297552   -1.700261
      2         11           0       -3.074022   -1.211610   -0.008405
      3         11           0        1.368174    2.501604    0.023680
      4         11           0       -2.143693    2.111948   -0.188502
      5         11           0        0.532412   -2.561993   -0.030083
      6         11           0        0.061451   -0.166686    2.204926
      7         11           0        3.541123   -0.375710   -0.301355
 ---------------------------------------------------------------------

 SCF Done:  E(UB3LYP) =  -1136.13238183     A.U. after   19 cycles

 The electronic state is 2-A.
 Alpha  occ. eigenvalues --  -38.44772 -38.44386 -38.43869 -38.43653 -38.43414
 Alpha  occ. eigenvalues --  -38.43181 -38.43180  -2.20536  -2.20203  -2.19737
 Alpha  occ. eigenvalues --   -2.19619  -2.19256  -2.19081  -2.19002  -1.14211
 Alpha  occ. eigenvalues --   -1.14193  -1.14172  -1.13880  -1.13867  -1.13840
 Alpha  occ. eigenvalues --   -1.13406  -1.13374  -1.13363  -1.13349  -1.13273
 Alpha  occ. eigenvalues --   -1.13216  -1.12937  -1.12917  -1.12893  -1.12782
 Alpha  occ. eigenvalues --   -1.12748  -1.12679  -1.12678  -1.12659  -1.12630
 Alpha  occ. eigenvalues --   -0.18437  -0.13043  -0.12119  -0.10891
 Alpha virt. eigenvalues --   -0.06312  -0.05088  -0.04204  -0.03230  -0.02841
 Alpha virt. eigenvalues --   -0.02776  -0.02088  -0.01072  -0.00336  -0.00179
 Alpha virt. eigenvalues --   -0.00094   0.00287   0.00731   0.00785   0.00859

  Beta  occ. eigenvalues --  -38.44769 -38.44385 -38.43761 -38.43595 -38.43411
  Beta  occ. eigenvalues --  -38.43177 -38.43170  -2.20533  -2.20203  -2.19538
  Beta  occ. eigenvalues --   -2.19512  -2.19253  -2.19067  -2.18999  -1.14198
  Beta  occ. eigenvalues --   -1.14192  -1.14171  -1.13872  -1.13859  -1.13838
  Beta  occ. eigenvalues --   -1.13311  -1.13268  -1.13221  -1.13209  -1.13196
  Beta  occ. eigenvalues --   -1.13137  -1.12928  -1.12907  -1.12888  -1.12767
  Beta  occ. eigenvalues --   -1.12701  -1.12679  -1.12657  -1.12653  -1.12632
  Beta  occ. eigenvalues --   -0.17702  -0.12848  -0.11885
  Beta virt. eigenvalues --   -0.06941  -0.06233  -0.05110  -0.04148  -0.02509
  Beta virt. eigenvalues --   -0.02023  -0.01992  -0.01704  -0.01038  -0.00375
  Beta virt. eigenvalues --   -0.00213   0.00068   0.00324   0.00800   0.00853

 Mulliken charges and spin densities:
               1          2
     1  Na  -0.225252   0.488792
     2  Na   0.356817  -0.034007
     3  Na   0.000316  -0.052807
     4  Na   0.028790  -0.052092
     5  Na   0.342434  -0.045756
     6  Na  -0.522740   0.742555
     7  Na   0.019634  -0.046685
 Sum of Mulliken charges =  -0.00000   1.00000

 Dipole moment (field-independent basis, Debye):
    X=              0.0454    Y=             -0.2234    Z=              0.1239  Tot=              0.2595
 Quadrupole moment (field-independent basis, Debye-Ang):
   XX=            -51.5072   YY=            -68.2235   ZZ=            -73.5766
   XY=              0.3824   XZ=             -1.0307   YZ=             -0.2789

 Normal termination of Gaussian 16 at Tue Dec  5 21:43:43 2023.
