 Gaussian 16, Revision B.01,
 Gaussian 16:  ES64L-G16RevB.01 20-Dec-2017

 -------------------------
 #P B3LYP/6-311+g(d) force
 -------------------------

 -----
 DPGEN
 -----
 Symbolic Z-matrix:
 Charge =  0 Multiplicity = 2

                         Standard orientation:
 ---------------------------------------------------------------------
 Center     Atomic      Atomic             Coordinates (Angstroms)
 Number     Number       Type             X           Y           Z
 ---------------------------------------------------------------------
      1         11           0       -0.128473   -1.796943   -0.024579
      2         11           0       -0.082898    0.084940    2.068607
      3         11           0       -2.695901   -0.713908   -0.075814
      4         11           0       -1.396404    1.654637   -0.054498
      5         11           0        0.066088    0.100109   -1.921767
      6         11           0        1.629558    1.630025    0.006288
      7         11           0        2.608029   -0.958861    0.001762
 ---------------------------------------------------------------------

 SCF Done:  E(UB3LYP) =  -1136.08311103     A.U. after   21 cycles

 The electronic state is 2-A.
 Alpha  occ. eigenvalues --  -38.44748 -38.44745 -38.44311 -38.44038 -38.43172
 Alpha  occ. eigenvalues --  -38.43154 -38.43059  -2.20939  -2.20852  -2.20362
 Alpha  occ. eigenvalues --   -2.20065  -2.19346  -2.19296  -2.19272  -1.14745
 Alpha  occ. eigenvalues --   -1.14624  -1.14600  -1.14529  -1.14494  -1.14437
 Alpha  occ. eigenvalues --   -1.14173  -1.14100  -1.13942  -1.13854  -1.13784
 Alpha  occ. eigenvalues --   -1.13663  -1.13083  -1.12990  -1.12961  -1.12955
 Alpha  occ. eigenvalues --   -1.12928  -1.12919  -1.12896  -1.12851  -1.12812
 Alpha  occ. eigenvalues --   -0.21506  -0.14187  -0.12682  -0.12104
 Alpha virt. eigenvalues --   -0.05596  -0.04112  -0.04105  -0.03801  -0.03006
 Alpha virt. eigenvalues --   -0.02895  -0.01442  -0.00335  -0.00238   0.00316
 Alpha virt. eigenvalues --    0.00643   0.00807   0.01063   0.01100   0.01110

  Beta  occ. eigenvalues --  -38.44647 -38.44643 -38.44305 -38.44034 -38.43156
  Beta  occ. eigenvalues --  -38.43142 -38.43037  -2.20761  -2.20661  -2.20356
  Beta  occ. eigenvalues --   -2.20061  -2.19324  -2.19266  -2.19255  -1.14636
  Beta  occ. eigenvalues --   -1.14497  -1.14477  -1.14399  -1.14355  -1.14301
  Beta  occ. eigenvalues --   -1.14170  -1.14100  -1.13898  -1.13856  -1.13786
  Beta  occ. eigenvalues --   -1.13625  -1.13078  -1.12954  -1.12923  -1.12906
  Beta  occ. eigenvalues --   -1.12902  -1.12851  -1.12844  -1.12840  -1.12807
  Beta  occ. eigenvalues --   -0.20611  -0.13823  -0.11748
  Beta virt. eigenvalues --   -0.08483  -0.05606  -0.04109  -0.03395  -0.03119
  Beta virt. eigenvalues --   -0.02205  -0.02103  -0.01348  -0.00311  -0.00048
  Beta virt. eigenvalues --    0.00338   0.00669   0.00795   0.01083   0.01135

 Mulliken charges and spin densities:
               1          2
     1  Na  -0.215754  -0.029447
     2  Na   0.000009   0.546820
     3  Na   0.050326  -0.028556
     4  Na  -0.004951  -0.004047
     5  Na   0.225631   0.530758
     6  Na   0.000531   0.012095
     7  Na  -0.055793  -0.027622
 Sum of Mulliken charges =  -0.00000   1.00000

 Dipole moment (field-independent basis, Debye):
    X=              0.0478    Y=              0.0084    Z=              0.2439  Tot=              0.2487
 Quadrupole moment (field-independent basis, Debye-Ang):
   XX=            -56.7912   YY=            -75.6468   ZZ=            -65.0579
   XY=              0.0681   XZ=              0.2678   YZ=              0.0742

 Normal termination of Gaussian 16 at Thu Dec  7 11:28:53 2023.
