 Gaussian 16, Revision B.01,
 Gaussian 16:  ES64L-G16RevB.01 20-Dec-2017

 -------------------------
 #P B3LYP/6-311+g(d) force
 -------------------------

 -----
 DPGEN
 -----
 Symbolic Z-matrix:
 Charge =  0 Multiplicity = 2

                         Standard orientation:
 ---------------------------------------------------------------------
 Center     Atomic      Atomic             Coordinates (Angstroms)
 Number     Number       Type             X           Y           Z
 ---------------------------------------------------------------------
      1         11           0        1.358936    1.613759    1.875610
      2         11           0       -0.121136    2.365663   -1.326981
      3         11           0        3.877363   -1.957354    0.201636
      4         11           0        2.210581    0.023190   -0.993812
      5         11           0       -0.839091   -0.357223    0.272722
      6         11           0       -2.872511   -1.036707   -1.579083
      7         11           0       -3.614142   -0.651326    1.549908
 ---------------------------------------------------------------------

 SCF Done:  E(UB3LYP) =  -1136.10974455     A.U. after   24 cycles

 The electronic state is 2-A.
 Alpha  occ. eigenvalues --  -38.45038 -38.44802 -38.44722 -38.43853 -38.43316
 Alpha  occ. eigenvalues --  -38.42971 -38.42541  -2.20928  -2.20663  -2.20571
 Alpha  occ. eigenvalues --   -2.19937  -2.19189  -2.18967  -2.18380  -1.14718
 Alpha  occ. eigenvalues --   -1.14563  -1.14526  -1.14358  -1.14299  -1.14266
 Alpha  occ. eigenvalues --   -1.14253  -1.14210  -1.14166  -1.13662  -1.13589
 Alpha  occ. eigenvalues --   -1.13545  -1.12883  -1.12858  -1.12802  -1.12692
 Alpha  occ. eigenvalues --   -1.12649  -1.12606  -1.12041  -1.12010  -1.12001
 Alpha  occ. eigenvalues --   -0.18358  -0.14355  -0.11197  -0.11077
 Alpha virt. eigenvalues --   -0.06184  -0.05724  -0.04593  -0.03023  -0.02758
 Alpha virt. eigenvalues --   -0.02284  -0.01935  -0.01252  -0.00967  -0.00308
 Alpha virt. eigenvalues --    0.00114   0.00162   0.00305   0.00666   0.00725

  Beta  occ. eigenvalues --  -38.45011 -38.44770 -38.44656 -38.43824 -38.43299
  Beta  occ. eigenvalues --  -38.42957 -38.42542  -2.20879  -2.20602  -2.20449
  Beta  occ. eigenvalues --   -2.19896  -2.19161  -2.18943  -2.18383  -1.14684
  Beta  occ. eigenvalues --   -1.14531  -1.14478  -1.14312  -1.14258  -1.14224
  Beta  occ. eigenvalues --   -1.14165  -1.14125  -1.14087  -1.13574  -1.13547
  Beta  occ. eigenvalues --   -1.13523  -1.12862  -1.12840  -1.12765  -1.12674
  Beta  occ. eigenvalues --   -1.12632  -1.12582  -1.12039  -1.12012  -1.12003
  Beta  occ. eigenvalues --   -0.17631  -0.14158  -0.11016
  Beta virt. eigenvalues --   -0.07445  -0.05751  -0.05050  -0.04409  -0.02907
  Beta virt. eigenvalues --   -0.02225  -0.01955  -0.01692  -0.00938  -0.00614
  Beta virt. eigenvalues --   -0.00090   0.00204   0.00266   0.00498   0.00765

 Mulliken charges and spin densities:
               1          2
     1  Na  -0.036434   0.266640
     2  Na   0.747193   0.081256
     3  Na   0.077125  -0.074221
     4  Na   0.484799  -0.035447
     5  Na  -2.085680   0.778230
     6  Na   0.636506  -0.024270
     7  Na   0.176492   0.007813
 Sum of Mulliken charges =  -0.00000   1.00000

 Dipole moment (field-independent basis, Debye):
    X=             -2.4890    Y=              1.0288    Z=              0.4137  Tot=              2.7249
 Quadrupole moment (field-independent basis, Debye-Ang):
   XX=            -62.4946   YY=            -69.9441   ZZ=            -63.2185
   XY=              4.6548   XZ=              3.2438   YZ=              0.4525

 Normal termination of Gaussian 16 at Thu Dec  7 03:17:22 2023.
