 Gaussian 16, Revision B.01,
 Gaussian 16:  ES64L-G16RevB.01 20-Dec-2017

 -------------------------
 #P B3LYP/6-311+g(d) force
 -------------------------

 -----
 DPGEN
 -----
 Symbolic Z-matrix:
 Charge =  0 Multiplicity = 2

                         Standard orientation:
 ---------------------------------------------------------------------
 Center     Atomic      Atomic             Coordinates (Angstroms)
 Number     Number       Type             X           Y           Z
 ---------------------------------------------------------------------
      1         11           0        2.315656    0.372542    0.072491
      2         11           0        0.467203    2.353970    0.046520
      3         11           0        1.065092   -2.104541   -0.005787
      4         11           0       -2.200720    1.098438   -0.057367
      5         11           0       -1.676634   -1.599842   -0.079748
      6         11           0        0.143537    0.001216   -1.710181
      7         11           0       -0.114135   -0.121784    1.734073
 ---------------------------------------------------------------------

 SCF Done:  E(UB3LYP) =  -1136.07567891     A.U. after   19 cycles

 The electronic state is 2-A.
 Alpha  occ. eigenvalues --  -38.44033 -38.44018 -38.43859 -38.43800 -38.43685
 Alpha  occ. eigenvalues --  -38.43608 -38.43601  -2.20331  -2.20297  -2.20047
 Alpha  occ. eigenvalues --   -2.19993  -2.19857  -2.19730  -2.19703  -1.14305
 Alpha  occ. eigenvalues --   -1.14183  -1.14085  -1.14049  -1.14032  -1.13957
 Alpha  occ. eigenvalues --   -1.13945  -1.13836  -1.13694  -1.13654  -1.13602
 Alpha  occ. eigenvalues --   -1.13527  -1.13479  -1.13435  -1.13429  -1.13359
 Alpha  occ. eigenvalues --   -1.13324  -1.13306  -1.13278  -1.13261  -1.13160
 Alpha  occ. eigenvalues --   -0.21911  -0.13645  -0.13492  -0.12279
 Alpha virt. eigenvalues --   -0.04965  -0.04396  -0.04295  -0.03537  -0.03395
 Alpha virt. eigenvalues --   -0.02756  -0.00735  -0.00665  -0.00062   0.00359
 Alpha virt. eigenvalues --    0.00834   0.00902   0.01132   0.01173   0.01205

  Beta  occ. eigenvalues --  -38.43939 -38.43923 -38.43844 -38.43785 -38.43670
  Beta  occ. eigenvalues --  -38.43597 -38.43589  -2.20166  -2.20128  -2.20024
  Beta  occ. eigenvalues --   -2.19969  -2.19837  -2.19715  -2.19688  -1.14241
  Beta  occ. eigenvalues --   -1.14109  -1.14015  -1.13942  -1.13940  -1.13917
  Beta  occ. eigenvalues --   -1.13837  -1.13793  -1.13639  -1.13605  -1.13522
  Beta  occ. eigenvalues --   -1.13461  -1.13441  -1.13421  -1.13359  -1.13348
  Beta  occ. eigenvalues --   -1.13273  -1.13258  -1.13256  -1.13244  -1.13157
  Beta  occ. eigenvalues --   -0.21080  -0.13252  -0.13107
  Beta virt. eigenvalues --   -0.08054  -0.05019  -0.04372  -0.04279  -0.02556
  Beta virt. eigenvalues --   -0.02436  -0.01655  -0.00682  -0.00612   0.00075
  Beta virt. eigenvalues --    0.00380   0.00791   0.00856   0.01170   0.01191

 Mulliken charges and spin densities:
               1          2
     1  Na   0.237351   0.063854
     2  Na   0.145671   0.027811
     3  Na   0.256741   0.035748
     4  Na   0.098638   0.006707
     5  Na   0.261390   0.063714
     6  Na  -0.503801   0.389307
     7  Na  -0.495991   0.412860
 Sum of Mulliken charges =  -0.00000   1.00000

 Dipole moment (field-independent basis, Debye):
    X=             -0.1062    Y=              0.1645    Z=              0.0386  Tot=              0.1995
 Quadrupole moment (field-independent basis, Debye-Ang):
   XX=            -64.3900   YY=            -65.0354   ZZ=            -69.1252
   XY=             -0.4455   XZ=              0.4842   YZ=              0.2220

 Normal termination of Gaussian 16 at Fri Dec  8 18:03:30 2023.
