 Gaussian 16, Revision B.01,
 Gaussian 16:  ES64L-G16RevB.01 20-Dec-2017

 -------------------------
 #P B3LYP/6-311+g(d) force
 -------------------------

 -----
 DPGEN
 -----
 Symbolic Z-matrix:
 Charge =  0 Multiplicity = 2

                         Standard orientation:
 ---------------------------------------------------------------------
 Center     Atomic      Atomic             Coordinates (Angstroms)
 Number     Number       Type             X           Y           Z
 ---------------------------------------------------------------------
      1         11           0       -2.263716   -1.390940   -0.809087
      2         11           0       -5.745419   -0.515850    0.819849
      3         11           0       -3.363422    2.246843   -0.215979
      4         11           0        0.058531    1.120643   -0.360983
      5         11           0        1.140424   -2.106926   -0.021601
      6         11           0        3.069262    0.200547    0.490145
      7         11           0        7.104341    0.445682    0.097656
 ---------------------------------------------------------------------

 SCF Done:  E(UB3LYP) =  -1136.10636393     A.U. after   35 cycles

 The electronic state is 2-A.
 Alpha  occ. eigenvalues --  -38.44964 -38.44897 -38.44708 -38.44632 -38.44497
 Alpha  occ. eigenvalues --  -38.44491 -38.44027  -2.20765  -2.20649  -2.20511
 Alpha  occ. eigenvalues --   -2.20501  -2.20399  -2.20223  -2.19863  -1.14471
 Alpha  occ. eigenvalues --   -1.14462  -1.14364  -1.14321  -1.14309  -1.14268
 Alpha  occ. eigenvalues --   -1.14211  -1.14183  -1.14167  -1.14166  -1.14130
 Alpha  occ. eigenvalues --   -1.14111  -1.14078  -1.14065  -1.13995  -1.13884
 Alpha  occ. eigenvalues --   -1.13883  -1.13835  -1.13574  -1.13536  -1.13472
 Alpha  occ. eigenvalues --   -0.17369  -0.14162  -0.11441  -0.11341
 Alpha virt. eigenvalues --   -0.07664  -0.05887  -0.04319  -0.03978  -0.03155
 Alpha virt. eigenvalues --   -0.02444  -0.02304  -0.01598  -0.01105  -0.00889
 Alpha virt. eigenvalues --   -0.00699  -0.00367  -0.00184   0.00162   0.00499

  Beta  occ. eigenvalues --  -38.44961 -38.44870 -38.44666 -38.44605 -38.44442
  Beta  occ. eigenvalues --  -38.44439 -38.44048  -2.20760  -2.20599  -2.20457
  Beta  occ. eigenvalues --   -2.20428  -2.20299  -2.20126  -2.19904  -1.14465
  Beta  occ. eigenvalues --   -1.14445  -1.14366  -1.14286  -1.14271  -1.14238
  Beta  occ. eigenvalues --   -1.14179  -1.14137  -1.14127  -1.14113  -1.14102
  Beta  occ. eigenvalues --   -1.14043  -1.14021  -1.14004  -1.13900  -1.13817
  Beta  occ. eigenvalues --   -1.13817  -1.13771  -1.13593  -1.13566  -1.13490
  Beta  occ. eigenvalues --   -0.16975  -0.13931  -0.10925
  Beta virt. eigenvalues --   -0.07808  -0.07333  -0.05341  -0.04170  -0.03815
  Beta virt. eigenvalues --   -0.02608  -0.02231  -0.02007  -0.01429  -0.00779
  Beta virt. eigenvalues --   -0.00732  -0.00357  -0.00148  -0.00007   0.00277

 Mulliken charges and spin densities:
               1          2
     1  Na  -0.337170   0.130754
     2  Na   0.170837   0.092607
     3  Na   0.336825  -0.044290
     4  Na  -1.078567   0.561911
     5  Na   0.288956   0.117561
     6  Na   0.455719  -0.091581
     7  Na   0.163400   0.233039
 Sum of Mulliken charges =  -0.00000   1.00000

 Dipole moment (field-independent basis, Debye):
    X=             -2.1079    Y=             -0.6443    Z=             -0.0549  Tot=              2.2049
 Quadrupole moment (field-independent basis, Debye-Ang):
   XX=            -64.2678   YY=            -66.8656   ZZ=            -72.2927
   XY=             -2.5692   XZ=             -3.1263   YZ=             -0.2924

 Normal termination of Gaussian 16 at Tue Nov 28 22:53:23 2023.
