 Gaussian 16, Revision B.01,
 Gaussian 16:  ES64L-G16RevB.01 20-Dec-2017

 -------------------------
 #P B3LYP/6-311+g(d) force
 -------------------------

 -----
 DPGEN
 -----
 Symbolic Z-matrix:
 Charge =  0 Multiplicity = 2

                         Standard orientation:
 ---------------------------------------------------------------------
 Center     Atomic      Atomic             Coordinates (Angstroms)
 Number     Number       Type             X           Y           Z
 ---------------------------------------------------------------------
      1         11           0        1.397367   -2.825072   -0.108185
      2         11           0       -2.902373   -1.678400   -0.145481
      3         11           0       -0.131979   -0.209553    2.006279
      4         11           0       -2.655050    1.795973    0.064791
      5         11           0        1.060442    2.789417   -0.166521
      6         11           0       -0.125246   -0.123662   -1.689815
      7         11           0        3.356839    0.251297    0.038932
 ---------------------------------------------------------------------

 SCF Done:  E(UB3LYP) =  -1136.13536967     A.U. after   20 cycles

 The electronic state is 2-A.
 Alpha  occ. eigenvalues --  -38.44568 -38.44446 -38.44144 -38.43576 -38.43554
 Alpha  occ. eigenvalues --  -38.43328 -38.43142  -2.20360  -2.20241  -2.19952
 Alpha  occ. eigenvalues --   -2.19412  -2.19377  -2.19240  -2.18966  -1.14035
 Alpha  occ. eigenvalues --   -1.14019  -1.14002  -1.13915  -1.13899  -1.13886
 Alpha  occ. eigenvalues --   -1.13626  -1.13614  -1.13590  -1.13090  -1.13060
 Alpha  occ. eigenvalues --   -1.13052  -1.13034  -1.13020  -1.13015  -1.12929
 Alpha  occ. eigenvalues --   -1.12874  -1.12860  -1.12643  -1.12630  -1.12604
 Alpha  occ. eigenvalues --   -0.18101  -0.13166  -0.12027  -0.10380
 Alpha virt. eigenvalues --   -0.06146  -0.05612  -0.04551  -0.03211  -0.02627
 Alpha virt. eigenvalues --   -0.02417  -0.01896  -0.01353  -0.00769  -0.00501
 Alpha virt. eigenvalues --   -0.00033   0.00330   0.00695   0.00768   0.00848

  Beta  occ. eigenvalues --  -38.44568 -38.44442 -38.44140 -38.43573 -38.43462
  Beta  occ. eigenvalues --  -38.43262 -38.43139  -2.20363  -2.20237  -2.19948
  Beta  occ. eigenvalues --   -2.19376  -2.19241  -2.19119  -2.18962  -1.14025
  Beta  occ. eigenvalues --   -1.14019  -1.14006  -1.13902  -1.13887  -1.13886
  Beta  occ. eigenvalues --   -1.13614  -1.13599  -1.13592  -1.13054  -1.13028
  Beta  occ. eigenvalues --   -1.13017  -1.12971  -1.12916  -1.12904  -1.12844
  Beta  occ. eigenvalues --   -1.12787  -1.12773  -1.12637  -1.12612  -1.12603
  Beta  occ. eigenvalues --   -0.17385  -0.12988  -0.11809
  Beta virt. eigenvalues --   -0.06502  -0.06098  -0.05595  -0.04520  -0.02459
  Beta virt. eigenvalues --   -0.01904  -0.01792  -0.01378  -0.01269  -0.00828
  Beta virt. eigenvalues --   -0.00542   0.00123   0.00359   0.00757   0.00771

 Mulliken charges and spin densities:
               1          2
     1  Na   0.051250  -0.150611
     2  Na   0.169175  -0.113084
     3  Na  -0.332477   0.782836
     4  Na   0.106999  -0.020897
     5  Na  -0.012662  -0.081006
     6  Na  -0.052233   0.619626
     7  Na   0.069948  -0.036865
 Sum of Mulliken charges =  -0.00000   1.00000

 Dipole moment (field-independent basis, Debye):
    X=             -0.1973    Y=             -0.2143    Z=              0.0606  Tot=              0.2975
 Quadrupole moment (field-independent basis, Debye-Ang):
   XX=            -52.2048   YY=            -63.4602   ZZ=            -76.6566
   XY=              0.0514   XZ=              0.1758   YZ=              0.3019

 Normal termination of Gaussian 16 at Fri Dec  8 04:28:03 2023.
