 Gaussian 16, Revision B.01,
 Gaussian 16:  ES64L-G16RevB.01 20-Dec-2017

 -------------------------
 #P B3LYP/6-311+g(d) force
 -------------------------

 -----
 DPGEN
 -----
 Symbolic Z-matrix:
 Charge =  0 Multiplicity = 2

                         Standard orientation:
 ---------------------------------------------------------------------
 Center     Atomic      Atomic             Coordinates (Angstroms)
 Number     Number       Type             X           Y           Z
 ---------------------------------------------------------------------
      1         11           0        0.099598   -0.114829    2.155135
      2         11           0        0.386814    0.186686   -1.630303
      3         11           0       -1.483299   -2.647199   -0.028082
      4         11           0        3.051494    1.259236    0.060931
      5         11           0        2.023567   -2.136213   -0.283051
      6         11           0       -3.185915    0.186072   -0.225023
      7         11           0       -0.892259    3.266246   -0.049606
 ---------------------------------------------------------------------

 SCF Done:  E(UB3LYP) =  -1136.13427903     A.U. after   20 cycles

 The electronic state is 2-A.
 Alpha  occ. eigenvalues --  -38.44414 -38.44109 -38.43999 -38.43745 -38.43687
 Alpha  occ. eigenvalues --  -38.43367 -38.43349  -2.20217  -2.19908  -2.19755
 Alpha  occ. eigenvalues --   -2.19592  -2.19558  -2.19303  -2.19191  -1.13899
 Alpha  occ. eigenvalues --   -1.13876  -1.13854  -1.13585  -1.13577  -1.13544
 Alpha  occ. eigenvalues --   -1.13434  -1.13410  -1.13399  -1.13290  -1.13255
 Alpha  occ. eigenvalues --   -1.13225  -1.13211  -1.13201  -1.13178  -1.12984
 Alpha  occ. eigenvalues --   -1.12932  -1.12925  -1.12857  -1.12853  -1.12839
 Alpha  occ. eigenvalues --   -0.18183  -0.12930  -0.12250  -0.10605
 Alpha virt. eigenvalues --   -0.06021  -0.05164  -0.04946  -0.03140  -0.02788
 Alpha virt. eigenvalues --   -0.02604  -0.01614  -0.01309  -0.00716  -0.00515
 Alpha virt. eigenvalues --   -0.00029   0.00342   0.00764   0.00795   0.00843

  Beta  occ. eigenvalues --  -38.44412 -38.44107 -38.44001 -38.43676 -38.43641
  Beta  occ. eigenvalues --  -38.43346 -38.43311  -2.20215  -2.19905  -2.19761
  Beta  occ. eigenvalues --   -2.19542  -2.19400  -2.19200  -2.19188  -1.13890
  Beta  occ. eigenvalues --   -1.13864  -1.13853  -1.13581  -1.13564  -1.13545
  Beta  occ. eigenvalues --   -1.13427  -1.13414  -1.13405  -1.13269  -1.13181
  Beta  occ. eigenvalues --   -1.13172  -1.13123  -1.13080  -1.13074  -1.12915
  Beta  occ. eigenvalues --   -1.12867  -1.12851  -1.12847  -1.12839  -1.12827
  Beta  occ. eigenvalues --   -0.17456  -0.12733  -0.12066
  Beta virt. eigenvalues --   -0.06661  -0.06022  -0.05069  -0.04923  -0.02383
  Beta virt. eigenvalues --   -0.02080  -0.01549  -0.01527  -0.01213  -0.00754
  Beta virt. eigenvalues --   -0.00570   0.00130   0.00380   0.00766   0.00842

 Mulliken charges and spin densities:
               1          2
     1  Na  -0.473865   0.807218
     2  Na  -0.052296   0.387347
     3  Na   0.102331  -0.000909
     4  Na   0.108781  -0.079181
     5  Na   0.387428   0.050559
     6  Na  -0.000233  -0.055175
     7  Na  -0.072145  -0.109859
 Sum of Mulliken charges =  -0.00000   1.00000

 Dipole moment (field-independent basis, Debye):
    X=              0.3041    Y=              0.2839    Z=              0.1018  Tot=              0.4283
 Quadrupole moment (field-independent basis, Debye-Ang):
   XX=            -56.8881   YY=            -61.0177   ZZ=            -75.5594
   XY=              0.7563   XZ=              0.6349   YZ=              0.8038

 Normal termination of Gaussian 16 at Thu Dec  7 19:24:37 2023.
