 Gaussian 16, Revision B.01,
 Gaussian 16:  ES64L-G16RevB.01 20-Dec-2017

 -------------------------
 #P B3LYP/6-311+g(d) force
 -------------------------

 -----
 DPGEN
 -----
 Symbolic Z-matrix:
 Charge =  0 Multiplicity = 2

                         Standard orientation:
 ---------------------------------------------------------------------
 Center     Atomic      Atomic             Coordinates (Angstroms)
 Number     Number       Type             X           Y           Z
 ---------------------------------------------------------------------
      1         11           0        1.407024    2.192262    0.075998
      2         11           0       -0.407982   -0.442820    2.407517
      3         11           0        3.449619   -0.517461    0.270807
      4         11           0        0.808786   -2.172843   -0.731823
      5         11           0       -2.840699   -1.759869   -0.047100
      6         11           0       -0.364161    0.486494   -2.165019
      7         11           0       -2.052587    2.214237    0.189620
 ---------------------------------------------------------------------

 SCF Done:  E(UB3LYP) =  -1136.13217465     A.U. after   19 cycles

 The electronic state is 2-A.
 Alpha  occ. eigenvalues --  -38.44854 -38.44234 -38.43970 -38.43921 -38.43532
 Alpha  occ. eigenvalues --  -38.43246 -38.43159  -2.20663  -2.20137  -2.19744
 Alpha  occ. eigenvalues --   -2.19734  -2.19359  -2.19118  -2.19020  -1.14315
 Alpha  occ. eigenvalues --   -1.14297  -1.14281  -1.13817  -1.13768  -1.13754
 Alpha  occ. eigenvalues --   -1.13416  -1.13410  -1.13403  -1.13394  -1.13390
 Alpha  occ. eigenvalues --   -1.13388  -1.13037  -1.13027  -1.12989  -1.12828
 Alpha  occ. eigenvalues --   -1.12780  -1.12722  -1.12713  -1.12694  -1.12634
 Alpha  occ. eigenvalues --   -0.18203  -0.12756  -0.11955  -0.11691
 Alpha virt. eigenvalues --   -0.05814  -0.05168  -0.04069  -0.03555  -0.03407
 Alpha virt. eigenvalues --   -0.03186  -0.01578  -0.01037  -0.00284  -0.00010
 Alpha virt. eigenvalues --    0.00090   0.00355   0.00470   0.00679   0.00898

  Beta  occ. eigenvalues --  -38.44763 -38.44152 -38.43975 -38.43922 -38.43528
  Beta  occ. eigenvalues --  -38.43225 -38.43153  -2.20494  -2.19988  -2.19756
  Beta  occ. eigenvalues --   -2.19738  -2.19355  -2.19083  -2.19011  -1.14203
  Beta  occ. eigenvalues --   -1.14176  -1.14160  -1.13718  -1.13663  -1.13645
  Beta  occ. eigenvalues --   -1.13416  -1.13412  -1.13407  -1.13402  -1.13393
  Beta  occ. eigenvalues --   -1.13382  -1.13028  -1.13016  -1.12986  -1.12793
  Beta  occ. eigenvalues --   -1.12740  -1.12704  -1.12703  -1.12673  -1.12631
  Beta  occ. eigenvalues --   -0.17399  -0.12607  -0.11763
  Beta virt. eigenvalues --   -0.07737  -0.05577  -0.05189  -0.03764  -0.02840
  Beta virt. eigenvalues --   -0.02776  -0.02288  -0.01492  -0.00984  -0.00118
  Beta virt. eigenvalues --   -0.00001   0.00084   0.00384   0.00746   0.00789

 Mulliken charges and spin densities:
               1          2
     1  Na   0.041040   0.098881
     2  Na  -0.551125   0.664369
     3  Na   0.073623  -0.085765
     4  Na   0.151654   0.105420
     5  Na   0.155790  -0.123312
     6  Na  -0.034346   0.354961
     7  Na   0.163364  -0.014553
 Sum of Mulliken charges =  -0.00000   1.00000

 Dipole moment (field-independent basis, Debye):
    X=             -0.2972    Y=             -0.0368    Z=              0.3355  Tot=              0.4497
 Quadrupole moment (field-independent basis, Debye-Ang):
   XX=            -57.4791   YY=            -71.3756   ZZ=            -67.3274
   XY=             -0.0495   XZ=              0.9827   YZ=              1.0638

 Normal termination of Gaussian 16 at Sun Dec  3 16:56:19 2023.
