 Gaussian 16, Revision B.01,
 Gaussian 16:  ES64L-G16RevB.01 20-Dec-2017

 -------------------------
 #P B3LYP/6-311+g(d) force
 -------------------------

 -----
 DPGEN
 -----
 Symbolic Z-matrix:
 Charge =  0 Multiplicity = 2

                         Standard orientation:
 ---------------------------------------------------------------------
 Center     Atomic      Atomic             Coordinates (Angstroms)
 Number     Number       Type             X           Y           Z
 ---------------------------------------------------------------------
      1         11           0       -2.836903    0.710398   -0.176738
      2         11           0       -0.066931    0.082671   -1.596622
      3         11           0       -0.341749    0.088469    2.146737
      4         11           0        0.007288    2.957957   -0.098296
      5         11           0        2.965837    0.847384   -0.093844
      6         11           0       -1.450997   -2.392212   -0.225799
      7         11           0        1.723455   -2.294667    0.044562
 ---------------------------------------------------------------------

 SCF Done:  E(UB3LYP) =  -1136.13878302     A.U. after   19 cycles

 The electronic state is 2-A.
 Alpha  occ. eigenvalues --  -38.43741 -38.43690 -38.43603 -38.43602 -38.43339
 Alpha  occ. eigenvalues --  -38.43290 -38.43073  -2.19630  -2.19518  -2.19492
 Alpha  occ. eigenvalues --   -2.19453  -2.19224  -2.19211  -2.19116  -1.13297
 Alpha  occ. eigenvalues --   -1.13260  -1.13253  -1.13206  -1.13199  -1.13183
 Alpha  occ. eigenvalues --   -1.13170  -1.13152  -1.13146  -1.13123  -1.13109
 Alpha  occ. eigenvalues --   -1.13067  -1.12989  -1.12911  -1.12885  -1.12876
 Alpha  occ. eigenvalues --   -1.12849  -1.12797  -1.12777  -1.12732  -1.12724
 Alpha  occ. eigenvalues --   -0.19031  -0.12877  -0.12779  -0.10984
 Alpha virt. eigenvalues --   -0.05371  -0.04883  -0.04863  -0.03099  -0.03028
 Alpha virt. eigenvalues --   -0.02757  -0.01244  -0.01108  -0.00247  -0.00123
 Alpha virt. eigenvalues --   -0.00018   0.00366   0.00889   0.00898   0.00945

  Beta  occ. eigenvalues --  -38.43689 -38.43639 -38.43599 -38.43593 -38.43335
  Beta  occ. eigenvalues --  -38.43281 -38.43009  -2.19520  -2.19482  -2.19449
  Beta  occ. eigenvalues --   -2.19440  -2.19220  -2.19200  -2.19001  -1.13210
  Beta  occ. eigenvalues --   -1.13199  -1.13174  -1.13171  -1.13161  -1.13147
  Beta  occ. eigenvalues --   -1.13135  -1.13121  -1.13116  -1.13093  -1.13087
  Beta  occ. eigenvalues --   -1.13067  -1.12980  -1.12893  -1.12879  -1.12854
  Beta  occ. eigenvalues --   -1.12820  -1.12796  -1.12704  -1.12652  -1.12642
  Beta  occ. eigenvalues --   -0.18283  -0.12642  -0.12533
  Beta virt. eigenvalues --   -0.06991  -0.05377  -0.04886  -0.04805  -0.02289
  Beta virt. eigenvalues --   -0.02230  -0.01635  -0.01175  -0.01039  -0.00302
  Beta virt. eigenvalues --   -0.00181   0.00132   0.00389   0.00894   0.00924

 Mulliken charges and spin densities:
               1          2
     1  Na   0.449804  -0.008454
     2  Na  -0.441038   0.313402
     3  Na  -0.722124   0.769460
     4  Na   0.165056  -0.066535
     5  Na   0.056019  -0.050589
     6  Na   0.391125   0.043575
     7  Na   0.101157  -0.000859
 Sum of Mulliken charges =  -0.00000   1.00000

 Dipole moment (field-independent basis, Debye):
    X=             -0.0035    Y=              0.2569    Z=              0.2519  Tot=              0.3598
 Quadrupole moment (field-independent basis, Debye-Ang):
   XX=            -59.4656   YY=            -61.4028   ZZ=            -73.2772
   XY=              0.0476   XZ=              0.6327   YZ=             -0.0167

 Normal termination of Gaussian 16 at Thu Dec  7 02:50:05 2023.
