 Gaussian 16, Revision B.01,
 Gaussian 16:  ES64L-G16RevB.01 20-Dec-2017

 -------------------------
 #P B3LYP/6-311+g(d) force
 -------------------------

 -----
 DPGEN
 -----
 Symbolic Z-matrix:
 Charge =  0 Multiplicity = 2

                         Standard orientation:
 ---------------------------------------------------------------------
 Center     Atomic      Atomic             Coordinates (Angstroms)
 Number     Number       Type             X           Y           Z
 ---------------------------------------------------------------------
      1         11           0        1.897728   -0.693198    1.450248
      2         11           0        0.017343   -0.658073   -1.456347
      3         11           0       -2.715393    1.877751   -0.385758
      4         11           0       -1.301194   -0.344094    1.814932
      5         11           0        3.869964   -0.644747   -0.829293
      6         11           0       -3.262407   -1.636210   -0.564211
      7         11           0        1.493959    2.098571   -0.029572
 ---------------------------------------------------------------------

 SCF Done:  E(UB3LYP) =  -1136.11608603     A.U. after   31 cycles

 The electronic state is 2-A.
 Alpha  occ. eigenvalues --  -38.45009 -38.44738 -38.44489 -38.44014 -38.43889
 Alpha  occ. eigenvalues --  -38.43477 -38.43161  -2.20869  -2.20581  -2.20295
 Alpha  occ. eigenvalues --   -2.20002  -2.19824  -2.19316  -2.19020  -1.14599
 Alpha  occ. eigenvalues --   -1.14524  -1.14477  -1.14304  -1.14217  -1.14207
 Alpha  occ. eigenvalues --   -1.13987  -1.13947  -1.13911  -1.13712  -1.13646
 Alpha  occ. eigenvalues --   -1.13619  -1.13510  -1.13460  -1.13418  -1.12989
 Alpha  occ. eigenvalues --   -1.12968  -1.12962  -1.12718  -1.12707  -1.12614
 Alpha  occ. eigenvalues --   -0.18749  -0.14632  -0.11424  -0.10459
 Alpha virt. eigenvalues --   -0.07125  -0.05495  -0.04855  -0.03123  -0.02858
 Alpha virt. eigenvalues --   -0.02301  -0.02003  -0.01186  -0.01049  -0.00316
 Alpha virt. eigenvalues --    0.00058   0.00254   0.00295   0.00539   0.00626

  Beta  occ. eigenvalues --  -38.44986 -38.44722 -38.44471 -38.43957 -38.43814
  Beta  occ. eigenvalues --  -38.43475 -38.43153  -2.20829  -2.20552  -2.20262
  Beta  occ. eigenvalues --   -2.19905  -2.19689  -2.19315  -2.19006  -1.14559
  Beta  occ. eigenvalues --   -1.14491  -1.14448  -1.14285  -1.14197  -1.14181
  Beta  occ. eigenvalues --   -1.13961  -1.13924  -1.13888  -1.13631  -1.13576
  Beta  occ. eigenvalues --   -1.13535  -1.13418  -1.13347  -1.13330  -1.12982
  Beta  occ. eigenvalues --   -1.12966  -1.12958  -1.12712  -1.12682  -1.12603
  Beta  occ. eigenvalues --   -0.18019  -0.14444  -0.10307
  Beta virt. eigenvalues --   -0.07365  -0.06931  -0.05403  -0.04255  -0.02763
  Beta virt. eigenvalues --   -0.02704  -0.01650  -0.01507  -0.01075  -0.00599
  Beta virt. eigenvalues --   -0.00232   0.00094   0.00285   0.00426   0.00646

 Mulliken charges and spin densities:
               1          2
     1  Na  -0.067697   0.013466
     2  Na  -0.672060   0.380081
     3  Na  -0.138665   0.078465
     4  Na  -0.001753   0.233261
     5  Na   0.931208   0.182341
     6  Na   0.408306   0.009528
     7  Na  -0.459339   0.102859
 Sum of Mulliken charges =  -0.00000   1.00000

 Dipole moment (field-independent basis, Debye):
    X=              0.2235    Y=              0.4122    Z=             -0.3065  Tot=              0.5602
 Quadrupole moment (field-independent basis, Debye-Ang):
   XX=            -48.8250   YY=            -77.8803   ZZ=            -69.1614
   XY=             -1.0940   XZ=             -1.1742   YZ=             -1.7698

 Normal termination of Gaussian 16 at Fri Dec  8 00:59:03 2023.
