 Gaussian 16, Revision B.01,
 Gaussian 16:  ES64L-G16RevB.01 20-Dec-2017

 -------------------------
 #P B3LYP/6-311+g(d) force
 -------------------------

 -----
 DPGEN
 -----
 Symbolic Z-matrix:
 Charge =  0 Multiplicity = 2

                         Standard orientation:
 ---------------------------------------------------------------------
 Center     Atomic      Atomic             Coordinates (Angstroms)
 Number     Number       Type             X           Y           Z
 ---------------------------------------------------------------------
      1         11           0        0.170460   -0.274800    2.062485
      2         11           0       -1.099791    1.248466   -1.117662
      3         11           0       -3.899740    0.722367    0.591908
      4         11           0        2.049015    2.401499   -0.199881
      5         11           0        3.922123   -0.951254    0.391929
      6         11           0       -2.186922   -1.960088   -0.435120
      7         11           0        1.044855   -1.186189   -1.293658
 ---------------------------------------------------------------------

 SCF Done:  E(UB3LYP) =  -1136.11634288     A.U. after   29 cycles

 The electronic state is 2-A.
 Alpha  occ. eigenvalues --  -38.46195 -38.45293 -38.45125 -38.43495 -38.43053
 Alpha  occ. eigenvalues --  -38.42969 -38.42720  -2.21964  -2.21071  -2.20941
 Alpha  occ. eigenvalues --   -2.19365  -2.18985  -2.18770  -2.18660  -1.15660
 Alpha  occ. eigenvalues --   -1.15607  -1.15579  -1.14752  -1.14715  -1.14697
 Alpha  occ. eigenvalues --   -1.14605  -1.14594  -1.14573  -1.13049  -1.13025
 Alpha  occ. eigenvalues --   -1.13007  -1.12703  -1.12631  -1.12597  -1.12448
 Alpha  occ. eigenvalues --   -1.12441  -1.12416  -1.12356  -1.12325  -1.12260
 Alpha  occ. eigenvalues --   -0.18330  -0.14082  -0.10956  -0.10754
 Alpha virt. eigenvalues --   -0.07762  -0.05296  -0.04316  -0.03247  -0.02991
 Alpha virt. eigenvalues --   -0.02354  -0.02188  -0.01287  -0.01117  -0.00443
 Alpha virt. eigenvalues --   -0.00131   0.00147   0.00256   0.00589   0.00642

  Beta  occ. eigenvalues --  -38.46157 -38.45269 -38.45098 -38.43479 -38.42998
  Beta  occ. eigenvalues --  -38.42969 -38.42681  -2.21893  -2.21027  -2.20889
  Beta  occ. eigenvalues --   -2.19340  -2.18891  -2.18774  -2.18595  -1.15606
  Beta  occ. eigenvalues --   -1.15561  -1.15524  -1.14719  -1.14687  -1.14665
  Beta  occ. eigenvalues --   -1.14572  -1.14558  -1.14535  -1.13027  -1.13012
  Beta  occ. eigenvalues --   -1.12966  -1.12633  -1.12546  -1.12531  -1.12448
  Beta  occ. eigenvalues --   -1.12433  -1.12415  -1.12313  -1.12248  -1.12217
  Beta  occ. eigenvalues --   -0.17619  -0.13802  -0.10547
  Beta virt. eigenvalues --   -0.07497  -0.07149  -0.05307  -0.03754  -0.02884
  Beta virt. eigenvalues --   -0.02829  -0.01709  -0.01603  -0.01230  -0.00738
  Beta virt. eigenvalues --   -0.00393  -0.00058   0.00176   0.00422   0.00664

 Mulliken charges and spin densities:
               1          2
     1  Na  -0.374265   0.330066
     2  Na  -0.283832   0.082892
     3  Na   0.339395   0.238756
     4  Na  -0.142637  -0.069464
     5  Na   0.324873   0.232212
     6  Na   0.285432   0.079371
     7  Na  -0.148965   0.106167
 Sum of Mulliken charges =  -0.00000   1.00000

 Dipole moment (field-independent basis, Debye):
    X=             -0.0147    Y=             -0.2855    Z=              0.8989  Tot=              0.9432
 Quadrupole moment (field-independent basis, Debye-Ang):
   XX=            -45.7288   YY=            -78.4836   ZZ=            -69.4042
   XY=             -0.0997   XZ=             -0.5885   YZ=              1.3299

 Normal termination of Gaussian 16 at Thu Dec  7 09:10:26 2023.
