 Gaussian 16, Revision B.01,
 Gaussian 16:  ES64L-G16RevB.01 20-Dec-2017

 -------------------------
 #P B3LYP/6-311+g(d) force
 -------------------------

 -----
 DPGEN
 -----
 Symbolic Z-matrix:
 Charge =  0 Multiplicity = 2

                         Standard orientation:
 ---------------------------------------------------------------------
 Center     Atomic      Atomic             Coordinates (Angstroms)
 Number     Number       Type             X           Y           Z
 ---------------------------------------------------------------------
      1         11           0       -0.429154   -0.210784    2.092579
      2         11           0        0.467396    3.041421   -0.362660
      3         11           0       -2.269101   -2.361638   -0.473125
      4         11           0        3.125669    0.604585    0.075928
      5         11           0       -2.832853    1.606711    0.000356
      6         11           0        0.193540   -0.300991   -1.343176
      7         11           0        1.744504   -2.379304    0.010098
 ---------------------------------------------------------------------

 SCF Done:  E(UB3LYP) =  -1136.13304695     A.U. after   19 cycles

 The electronic state is 2-A.
 Alpha  occ. eigenvalues --  -38.44309 -38.44009 -38.43894 -38.43892 -38.43521
 Alpha  occ. eigenvalues --  -38.43458 -38.42997  -2.20093  -2.19810  -2.19785
 Alpha  occ. eigenvalues --   -2.19736  -2.19332  -2.19323  -2.19025  -1.13772
 Alpha  occ. eigenvalues --   -1.13752  -1.13732  -1.13563  -1.13495  -1.13461
 Alpha  occ. eigenvalues --   -1.13450  -1.13443  -1.13421  -1.13399  -1.13389
 Alpha  occ. eigenvalues --   -1.13341  -1.13016  -1.13000  -1.12992  -1.12962
 Alpha  occ. eigenvalues --   -1.12944  -1.12937  -1.12717  -1.12670  -1.12629
 Alpha  occ. eigenvalues --   -0.18388  -0.12969  -0.12495  -0.10355
 Alpha virt. eigenvalues --   -0.05793  -0.05475  -0.04843  -0.03073  -0.02685
 Alpha virt. eigenvalues --   -0.02258  -0.01621  -0.01420  -0.00605  -0.00564
 Alpha virt. eigenvalues --   -0.00004   0.00323   0.00757   0.00786   0.00855

  Beta  occ. eigenvalues --  -38.44308 -38.43995 -38.43892 -38.43885 -38.43516
  Beta  occ. eigenvalues --  -38.43358 -38.42951  -2.20094  -2.19788  -2.19776
  Beta  occ. eigenvalues --   -2.19735  -2.19322  -2.19139  -2.18943  -1.13754
  Beta  occ. eigenvalues --   -1.13752  -1.13736  -1.13555  -1.13469  -1.13444
  Beta  occ. eigenvalues --   -1.13437  -1.13428  -1.13398  -1.13393  -1.13377
  Beta  occ. eigenvalues --   -1.13339  -1.13003  -1.12982  -1.12958  -1.12874
  Beta  occ. eigenvalues --   -1.12817  -1.12803  -1.12650  -1.12610  -1.12566
  Beta  occ. eigenvalues --   -0.17707  -0.12771  -0.12239
  Beta virt. eigenvalues --   -0.06488  -0.05752  -0.05417  -0.04778  -0.02311
  Beta virt. eigenvalues --   -0.02019  -0.01525  -0.01359  -0.01210  -0.00619
  Beta virt. eigenvalues --   -0.00615   0.00163   0.00375   0.00788   0.00811

 Mulliken charges and spin densities:
               1          2
     1  Na  -0.444153   0.696140
     2  Na   0.057362   0.002047
     3  Na   0.156235  -0.002608
     4  Na   0.116078   0.047487
     5  Na   0.080189  -0.025522
     6  Na  -0.500685   0.217525
     7  Na   0.534974   0.064930
 Sum of Mulliken charges =  -0.00000   1.00000

 Dipole moment (field-independent basis, Debye):
    X=             -0.2142    Y=             -0.0790    Z=              0.1812  Tot=              0.2915
 Quadrupole moment (field-independent basis, Debye-Ang):
   XX=            -54.8435   YY=            -60.5839   ZZ=            -76.6838
   XY=              0.0792   XZ=              1.4075   YZ=             -0.1323

 Normal termination of Gaussian 16 at Thu Dec  7 06:10:44 2023.
