 Gaussian 16, Revision B.01,
 Gaussian 16:  ES64L-G16RevB.01 20-Dec-2017

 -------------------------
 #P B3LYP/6-311+g(d) force
 -------------------------

 -----
 DPGEN
 -----
 Symbolic Z-matrix:
 Charge =  0 Multiplicity = 2

                         Standard orientation:
 ---------------------------------------------------------------------
 Center     Atomic      Atomic             Coordinates (Angstroms)
 Number     Number       Type             X           Y           Z
 ---------------------------------------------------------------------
      1         11           0       -3.051657    0.840771   -0.374817
      2         11           0        0.248331   -0.062370    2.112690
      3         11           0        1.800920   -2.404650   -0.308774
      4         11           0        0.129594    2.875260    0.280929
      5         11           0        2.971324    0.723940   -0.287225
      6         11           0       -0.099768    0.234189   -1.653085
      7         11           0       -1.998743   -2.207140    0.230282
 ---------------------------------------------------------------------

 SCF Done:  E(UB3LYP) =  -1136.13923706     A.U. after   19 cycles

 The electronic state is 2-A.
 Alpha  occ. eigenvalues --  -38.43963 -38.43941 -38.43739 -38.43536 -38.43406
 Alpha  occ. eigenvalues --  -38.43309 -38.43160  -2.19820  -2.19785  -2.19622
 Alpha  occ. eigenvalues --   -2.19374  -2.19283  -2.19245  -2.19017  -1.13505
 Alpha  occ. eigenvalues --   -1.13484  -1.13478  -1.13454  -1.13446  -1.13418
 Alpha  occ. eigenvalues --   -1.13286  -1.13248  -1.13244  -1.13045  -1.13043
 Alpha  occ. eigenvalues --   -1.13011  -1.12972  -1.12946  -1.12914  -1.12908
 Alpha  occ. eigenvalues --   -1.12892  -1.12880  -1.12692  -1.12684  -1.12641
 Alpha  occ. eigenvalues --   -0.18638  -0.13162  -0.12269  -0.10948
 Alpha virt. eigenvalues --   -0.05572  -0.05133  -0.04602  -0.03269  -0.02949
 Alpha virt. eigenvalues --   -0.02709  -0.01531  -0.01039  -0.00359  -0.00243
 Alpha virt. eigenvalues --   -0.00021   0.00362   0.00795   0.00893   0.00902

  Beta  occ. eigenvalues --  -38.43955 -38.43934 -38.43640 -38.43532 -38.43400
  Beta  occ. eigenvalues --  -38.43251 -38.43153  -2.19809  -2.19775  -2.19439
  Beta  occ. eigenvalues --   -2.19369  -2.19238  -2.19176  -2.19007  -1.13491
  Beta  occ. eigenvalues --   -1.13468  -1.13465  -1.13440  -1.13432  -1.13411
  Beta  occ. eigenvalues --   -1.13166  -1.13123  -1.13110  -1.13040  -1.13024
  Beta  occ. eigenvalues --   -1.13004  -1.12921  -1.12900  -1.12897  -1.12867
  Beta  occ. eigenvalues --   -1.12845  -1.12826  -1.12683  -1.12653  -1.12634
  Beta  occ. eigenvalues --   -0.17911  -0.12912  -0.12033
  Beta virt. eigenvalues --   -0.07024  -0.05522  -0.05125  -0.04538  -0.02516
  Beta virt. eigenvalues --   -0.02166  -0.01652  -0.01427  -0.00972  -0.00384
  Beta virt. eigenvalues --   -0.00290   0.00116   0.00392   0.00868   0.00885

 Mulliken charges and spin densities:
               1          2
     1  Na   0.184829  -0.031334
     2  Na  -0.444042   0.727127
     3  Na   0.016422  -0.035840
     4  Na   0.123688  -0.015871
     5  Na   0.249134  -0.021251
     6  Na  -0.170258   0.395703
     7  Na   0.040226  -0.018534
 Sum of Mulliken charges =  -0.00000   1.00000

 Dipole moment (field-independent basis, Debye):
    X=              0.0109    Y=              0.0523    Z=              0.1054  Tot=              0.1181
 Quadrupole moment (field-independent basis, Debye-Ang):
   XX=            -56.9917   YY=            -63.7577   ZZ=            -73.3004
   XY=             -0.0775   XZ=             -0.5381   YZ=              0.3757

 Normal termination of Gaussian 16 at Thu Dec  7 11:15:58 2023.
