 Gaussian 16, Revision B.01,
 Gaussian 16:  ES64L-G16RevB.01 20-Dec-2017

 -------------------------
 #P B3LYP/6-311+g(d) force
 -------------------------

 -----
 DPGEN
 -----
 Symbolic Z-matrix:
 Charge =  0 Multiplicity = 2

                         Standard orientation:
 ---------------------------------------------------------------------
 Center     Atomic      Atomic             Coordinates (Angstroms)
 Number     Number       Type             X           Y           Z
 ---------------------------------------------------------------------
      1         11           0        1.236418    2.276586   -0.356392
      2         11           0       -2.665479    1.733072    0.669537
      3         11           0        0.749073   -0.356098    2.324308
      4         11           0        3.506485   -0.082693   -0.126729
      5         11           0       -2.341713   -1.930098    0.315690
      6         11           0        0.763533   -2.090898   -0.924731
      7         11           0       -1.248318    0.450129   -1.901682
 ---------------------------------------------------------------------

 SCF Done:  E(UB3LYP) =  -1136.13182840     A.U. after   21 cycles

 The electronic state is 2-A.
 Alpha  occ. eigenvalues --  -38.44675 -38.44455 -38.44007 -38.43708 -38.43648
 Alpha  occ. eigenvalues --  -38.43346 -38.42931  -2.20489  -2.20276  -2.19819
 Alpha  occ. eigenvalues --   -2.19629  -2.19485  -2.19179  -2.18811  -1.14149
 Alpha  occ. eigenvalues --   -1.14124  -1.14106  -1.13946  -1.13939  -1.13919
 Alpha  occ. eigenvalues --   -1.13520  -1.13476  -1.13454  -1.13311  -1.13274
 Alpha  occ. eigenvalues --   -1.13243  -1.13150  -1.13148  -1.13127  -1.12869
 Alpha  occ. eigenvalues --   -1.12852  -1.12801  -1.12503  -1.12469  -1.12432
 Alpha  occ. eigenvalues --   -0.18249  -0.13397  -0.11615  -0.11362
 Alpha virt. eigenvalues --   -0.06117  -0.05202  -0.04352  -0.03432  -0.03118
 Alpha virt. eigenvalues --   -0.02947  -0.01734  -0.00909  -0.00340  -0.00145
 Alpha virt. eigenvalues --    0.00112   0.00333   0.00457   0.00659   0.00861

  Beta  occ. eigenvalues --  -38.44588 -38.44457 -38.43998 -38.43655 -38.43646
  Beta  occ. eigenvalues --  -38.43338 -38.42907  -2.20329  -2.20282  -2.19802
  Beta  occ. eigenvalues --   -2.19533  -2.19483  -2.19166  -2.18769  -1.14042
  Beta  occ. eigenvalues --   -1.14012  -1.13992  -1.13948  -1.13937  -1.13916
  Beta  occ. eigenvalues --   -1.13505  -1.13455  -1.13442  -1.13248  -1.13215
  Beta  occ. eigenvalues --   -1.13175  -1.13145  -1.13127  -1.13120  -1.12856
  Beta  occ. eigenvalues --   -1.12825  -1.12796  -1.12472  -1.12420  -1.12406
  Beta  occ. eigenvalues --   -0.17498  -0.13257  -0.11430
  Beta virt. eigenvalues --   -0.07475  -0.05845  -0.05184  -0.03851  -0.03179
  Beta virt. eigenvalues --   -0.02345  -0.02040  -0.01635  -0.00845  -0.00195
  Beta virt. eigenvalues --   -0.00010   0.00093   0.00399   0.00674   0.00808

 Mulliken charges and spin densities:
               1          2
     1  Na  -0.220373   0.072888
     2  Na   0.000126   0.061960
     3  Na  -0.522568   0.570077
     4  Na   0.444287  -0.068459
     5  Na   0.081855   0.037381
     6  Na  -0.106167   0.157306
     7  Na   0.322839   0.168846
 Sum of Mulliken charges =  -0.00000   1.00000

 Dipole moment (field-independent basis, Debye):
    X=              0.2448    Y=             -0.0081    Z=              0.4711  Tot=              0.5309
 Quadrupole moment (field-independent basis, Debye-Ang):
   XX=            -54.3002   YY=            -73.2556   ZZ=            -68.0995
   XY=             -0.2600   XZ=             -2.4379   YZ=              0.7448

 Normal termination of Gaussian 16 at Thu Dec  7 22:43:20 2023.
