 Gaussian 16, Revision B.01,
 Gaussian 16:  ES64L-G16RevB.01 20-Dec-2017

 -------------------------
 #P B3LYP/6-311+g(d) force
 -------------------------

 -----
 DPGEN
 -----
 Symbolic Z-matrix:
 Charge =  0 Multiplicity = 2

                         Standard orientation:
 ---------------------------------------------------------------------
 Center     Atomic      Atomic             Coordinates (Angstroms)
 Number     Number       Type             X           Y           Z
 ---------------------------------------------------------------------
      1         11           0       -0.125528    0.025668    2.252394
      2         11           0        2.763750    1.114705   -0.062566
      3         11           0        2.354772   -1.733758   -0.028113
      4         11           0       -1.080022   -2.535092   -0.352517
      5         11           0       -3.187775    0.002189    0.069953
      6         11           0       -0.578981    2.931850   -0.206490
      7         11           0       -0.146216    0.194438   -1.672662
 ---------------------------------------------------------------------

 SCF Done:  E(UB3LYP) =  -1136.13382157     A.U. after   19 cycles

 The electronic state is 2-A.
 Alpha  occ. eigenvalues --  -38.44386 -38.44113 -38.43984 -38.43505 -38.43278
 Alpha  occ. eigenvalues --  -38.43237 -38.43137  -2.20210  -2.19963  -2.19871
 Alpha  occ. eigenvalues --   -2.19404  -2.19277  -2.19072  -2.19023  -1.13883
 Alpha  occ. eigenvalues --   -1.13876  -1.13846  -1.13657  -1.13617  -1.13588
 Alpha  occ. eigenvalues --   -1.13584  -1.13519  -1.13494  -1.13065  -1.13044
 Alpha  occ. eigenvalues --   -1.13038  -1.12982  -1.12965  -1.12897  -1.12747
 Alpha  occ. eigenvalues --   -1.12722  -1.12698  -1.12693  -1.12672  -1.12648
 Alpha  occ. eigenvalues --   -0.18780  -0.13247  -0.12237  -0.11120
 Alpha virt. eigenvalues --   -0.05881  -0.04781  -0.04510  -0.03434  -0.02967
 Alpha virt. eigenvalues --   -0.02868  -0.01607  -0.00923  -0.00250  -0.00137
 Alpha virt. eigenvalues --   -0.00045   0.00373   0.00820   0.00902   0.00915

  Beta  occ. eigenvalues --  -38.44384 -38.44008 -38.43981 -38.43502 -38.43233
  Beta  occ. eigenvalues --  -38.43214 -38.43128  -2.20209  -2.19868  -2.19770
  Beta  occ. eigenvalues --   -2.19402  -2.19162  -2.19068  -2.19010  -1.13880
  Beta  occ. eigenvalues --   -1.13857  -1.13849  -1.13659  -1.13501  -1.13494
  Beta  occ. eigenvalues --   -1.13484  -1.13452  -1.13444  -1.13064  -1.13041
  Beta  occ. eigenvalues --   -1.13013  -1.12911  -1.12893  -1.12817  -1.12722
  Beta  occ. eigenvalues --   -1.12710  -1.12694  -1.12675  -1.12643  -1.12641
  Beta  occ. eigenvalues --   -0.18034  -0.13039  -0.11997
  Beta virt. eigenvalues --   -0.07138  -0.05828  -0.04795  -0.04470  -0.02615
  Beta virt. eigenvalues --   -0.02099  -0.01847  -0.01511  -0.00859  -0.00305
  Beta virt. eigenvalues --   -0.00181   0.00106   0.00393   0.00862   0.00906

 Mulliken charges and spin densities:
               1          2
     1  Na  -0.680925   0.730017
     2  Na   0.225179  -0.011355
     3  Na   0.131551   0.033679
     4  Na   0.278498   0.037559
     5  Na   0.162628  -0.014578
     6  Na   0.133520  -0.063149
     7  Na  -0.250452   0.287827
 Sum of Mulliken charges =  -0.00000   1.00000

 Dipole moment (field-independent basis, Debye):
    X=             -0.3741    Y=              0.1433    Z=              0.3109  Tot=              0.5071
 Quadrupole moment (field-independent basis, Debye-Ang):
   XX=            -56.8832   YY=            -65.4376   ZZ=            -72.6581
   XY=             -0.1043   XZ=             -0.2568   YZ=              0.4977

 Normal termination of Gaussian 16 at Thu Dec  7 08:24:24 2023.
