 Gaussian 16, Revision B.01,
 Gaussian 16:  ES64L-G16RevB.01 20-Dec-2017

 -------------------------
 #P B3LYP/6-311+g(d) force
 -------------------------

 -----
 DPGEN
 -----
 Symbolic Z-matrix:
 Charge =  0 Multiplicity = 2

                         Standard orientation:
 ---------------------------------------------------------------------
 Center     Atomic      Atomic             Coordinates (Angstroms)
 Number     Number       Type             X           Y           Z
 ---------------------------------------------------------------------
      1         11           0        0.680922   -0.362320    2.591847
      2         11           0       -0.142360    0.302884   -2.338763
      3         11           0       -0.103985   -2.494690   -0.043370
      4         11           0       -2.892426   -1.050999   -0.056305
      5         11           0       -2.129660    2.011272    0.273129
      6         11           0        1.480777    2.261975    0.220390
      7         11           0        3.106732   -0.668121   -0.646929
 ---------------------------------------------------------------------

 SCF Done:  E(UB3LYP) =  -1136.13191148     A.U. after   20 cycles

 The electronic state is 2-A.
 Alpha  occ. eigenvalues --  -38.45062 -38.44875 -38.44303 -38.43626 -38.43283
 Alpha  occ. eigenvalues --  -38.43158 -38.42665  -2.20875  -2.20716  -2.20100
 Alpha  occ. eigenvalues --   -2.19489  -2.19116  -2.18997  -2.18537  -1.14523
 Alpha  occ. eigenvalues --   -1.14504  -1.14494  -1.14384  -1.14349  -1.14333
 Alpha  occ. eigenvalues --   -1.13769  -1.13759  -1.13743  -1.13178  -1.13167
 Alpha  occ. eigenvalues --   -1.13134  -1.12787  -1.12772  -1.12761  -1.12677
 Alpha  occ. eigenvalues --   -1.12668  -1.12626  -1.12222  -1.12207  -1.12172
 Alpha  occ. eigenvalues --   -0.18207  -0.12916  -0.11973  -0.11752
 Alpha virt. eigenvalues --   -0.05790  -0.04876  -0.04410  -0.03615  -0.03536
 Alpha virt. eigenvalues --   -0.03215  -0.01427  -0.00648  -0.00469   0.00036
 Alpha virt. eigenvalues --    0.00108   0.00305   0.00464   0.00641   0.00882

  Beta  occ. eigenvalues --  -38.44964 -38.44801 -38.44295 -38.43627 -38.43280
  Beta  occ. eigenvalues --  -38.43152 -38.42660  -2.20694  -2.20580  -2.20089
  Beta  occ. eigenvalues --   -2.19492  -2.19112  -2.18988  -2.18532  -1.14402
  Beta  occ. eigenvalues --   -1.14372  -1.14372  -1.14296  -1.14252  -1.14230
  Beta  occ. eigenvalues --   -1.13755  -1.13747  -1.13733  -1.13181  -1.13171
  Beta  occ. eigenvalues --   -1.13125  -1.12784  -1.12762  -1.12757  -1.12671
  Beta  occ. eigenvalues --   -1.12637  -1.12625  -1.12222  -1.12175  -1.12171
  Beta  occ. eigenvalues --   -0.17412  -0.12749  -0.11567
  Beta virt. eigenvalues --   -0.08031  -0.05550  -0.04838  -0.03882  -0.03232
  Beta virt. eigenvalues --   -0.02810  -0.02359  -0.01323  -0.00593  -0.00159
  Beta virt. eigenvalues --    0.00007   0.00083   0.00446   0.00586   0.00804

 Mulliken charges and spin densities:
               1          2
     1  Na  -0.215472   0.429690
     2  Na  -0.260517   0.493010
     3  Na  -0.047598   0.060291
     4  Na   0.232761  -0.073283
     5  Na   0.065105   0.005724
     6  Na  -0.105293   0.076907
     7  Na   0.331014   0.007661
 Sum of Mulliken charges =  -0.00000   1.00000

 Dipole moment (field-independent basis, Debye):
    X=              0.4528    Y=              0.0058    Z=             -0.0108  Tot=              0.4530
 Quadrupole moment (field-independent basis, Debye-Ang):
   XX=            -60.3790   YY=            -73.4411   ZZ=            -63.6132
   XY=             -0.7085   XZ=             -1.0619   YZ=              1.3124

 Normal termination of Gaussian 16 at Sun Dec  3 13:19:40 2023.
