 Gaussian 16, Revision B.01,
 Gaussian 16:  ES64L-G16RevB.01 20-Dec-2017

 -------------------------
 #P B3LYP/6-311+g(d) force
 -------------------------

 -----
 DPGEN
 -----
 Symbolic Z-matrix:
 Charge =  0 Multiplicity = 2

                         Standard orientation:
 ---------------------------------------------------------------------
 Center     Atomic      Atomic             Coordinates (Angstroms)
 Number     Number       Type             X           Y           Z
 ---------------------------------------------------------------------
      1         11           0       -0.160037    0.058333    1.855278
      2         11           0       -0.590853   -2.420322   -0.120095
      3         11           0       -2.834413   -0.319980    0.103483
      4         11           0       -1.169062    2.269348   -0.409257
      5         11           0        2.025578    1.847654    0.337935
      6         11           0        2.349329   -1.458319    0.013677
      7         11           0        0.379458    0.023286   -1.781021
 ---------------------------------------------------------------------

 SCF Done:  E(UB3LYP) =  -1136.12961528     A.U. after   17 cycles

 The electronic state is 2-A.
 Alpha  occ. eigenvalues --  -38.43531 -38.43494 -38.43476 -38.43406 -38.43321
 Alpha  occ. eigenvalues --  -38.43176 -38.43026  -2.19561  -2.19539  -2.19475
 Alpha  occ. eigenvalues --   -2.19366  -2.19261  -2.19148  -2.19030  -1.13313
 Alpha  occ. eigenvalues --   -1.13284  -1.13247  -1.13207  -1.13200  -1.13187
 Alpha  occ. eigenvalues --   -1.13160  -1.13128  -1.13094  -1.13040  -1.13006
 Alpha  occ. eigenvalues --   -1.13004  -1.12930  -1.12914  -1.12882  -1.12819
 Alpha  occ. eigenvalues --   -1.12788  -1.12746  -1.12702  -1.12674  -1.12637
 Alpha  occ. eigenvalues --   -0.20107  -0.13319  -0.12858  -0.11504
 Alpha virt. eigenvalues --   -0.05061  -0.04791  -0.04346  -0.03386  -0.03172
 Alpha virt. eigenvalues --   -0.02784  -0.01146  -0.00814  -0.00058   0.00339
 Alpha virt. eigenvalues --    0.00347   0.00389   0.00935   0.01021   0.01037

  Beta  occ. eigenvalues --  -38.43526 -38.43408 -38.43399 -38.43393 -38.43310
  Beta  occ. eigenvalues --  -38.43162 -38.43016  -2.19470  -2.19411  -2.19382
  Beta  occ. eigenvalues --   -2.19357  -2.19245  -2.19128  -2.19017  -1.13240
  Beta  occ. eigenvalues --   -1.13217  -1.13173  -1.13161  -1.13113  -1.13104
  Beta  occ. eigenvalues --   -1.13094  -1.13074  -1.13031  -1.13024  -1.12981
  Beta  occ. eigenvalues --   -1.12953  -1.12911  -1.12876  -1.12865  -1.12796
  Beta  occ. eigenvalues --   -1.12745  -1.12735  -1.12693  -1.12640  -1.12616
  Beta  occ. eigenvalues --   -0.19327  -0.13029  -0.12546
  Beta virt. eigenvalues --   -0.07456  -0.05043  -0.04792  -0.04355  -0.02528
  Beta virt. eigenvalues --   -0.02297  -0.01673  -0.01073  -0.00759   0.00077
  Beta virt. eigenvalues --    0.00294   0.00312   0.00389   0.00992   0.01010

 Mulliken charges and spin densities:
               1          2
     1  Na  -0.796643   0.599788
     2  Na   0.400135  -0.008756
     3  Na   0.139698  -0.032050
     4  Na   0.402843   0.009115
     5  Na   0.280606  -0.014603
     6  Na   0.311188  -0.040748
     7  Na  -0.737827   0.487254
 Sum of Mulliken charges =  -0.00000   1.00000

 Dipole moment (field-independent basis, Debye):
    X=              0.0819    Y=              0.1040    Z=              0.1209  Tot=              0.1793
 Quadrupole moment (field-independent basis, Debye-Ang):
   XX=            -59.2732   YY=            -65.3489   ZZ=            -70.8477
   XY=              0.1010   XZ=              1.0177   YZ=             -0.0366

 Normal termination of Gaussian 16 at Thu Dec  7 04:10:16 2023.
