 Gaussian 16, Revision B.01,
 Gaussian 16:  ES64L-G16RevB.01 20-Dec-2017

 -------------------------
 #P B3LYP/6-311+g(d) force
 -------------------------

 -----
 DPGEN
 -----
 Symbolic Z-matrix:
 Charge =  0 Multiplicity = 2

                         Standard orientation:
 ---------------------------------------------------------------------
 Center     Atomic      Atomic             Coordinates (Angstroms)
 Number     Number       Type             X           Y           Z
 ---------------------------------------------------------------------
      1         11           0       -0.095296    0.392697   -1.796090
      2         11           0        1.444707    1.004680    1.736049
      3         11           0       -3.641991   -0.985989   -0.913899
      4         11           0        3.829529    0.178053   -0.965566
      5         11           0       -1.564911   -1.179374    1.525501
      6         11           0       -1.707015    2.485771    0.186232
      7         11           0        1.734976   -1.895839    0.227774
 ---------------------------------------------------------------------

 SCF Done:  E(UB3LYP) =  -1136.12172468     A.U. after   26 cycles

 The electronic state is 2-A.
 Alpha  occ. eigenvalues --  -38.45212 -38.44648 -38.44423 -38.44017 -38.43653
 Alpha  occ. eigenvalues --  -38.43447 -38.42661  -2.21032  -2.20491  -2.20218
 Alpha  occ. eigenvalues --   -2.19886  -2.19549  -2.19312  -2.18476  -1.14694
 Alpha  occ. eigenvalues --   -1.14685  -1.14661  -1.14187  -1.14139  -1.14110
 Alpha  occ. eigenvalues --   -1.13902  -1.13871  -1.13850  -1.13584  -1.13530
 Alpha  occ. eigenvalues --   -1.13495  -1.13235  -1.13219  -1.13173  -1.12987
 Alpha  occ. eigenvalues --   -1.12963  -1.12949  -1.12159  -1.12140  -1.12113
 Alpha  occ. eigenvalues --   -0.18313  -0.13952  -0.11515  -0.10701
 Alpha virt. eigenvalues --   -0.06931  -0.05096  -0.04742  -0.03078  -0.02916
 Alpha virt. eigenvalues --   -0.02534  -0.02316  -0.01256  -0.00767  -0.00153
 Alpha virt. eigenvalues --    0.00111   0.00198   0.00306   0.00598   0.00764

  Beta  occ. eigenvalues --  -38.45183 -38.44610 -38.44417 -38.43955 -38.43633
  Beta  occ. eigenvalues --  -38.43414 -38.42665  -2.20978  -2.20420  -2.20205
  Beta  occ. eigenvalues --   -2.19774  -2.19520  -2.19253  -2.18485  -1.14658
  Beta  occ. eigenvalues --   -1.14643  -1.14625  -1.14137  -1.14089  -1.14053
  Beta  occ. eigenvalues --   -1.13897  -1.13861  -1.13838  -1.13503  -1.13439
  Beta  occ. eigenvalues --   -1.13420  -1.13220  -1.13180  -1.13129  -1.12949
  Beta  occ. eigenvalues --   -1.12917  -1.12892  -1.12163  -1.12146  -1.12110
  Beta  occ. eigenvalues --   -0.17516  -0.13754  -0.10554
  Beta virt. eigenvalues --   -0.07687  -0.06669  -0.04806  -0.04321  -0.02781
  Beta virt. eigenvalues --   -0.02539  -0.01955  -0.01820  -0.00844  -0.00730
  Beta virt. eigenvalues --   -0.00074   0.00122   0.00284   0.00373   0.00709

 Mulliken charges and spin densities:
               1          2
     1  Na  -0.102468   0.251936
     2  Na  -0.058142   0.299086
     3  Na  -0.008400   0.029630
     4  Na   0.294719   0.169851
     5  Na   0.177610   0.017798
     6  Na  -0.247489   0.036726
     7  Na  -0.055830   0.194972
 Sum of Mulliken charges =  -0.00000   1.00000

 Dipole moment (field-independent basis, Debye):
    X=              1.0106    Y=              0.2810    Z=             -0.5713  Tot=              1.1944
 Quadrupole moment (field-independent basis, Debye-Ang):
   XX=            -49.4468   YY=            -78.9301   ZZ=            -66.5170
   XY=              0.4489   XZ=              0.2393   YZ=              1.6969

 Normal termination of Gaussian 16 at Tue Dec  5 18:27:28 2023.
