 Gaussian 16, Revision B.01,
 Gaussian 16:  ES64L-G16RevB.01 20-Dec-2017

 -------------------------
 #P B3LYP/6-311+g(d) force
 -------------------------

 -----
 DPGEN
 -----
 Symbolic Z-matrix:
 Charge =  0 Multiplicity = 2

                         Standard orientation:
 ---------------------------------------------------------------------
 Center     Atomic      Atomic             Coordinates (Angstroms)
 Number     Number       Type             X           Y           Z
 ---------------------------------------------------------------------
      1         11           0        4.683370   -0.265646   -0.796666
      2         11           0        2.188500    1.429074    1.294554
      3         11           0       -2.934996    1.812576   -0.988415
      4         11           0       -4.074142   -1.288201    0.079523
      5         11           0       -1.414841   -3.203910    0.550793
      6         11           0       -0.545821    3.603037    0.229410
      7         11           0        2.097929   -2.086930   -0.369199
 ---------------------------------------------------------------------

 SCF Done:  E(UB3LYP) =  -1136.11507496     A.U. after   21 cycles

 The electronic state is 2-A.
 Alpha  occ. eigenvalues --  -38.45551 -38.45060 -38.44287 -38.44200 -38.44199
 Alpha  occ. eigenvalues --  -38.43631 -38.43539  -2.21318  -2.20866  -2.20128
 Alpha  occ. eigenvalues --   -2.20004  -2.19994  -2.19428  -2.19336  -1.15010
 Alpha  occ. eigenvalues --   -1.14993  -1.14915  -1.14553  -1.14544  -1.14496
 Alpha  occ. eigenvalues --   -1.13788  -1.13768  -1.13737  -1.13685  -1.13677
 Alpha  occ. eigenvalues --   -1.13668  -1.13664  -1.13652  -1.13611  -1.13097
 Alpha  occ. eigenvalues --   -1.13096  -1.13072  -1.13002  -1.12991  -1.12970
 Alpha  occ. eigenvalues --   -0.16129  -0.14120  -0.12902  -0.10624
 Alpha virt. eigenvalues --   -0.07283  -0.05566  -0.03932  -0.03798  -0.03148
 Alpha virt. eigenvalues --   -0.02589  -0.01966  -0.01406  -0.01210  -0.00879
 Alpha virt. eigenvalues --   -0.00559  -0.00271   0.00244   0.00412   0.00640

  Beta  occ. eigenvalues --  -38.45515 -38.45034 -38.44227 -38.44193 -38.44175
  Beta  occ. eigenvalues --  -38.43632 -38.43504  -2.21255  -2.20824  -2.20014
  Beta  occ. eigenvalues --   -2.19984  -2.19959  -2.19430  -2.19272  -1.14967
  Beta  occ. eigenvalues --   -1.14953  -1.14853  -1.14530  -1.14515  -1.14425
  Beta  occ. eigenvalues --   -1.13707  -1.13690  -1.13667  -1.13665  -1.13662
  Beta  occ. eigenvalues --   -1.13649  -1.13639  -1.13635  -1.13584  -1.13104
  Beta  occ. eigenvalues --   -1.13099  -1.13058  -1.12958  -1.12949  -1.12922
  Beta  occ. eigenvalues --   -0.15578  -0.13725  -0.12540
  Beta virt. eigenvalues --   -0.07257  -0.07048  -0.05039  -0.03684  -0.03460
  Beta virt. eigenvalues --   -0.02844  -0.02381  -0.01637  -0.01203  -0.01077
  Beta virt. eigenvalues --   -0.00638  -0.00286   0.00001   0.00363   0.00530

 Mulliken charges and spin densities:
               1          2
     1  Na   0.817189   0.321894
     2  Na  -0.470430   0.157666
     3  Na  -0.066433   0.196760
     4  Na  -0.100868   0.012802
     5  Na   0.127373   0.053181
     6  Na   0.252770  -0.008684
     7  Na  -0.559602   0.266381
 Sum of Mulliken charges =  -0.00000   1.00000

 Dipole moment (field-independent basis, Debye):
    X=              1.4146    Y=              0.2391    Z=              0.0233  Tot=              1.4348
 Quadrupole moment (field-independent basis, Debye-Ang):
   XX=            -60.9178   YY=            -69.4510   ZZ=            -69.6306
   XY=              2.4808   XZ=             -0.3345   YZ=              0.2134

 Normal termination of Gaussian 16 at Mon Dec  4 05:22:12 2023.
