 Gaussian 16, Revision B.01,
 Gaussian 16:  ES64L-G16RevB.01 20-Dec-2017

 -------------------------
 #P B3LYP/6-311+g(d) force
 -------------------------

 -----
 DPGEN
 -----
 Symbolic Z-matrix:
 Charge =  0 Multiplicity = 2

                         Standard orientation:
 ---------------------------------------------------------------------
 Center     Atomic      Atomic             Coordinates (Angstroms)
 Number     Number       Type             X           Y           Z
 ---------------------------------------------------------------------
      1         11           0        0.035122   -3.632242    0.131810
      2         11           0        3.290332   -3.085672   -0.254705
      3         11           0       -1.600159    3.741587   -0.206619
      4         11           0        2.209227    3.690079    0.524549
      5         11           0       -3.745587    0.733726   -0.470979
      6         11           0        3.632461    0.715363   -0.183213
      7         11           0       -3.821396   -2.162842    0.459156
 ---------------------------------------------------------------------

 SCF Done:  E(UB3LYP) =  -1136.10727549     A.U. after   22 cycles

 The electronic state is 2-A.
 Alpha  occ. eigenvalues --  -38.45730 -38.44983 -38.44735 -38.44474 -38.44405
 Alpha  occ. eigenvalues --  -38.44286 -38.43881  -2.21476  -2.20755  -2.20531
 Alpha  occ. eigenvalues --   -2.20236  -2.20184  -2.20073  -2.19707  -1.15157
 Alpha  occ. eigenvalues --   -1.15145  -1.15100  -1.14427  -1.14419  -1.14374
 Alpha  occ. eigenvalues --   -1.14227  -1.14202  -1.14190  -1.13914  -1.13904
 Alpha  occ. eigenvalues --   -1.13880  -1.13840  -1.13829  -1.13795  -1.13736
 Alpha  occ. eigenvalues --   -1.13725  -1.13721  -1.13369  -1.13345  -1.13332
 Alpha  occ. eigenvalues --   -0.15341  -0.13921  -0.13558  -0.11032
 Alpha virt. eigenvalues --   -0.07751  -0.04866  -0.04546  -0.03584  -0.03383
 Alpha virt. eigenvalues --   -0.02365  -0.02238  -0.02092  -0.01809  -0.00789
 Alpha virt. eigenvalues --   -0.00437  -0.00159   0.00058   0.00290   0.00357

  Beta  occ. eigenvalues --  -38.45709 -38.44936 -38.44730 -38.44474 -38.44320
  Beta  occ. eigenvalues --  -38.44270 -38.43834  -2.21440  -2.20670  -2.20528
  Beta  occ. eigenvalues --   -2.20241  -2.20046  -2.20026  -2.19618  -1.15136
  Beta  occ. eigenvalues --   -1.15124  -1.15054  -1.14371  -1.14364  -1.14306
  Beta  occ. eigenvalues --   -1.14216  -1.14205  -1.14154  -1.13921  -1.13909
  Beta  occ. eigenvalues --   -1.13857  -1.13733  -1.13723  -1.13719  -1.13709
  Beta  occ. eigenvalues --   -1.13694  -1.13689  -1.13313  -1.13284  -1.13272
  Beta  occ. eigenvalues --   -0.14805  -0.13262  -0.12838
  Beta virt. eigenvalues --   -0.07921  -0.07743  -0.04502  -0.03992  -0.03425
  Beta virt. eigenvalues --   -0.02987  -0.02190  -0.02044  -0.01916  -0.01691
  Beta virt. eigenvalues --   -0.00384  -0.00204   0.00093   0.00215   0.00327

 Mulliken charges and spin densities:
               1          2
     1  Na  -0.296512   0.180683
     2  Na   0.442493   0.051821
     3  Na  -0.022220   0.391972
     4  Na   0.343360  -0.125433
     5  Na  -0.217267   0.033418
     6  Na  -0.451191   0.268370
     7  Na   0.201336   0.199169
 Sum of Mulliken charges =  -0.00000   1.00000

 Dipole moment (field-independent basis, Debye):
    X=              0.6000    Y=             -0.6951    Z=              0.0540  Tot=              0.9198
 Quadrupole moment (field-independent basis, Debye-Ang):
   XX=            -64.5062   YY=            -61.9255   ZZ=            -73.7759
   XY=              0.0511   XZ=             -0.7269   YZ=              0.0495

 Normal termination of Gaussian 16 at Sun Dec  3 19:59:15 2023.
