 Gaussian 16, Revision B.01,
 Gaussian 16:  ES64L-G16RevB.01 20-Dec-2017

 -------------------------
 #P B3LYP/6-311+g(d) force
 -------------------------

 -----
 DPGEN
 -----
 Symbolic Z-matrix:
 Charge =  0 Multiplicity = 2

                         Standard orientation:
 ---------------------------------------------------------------------
 Center     Atomic      Atomic             Coordinates (Angstroms)
 Number     Number       Type             X           Y           Z
 ---------------------------------------------------------------------
      1         11           0        1.416156    2.110270   -0.160393
      2         11           0       -3.200581   -2.050789   -0.332644
      3         11           0       -0.068933   -0.760298   -1.100888
      4         11           0        2.221833   -0.837817    1.854313
      5         11           0       -2.727536    1.540229   -1.098973
      6         11           0       -1.600283    0.635971    2.041704
      7         11           0        3.959344   -0.637566   -1.203119
 ---------------------------------------------------------------------

 SCF Done:  E(UB3LYP) =  -1136.11998820     A.U. after   28 cycles

 The electronic state is 2-A.
 Alpha  occ. eigenvalues --  -38.44955 -38.44704 -38.44513 -38.44214 -38.44014
 Alpha  occ. eigenvalues --  -38.43636 -38.43038  -2.20770  -2.20522  -2.20297
 Alpha  occ. eigenvalues --   -2.20081  -2.19828  -2.19461  -2.18843  -1.14462
 Alpha  occ. eigenvalues --   -1.14427  -1.14368  -1.14203  -1.14169  -1.14135
 Alpha  occ. eigenvalues --   -1.13964  -1.13959  -1.13916  -1.13803  -1.13763
 Alpha  occ. eigenvalues --   -1.13687  -1.13506  -1.13483  -1.13450  -1.13170
 Alpha  occ. eigenvalues --   -1.13120  -1.13058  -1.12513  -1.12507  -1.12481
 Alpha  occ. eigenvalues --   -0.17882  -0.14092  -0.11041  -0.10471
 Alpha virt. eigenvalues --   -0.06634  -0.05782  -0.05204  -0.03023  -0.02594
 Alpha virt. eigenvalues --   -0.02437  -0.02099  -0.01326  -0.01099  -0.00477
 Alpha virt. eigenvalues --    0.00006   0.00109   0.00245   0.00329   0.00486

  Beta  occ. eigenvalues --  -38.44930 -38.44650 -38.44493 -38.44201 -38.43984
  Beta  occ. eigenvalues --  -38.43612 -38.43035  -2.20722  -2.20423  -2.20260
  Beta  occ. eigenvalues --   -2.20062  -2.19774  -2.19418  -2.18837  -1.14423
  Beta  occ. eigenvalues --   -1.14398  -1.14332  -1.14135  -1.14106  -1.14052
  Beta  occ. eigenvalues --   -1.13936  -1.13928  -1.13894  -1.13765  -1.13743
  Beta  occ. eigenvalues --   -1.13680  -1.13467  -1.13436  -1.13411  -1.13139
  Beta  occ. eigenvalues --   -1.13074  -1.13029  -1.12509  -1.12498  -1.12478
  Beta  occ. eigenvalues --   -0.17219  -0.13866  -0.10345
  Beta virt. eigenvalues --   -0.07339  -0.06479  -0.05176  -0.04911  -0.02696
  Beta virt. eigenvalues --   -0.02478  -0.01951  -0.01613  -0.01035  -0.00727
  Beta virt. eigenvalues --   -0.00297   0.00136   0.00158   0.00295   0.00412

 Mulliken charges and spin densities:
               1          2
     1  Na   0.022439   0.133862
     2  Na   0.065563  -0.070195
     3  Na  -0.695583   0.330844
     4  Na  -0.093909   0.176512
     5  Na   0.350959   0.018049
     6  Na  -0.057768   0.289482
     7  Na   0.408299   0.121447
 Sum of Mulliken charges =  -0.00000   1.00000

 Dipole moment (field-independent basis, Debye):
    X=              0.4349    Y=              0.7499    Z=              0.1449  Tot=              0.8789
 Quadrupole moment (field-independent basis, Debye-Ang):
   XX=            -51.9196   YY=            -74.4087   ZZ=            -68.8328
   XY=             -3.3113   XZ=             -1.1709   YZ=             -5.2625

 Normal termination of Gaussian 16 at Thu Dec  7 22:52:27 2023.
