 Gaussian 16, Revision B.01,
 Gaussian 16:  ES64L-G16RevB.01 20-Dec-2017

 -------------------------
 #P B3LYP/6-311+g(d) force
 -------------------------

 -----
 DPGEN
 -----
 Symbolic Z-matrix:
 Charge =  0 Multiplicity = 2

                         Standard orientation:
 ---------------------------------------------------------------------
 Center     Atomic      Atomic             Coordinates (Angstroms)
 Number     Number       Type             X           Y           Z
 ---------------------------------------------------------------------
      1         11           0       -4.187853   -0.824968   -0.610115
      2         11           0        3.205817    2.080935    0.116286
      3         11           0        1.039480   -3.381408   -0.341292
      4         11           0       -2.605311    2.422456   -0.792490
      5         11           0       -1.412679   -3.051092    1.311000
      6         11           0        4.169085   -0.921884   -0.621280
      7         11           0       -0.208540    3.675961    0.937890
 ---------------------------------------------------------------------

 SCF Done:  E(UB3LYP) =  -1136.10689951     A.U. after   20 cycles

 The electronic state is 2-A.
 Alpha  occ. eigenvalues --  -38.44884 -38.44667 -38.44651 -38.44616 -38.44544
 Alpha  occ. eigenvalues --  -38.44208 -38.43931  -2.20648  -2.20444  -2.20432
 Alpha  occ. eigenvalues --   -2.20428  -2.20352  -2.20001  -2.19743  -1.14329
 Alpha  occ. eigenvalues --   -1.14322  -1.14294  -1.14228  -1.14133  -1.14121
 Alpha  occ. eigenvalues --   -1.14106  -1.14084  -1.14078  -1.14062  -1.14060
 Alpha  occ. eigenvalues --   -1.14048  -1.13998  -1.13978  -1.13936  -1.13657
 Alpha  occ. eigenvalues --   -1.13651  -1.13638  -1.13391  -1.13388  -1.13372
 Alpha  occ. eigenvalues --   -0.15461  -0.13687  -0.13598  -0.10984
 Alpha virt. eigenvalues --   -0.07388  -0.04797  -0.04507  -0.03603  -0.03497
 Alpha virt. eigenvalues --   -0.02276  -0.02062  -0.01689  -0.01454  -0.01171
 Alpha virt. eigenvalues --   -0.00689  -0.00127   0.00005   0.00452   0.00669

  Beta  occ. eigenvalues --  -38.44879 -38.44670 -38.44585 -38.44563 -38.44528
  Beta  occ. eigenvalues --  -38.44171 -38.43873  -2.20643  -2.20455  -2.20376
  Beta  occ. eigenvalues --   -2.20326  -2.20269  -2.19934  -2.19636  -1.14329
  Beta  occ. eigenvalues --   -1.14321  -1.14262  -1.14184  -1.14142  -1.14134
  Beta  occ. eigenvalues --   -1.14065  -1.14044  -1.14027  -1.13983  -1.13974
  Beta  occ. eigenvalues --   -1.13964  -1.13953  -1.13938  -1.13893  -1.13612
  Beta  occ. eigenvalues --   -1.13606  -1.13589  -1.13324  -1.13314  -1.13301
  Beta  occ. eigenvalues --   -0.14936  -0.13018  -0.12777
  Beta virt. eigenvalues --   -0.07845  -0.07519  -0.04372  -0.04029  -0.03414
  Beta virt. eigenvalues --   -0.03189  -0.02034  -0.01795  -0.01493  -0.01281
  Beta virt. eigenvalues --   -0.00800  -0.00512   0.00090   0.00168   0.00447

 Mulliken charges and spin densities:
               1          2
     1  Na   0.200876   0.398549
     2  Na  -0.114748   0.049241
     3  Na  -0.286940   0.123704
     4  Na  -0.196208   0.017223
     5  Na   0.020134   0.013403
     6  Na   0.387638   0.145578
     7  Na  -0.010753   0.252303
 Sum of Mulliken charges =  -0.00000   1.00000

 Dipole moment (field-independent basis, Debye):
    X=              0.0647    Y=             -0.4509    Z=              0.0472  Tot=              0.4579
 Quadrupole moment (field-independent basis, Debye-Ang):
   XX=            -66.3406   YY=            -66.7494   ZZ=            -68.9424
   XY=              0.7043   XZ=             -1.3724   YZ=              1.7916

 Normal termination of Gaussian 16 at Sun Dec  3 18:43:44 2023.
