 Gaussian 16, Revision B.01,
 Gaussian 16:  ES64L-G16RevB.01 20-Dec-2017

 -------------------------
 #P B3LYP/6-311+g(d) force
 -------------------------

 -----
 DPGEN
 -----
 Symbolic Z-matrix:
 Charge =  0 Multiplicity = 2

                         Standard orientation:
 ---------------------------------------------------------------------
 Center     Atomic      Atomic             Coordinates (Angstroms)
 Number     Number       Type             X           Y           Z
 ---------------------------------------------------------------------
      1         11           0        3.890926   -0.872685    0.326271
      2         11           0        1.156896   -1.317922   -1.227880
      3         11           0       -2.054097   -2.128468   -0.232432
      4         11           0       -0.954986    1.389682   -1.142904
      5         11           0       -4.091569    0.711041    0.312109
      6         11           0        2.038451    2.348076   -0.083543
      7         11           0        0.014378   -0.129725    2.048379
 ---------------------------------------------------------------------

 SCF Done:  E(UB3LYP) =  -1136.11629477     A.U. after   29 cycles

 The electronic state is 2-A.
 Alpha  occ. eigenvalues --  -38.46133 -38.45539 -38.45186 -38.43505 -38.43119
 Alpha  occ. eigenvalues --  -38.42869 -38.42690  -2.21912  -2.21313  -2.20984
 Alpha  occ. eigenvalues --   -2.19340  -2.18942  -2.18790  -2.18597  -1.15607
 Alpha  occ. eigenvalues --   -1.15555  -1.15529  -1.14981  -1.14970  -1.14940
 Alpha  occ. eigenvalues --   -1.14672  -1.14628  -1.14609  -1.13022  -1.13012
 Alpha  occ. eigenvalues --   -1.12974  -1.12623  -1.12614  -1.12583  -1.12485
 Alpha  occ. eigenvalues --   -1.12447  -1.12410  -1.12288  -1.12252  -1.12209
 Alpha  occ. eigenvalues --   -0.18175  -0.13948  -0.11046  -0.10574
 Alpha virt. eigenvalues --   -0.07982  -0.05345  -0.04067  -0.03362  -0.03079
 Alpha virt. eigenvalues --   -0.02315  -0.02223  -0.01424  -0.01011  -0.00533
 Alpha virt. eigenvalues --   -0.00237   0.00132   0.00301   0.00602   0.00635

  Beta  occ. eigenvalues --  -38.46094 -38.45520 -38.45162 -38.43496 -38.43115
  Beta  occ. eigenvalues --  -38.42821 -38.42646  -2.21838  -2.21277  -2.20939
  Beta  occ. eigenvalues --   -2.19328  -2.18939  -2.18706  -2.18522  -1.15548
  Beta  occ. eigenvalues --   -1.15507  -1.15473  -1.14953  -1.14946  -1.14916
  Beta  occ. eigenvalues --   -1.14640  -1.14599  -1.14575  -1.13019  -1.12990
  Beta  occ. eigenvalues --   -1.12952  -1.12617  -1.12602  -1.12576  -1.12424
  Beta  occ. eigenvalues --   -1.12368  -1.12353  -1.12241  -1.12172  -1.12158
  Beta  occ. eigenvalues --   -0.17495  -0.13681  -0.10808
  Beta virt. eigenvalues --   -0.07680  -0.06904  -0.05357  -0.03572  -0.02972
  Beta virt. eigenvalues --   -0.02935  -0.01716  -0.01559  -0.01361  -0.00633
  Beta virt. eigenvalues --   -0.00491  -0.00142   0.00150   0.00472   0.00672

 Mulliken charges and spin densities:
               1          2
     1  Na   0.286430   0.274556
     2  Na  -0.160388   0.084420
     3  Na   0.170836   0.035201
     4  Na  -0.241198   0.090626
     5  Na   0.233572   0.215501
     6  Na  -0.033295  -0.024858
     7  Na  -0.255956   0.324553
 Sum of Mulliken charges =  -0.00000   1.00000

 Dipole moment (field-independent basis, Debye):
    X=             -0.3820    Y=             -0.0381    Z=              0.6609  Tot=              0.7643
 Quadrupole moment (field-independent basis, Debye-Ang):
   XX=            -45.2949   YY=            -77.2280   ZZ=            -70.7994
   XY=             -0.0910   XZ=              0.2009   YZ=              0.3997

 Normal termination of Gaussian 16 at Thu Dec  7 21:42:28 2023.
