 Gaussian 16, Revision B.01,
 Gaussian 16:  ES64L-G16RevB.01 20-Dec-2017

 -------------------------
 #P B3LYP/6-311+g(d) force
 -------------------------

 -----
 DPGEN
 -----
 Symbolic Z-matrix:
 Charge =  0 Multiplicity = 2

                         Standard orientation:
 ---------------------------------------------------------------------
 Center     Atomic      Atomic             Coordinates (Angstroms)
 Number     Number       Type             X           Y           Z
 ---------------------------------------------------------------------
      1         11           0       -1.489221    3.499563   -0.542797
      2         11           0        1.523785    2.759423    0.313425
      3         11           0        4.481000    0.168357    0.945814
      4         11           0       -0.360166   -2.709401   -0.449578
      5         11           0       -3.950191    0.467056   -0.270232
      6         11           0        3.238450   -1.988913   -1.008951
      7         11           0       -3.443657   -2.196086    1.012320
 ---------------------------------------------------------------------

 SCF Done:  E(UB3LYP) =  -1136.10993830     A.U. after   22 cycles

 The electronic state is 2-A.
 Alpha  occ. eigenvalues --  -38.45177 -38.45001 -38.44751 -38.44420 -38.44249
 Alpha  occ. eigenvalues --  -38.43911 -38.43540  -2.20991  -2.20764  -2.20538
 Alpha  occ. eigenvalues --   -2.20260  -2.20043  -2.19734  -2.19334  -1.14690
 Alpha  occ. eigenvalues --   -1.14641  -1.14618  -1.14447  -1.14438  -1.14392
 Alpha  occ. eigenvalues --   -1.14225  -1.14206  -1.14192  -1.13935  -1.13909
 Alpha  occ. eigenvalues --   -1.13903  -1.13709  -1.13699  -1.13644  -1.13383
 Alpha  occ. eigenvalues --   -1.13375  -1.13361  -1.12997  -1.12993  -1.12982
 Alpha  occ. eigenvalues --   -0.15829  -0.14224  -0.13061  -0.10674
 Alpha virt. eigenvalues --   -0.07471  -0.04757  -0.04692  -0.03742  -0.03357
 Alpha virt. eigenvalues --   -0.02294  -0.02202  -0.01338  -0.01252  -0.01171
 Alpha virt. eigenvalues --   -0.00585  -0.00147   0.00188   0.00496   0.00671

  Beta  occ. eigenvalues --  -38.45135 -38.44986 -38.44749 -38.44415 -38.44173
  Beta  occ. eigenvalues --  -38.43850 -38.43527  -2.20914  -2.20740  -2.20540
  Beta  occ. eigenvalues --   -2.20254  -2.19903  -2.19619  -2.19312  -1.14636
  Beta  occ. eigenvalues --   -1.14591  -1.14559  -1.14433  -1.14423  -1.14356
  Beta  occ. eigenvalues --   -1.14228  -1.14213  -1.14151  -1.13919  -1.13907
  Beta  occ. eigenvalues --   -1.13886  -1.13615  -1.13604  -1.13547  -1.13310
  Beta  occ. eigenvalues --   -1.13296  -1.13283  -1.12980  -1.12976  -1.12965
  Beta  occ. eigenvalues --   -0.15311  -0.13636  -0.12512
  Beta virt. eigenvalues --   -0.07542  -0.07277  -0.04450  -0.04176  -0.03559
  Beta virt. eigenvalues --   -0.02888  -0.02236  -0.01946  -0.01206  -0.01092
  Beta virt. eigenvalues --   -0.00768  -0.00345   0.00060   0.00334   0.00549

 Mulliken charges and spin densities:
               1          2
     1  Na   0.504230  -0.017016
     2  Na  -0.520989   0.125281
     3  Na   0.124898   0.297230
     4  Na  -0.432632   0.314089
     5  Na  -0.234312   0.241044
     6  Na  -0.010809  -0.033702
     7  Na   0.569613   0.073075
 Sum of Mulliken charges =  -0.00000   1.00000

 Dipole moment (field-independent basis, Debye):
    X=             -0.5592    Y=             -0.2506    Z=              0.1567  Tot=              0.6325
 Quadrupole moment (field-independent basis, Debye-Ang):
   XX=            -62.1468   YY=            -69.8429   ZZ=            -69.0810
   XY=             -0.7023   XZ=              0.5787   YZ=             -1.0382

 Normal termination of Gaussian 16 at Mon Dec  4 04:47:16 2023.
