 Gaussian 16, Revision B.01,
 Gaussian 16:  ES64L-G16RevB.01 20-Dec-2017

 -------------------------
 #P B3LYP/6-311+g(d) force
 -------------------------

 -----
 DPGEN
 -----
 Symbolic Z-matrix:
 Charge =  0 Multiplicity = 2

                         Standard orientation:
 ---------------------------------------------------------------------
 Center     Atomic      Atomic             Coordinates (Angstroms)
 Number     Number       Type             X           Y           Z
 ---------------------------------------------------------------------
      1         11           0       -4.694228   -0.968977    0.034676
      2         11           0       -3.363831    2.402982   -0.340400
      3         11           0        3.580959    2.142306    0.353344
      4         11           0        4.957943   -0.832161   -0.064309
      5         11           0        1.672495   -2.777869   -0.529958
      6         11           0       -0.218803    2.739425    0.008815
      7         11           0       -1.934535   -2.705707    0.537832
 ---------------------------------------------------------------------

 SCF Done:  E(UB3LYP) =  -1136.10721559     A.U. after   25 cycles

 The electronic state is 2-A.
 Alpha  occ. eigenvalues --  -38.45266 -38.45082 -38.44963 -38.44612 -38.44510
 Alpha  occ. eigenvalues --  -38.43948 -38.43780  -2.21037  -2.20862  -2.20750
 Alpha  occ. eigenvalues --   -2.20372  -2.20275  -2.19766  -2.19572  -1.14710
 Alpha  occ. eigenvalues --   -1.14699  -1.14685  -1.14529  -1.14504  -1.14501
 Alpha  occ. eigenvalues --   -1.14431  -1.14421  -1.14388  -1.14060  -1.14051
 Alpha  occ. eigenvalues --   -1.14021  -1.13940  -1.13930  -1.13884  -1.13413
 Alpha  occ. eigenvalues --   -1.13408  -1.13397  -1.13232  -1.13229  -1.13213
 Alpha  occ. eigenvalues --   -0.15614  -0.14281  -0.12898  -0.10903
 Alpha virt. eigenvalues --   -0.07863  -0.04945  -0.04480  -0.03672  -0.03522
 Alpha virt. eigenvalues --   -0.02630  -0.02191  -0.01608  -0.01160  -0.00849
 Alpha virt. eigenvalues --   -0.00690  -0.00285  -0.00022   0.00502   0.00546

  Beta  occ. eigenvalues --  -38.45241 -38.45063 -38.44954 -38.44611 -38.44442
  Beta  occ. eigenvalues --  -38.43884 -38.43748  -2.20995  -2.20829  -2.20737
  Beta  occ. eigenvalues --   -2.20377  -2.20150  -2.19646  -2.19513  -1.14684
  Beta  occ. eigenvalues --   -1.14674  -1.14639  -1.14509  -1.14486  -1.14460
  Beta  occ. eigenvalues --   -1.14417  -1.14416  -1.14357  -1.14069  -1.14060
  Beta  occ. eigenvalues --   -1.13980  -1.13855  -1.13845  -1.13795  -1.13332
  Beta  occ. eigenvalues --   -1.13331  -1.13317  -1.13193  -1.13190  -1.13170
  Beta  occ. eigenvalues --   -0.15076  -0.13652  -0.12150
  Beta virt. eigenvalues --   -0.08066  -0.07738  -0.04357  -0.03904  -0.03495
  Beta virt. eigenvalues --   -0.03291  -0.02474  -0.02091  -0.01408  -0.00801
  Beta virt. eigenvalues --   -0.00580  -0.00500  -0.00090   0.00156   0.00545

 Mulliken charges and spin densities:
               1          2
     1  Na   0.247694   0.310364
     2  Na   0.562102  -0.100128
     3  Na   0.059700   0.356058
     4  Na   0.237056   0.084851
     5  Na  -0.291384   0.317075
     6  Na  -0.405261   0.053985
     7  Na  -0.409907  -0.022204
 Sum of Mulliken charges =  -0.00000   1.00000

 Dipole moment (field-independent basis, Debye):
    X=              0.8726    Y=              0.2232    Z=             -0.0202  Tot=              0.9009
 Quadrupole moment (field-independent basis, Debye-Ang):
   XX=            -53.7394   YY=            -70.1489   ZZ=            -73.6963
   XY=             -4.8748   XZ=              0.5769   YZ=              0.2265

 Normal termination of Gaussian 16 at Sun Dec  3 19:18:52 2023.
