 Gaussian 16, Revision B.01,
 Gaussian 16:  ES64L-G16RevB.01 20-Dec-2017

 -------------------------
 #P B3LYP/6-311+g(d) force
 -------------------------

 -----
 DPGEN
 -----
 Symbolic Z-matrix:
 Charge =  0 Multiplicity = 2

                         Standard orientation:
 ---------------------------------------------------------------------
 Center     Atomic      Atomic             Coordinates (Angstroms)
 Number     Number       Type             X           Y           Z
 ---------------------------------------------------------------------
      1         11           0        3.665282   -2.242076   -0.016282
      2         11           0        4.213788    0.814770    1.167696
      3         11           0       -1.526973    3.167262   -0.939437
      4         11           0        1.325088    2.731720   -0.679525
      5         11           0       -3.308774   -2.163549    0.323317
      6         11           0       -3.808699    0.753914    1.306346
      7         11           0       -0.559712   -3.062041   -1.162116
 ---------------------------------------------------------------------

 SCF Done:  E(UB3LYP) =  -1136.10477179     A.U. after   19 cycles

 The electronic state is 2-A.
 Alpha  occ. eigenvalues --  -38.45370 -38.44780 -38.44593 -38.44317 -38.44237
 Alpha  occ. eigenvalues --  -38.44054 -38.44032  -2.21111  -2.20562  -2.20414
 Alpha  occ. eigenvalues --   -2.20116  -2.20061  -2.19879  -2.19855  -1.14790
 Alpha  occ. eigenvalues --   -1.14774  -1.14760  -1.14222  -1.14210  -1.14195
 Alpha  occ. eigenvalues --   -1.14087  -1.14053  -1.14027  -1.13860  -1.13773
 Alpha  occ. eigenvalues --   -1.13757  -1.13745  -1.13711  -1.13695  -1.13549
 Alpha  occ. eigenvalues --   -1.13541  -1.13530  -1.13498  -1.13483  -1.13457
 Alpha  occ. eigenvalues --   -0.15565  -0.14016  -0.13112  -0.11067
 Alpha virt. eigenvalues --   -0.07337  -0.04811  -0.04643  -0.03624  -0.03515
 Alpha virt. eigenvalues --   -0.02099  -0.01935  -0.01795  -0.01469  -0.00960
 Alpha virt. eigenvalues --   -0.00852  -0.00135  -0.00109   0.00398   0.00679

  Beta  occ. eigenvalues --  -38.45375 -38.44750 -38.44508 -38.44231 -38.44214
  Beta  occ. eigenvalues --  -38.44055 -38.44023  -2.21122  -2.20507  -2.20258
  Beta  occ. eigenvalues --   -2.20022  -2.19955  -2.19889  -2.19842  -1.14800
  Beta  occ. eigenvalues --   -1.14784  -1.14749  -1.14185  -1.14173  -1.14157
  Beta  occ. eigenvalues --   -1.13985  -1.13947  -1.13921  -1.13826  -1.13686
  Beta  occ. eigenvalues --   -1.13676  -1.13669  -1.13647  -1.13636  -1.13558
  Beta  occ. eigenvalues --   -1.13551  -1.13491  -1.13477  -1.13476  -1.13428
  Beta  occ. eigenvalues --   -0.15009  -0.13417  -0.12491
  Beta virt. eigenvalues --   -0.07796  -0.07381  -0.04359  -0.04146  -0.03457
  Beta virt. eigenvalues --   -0.03154  -0.01902  -0.01798  -0.01649  -0.01097
  Beta virt. eigenvalues --   -0.00770  -0.00631   0.00057   0.00154   0.00435

 Mulliken charges and spin densities:
               1          2
     1  Na   0.025392  -0.017468
     2  Na   0.222128   0.161993
     3  Na   0.086804   0.000122
     4  Na  -0.267991   0.063200
     5  Na   0.216566  -0.021934
     6  Na  -0.081514   0.386618
     7  Na  -0.201385   0.427469
 Sum of Mulliken charges =  -0.00000   1.00000

 Dipole moment (field-independent basis, Debye):
    X=              0.9158    Y=             -0.0079    Z=              0.3214  Tot=              0.9706
 Quadrupole moment (field-independent basis, Debye-Ang):
   XX=            -62.3830   YY=            -67.7831   ZZ=            -70.9938
   XY=             -3.1160   XZ=              0.7186   YZ=              3.2080

 Normal termination of Gaussian 16 at Mon Dec  4 00:52:40 2023.
