 Gaussian 16, Revision B.01,
 Gaussian 16:  ES64L-G16RevB.01 20-Dec-2017

 -------------------------
 #P B3LYP/6-311+g(d) force
 -------------------------

 -----
 DPGEN
 -----
 Symbolic Z-matrix:
 Charge =  0 Multiplicity = 2

                         Standard orientation:
 ---------------------------------------------------------------------
 Center     Atomic      Atomic             Coordinates (Angstroms)
 Number     Number       Type             X           Y           Z
 ---------------------------------------------------------------------
      1         11           0        0.002026    0.093268    1.944109
      2         11           0       -1.033361    2.686913   -0.386876
      3         11           0       -0.017366   -0.457868   -1.660898
      4         11           0       -2.903823    0.160250    0.322076
      5         11           0        2.381974   -1.457314    0.310284
      6         11           0       -0.933439   -2.697438   -0.316355
      7         11           0        2.503988    1.672189   -0.212341
 ---------------------------------------------------------------------

 SCF Done:  E(UB3LYP) =  -1136.13451793     A.U. after   19 cycles

 The electronic state is 2-A.
 Alpha  occ. eigenvalues --  -38.43673 -38.43623 -38.43562 -38.43539 -38.43408
 Alpha  occ. eigenvalues --  -38.43380 -38.43360  -2.19564  -2.19511  -2.19481
 Alpha  occ. eigenvalues --   -2.19461  -2.19415  -2.19326  -2.19239  -1.13381
 Alpha  occ. eigenvalues --   -1.13274  -1.13248  -1.13237  -1.13203  -1.13193
 Alpha  occ. eigenvalues --   -1.13155  -1.13149  -1.13134  -1.13129  -1.13110
 Alpha  occ. eigenvalues --   -1.13088  -1.13047  -1.13044  -1.12997  -1.12943
 Alpha  occ. eigenvalues --   -1.12917  -1.12907  -1.12894  -1.12874  -1.12854
 Alpha  occ. eigenvalues --   -0.19237  -0.13204  -0.12629  -0.11060
 Alpha virt. eigenvalues --   -0.05246  -0.05037  -0.04667  -0.03355  -0.03032
 Alpha virt. eigenvalues --   -0.02594  -0.01273  -0.01017  -0.00142  -0.00080
 Alpha virt. eigenvalues --    0.00065   0.00368   0.00891   0.00938   0.00953

  Beta  occ. eigenvalues --  -38.43664 -38.43619 -38.43529 -38.43474 -38.43398
  Beta  occ. eigenvalues --  -38.43372 -38.43290  -2.19551  -2.19477  -2.19446
  Beta  occ. eigenvalues --   -2.19349  -2.19333  -2.19267  -2.19228  -1.13325
  Beta  occ. eigenvalues --   -1.13253  -1.13230  -1.13213  -1.13187  -1.13152
  Beta  occ. eigenvalues --   -1.13125  -1.13121  -1.13096  -1.13060  -1.13041
  Beta  occ. eigenvalues --   -1.13010  -1.12996  -1.12969  -1.12943  -1.12909
  Beta  occ. eigenvalues --   -1.12898  -1.12879  -1.12876  -1.12861  -1.12795
  Beta  occ. eigenvalues --   -0.18501  -0.12950  -0.12348
  Beta virt. eigenvalues --   -0.07113  -0.05213  -0.05029  -0.04611  -0.02524
  Beta virt. eigenvalues --   -0.02249  -0.01542  -0.01191  -0.00946  -0.00145
  Beta virt. eigenvalues --   -0.00096   0.00145   0.00393   0.00930   0.00938

 Mulliken charges and spin densities:
               1          2
     1  Na  -0.348456   0.593367
     2  Na  -0.073698  -0.052119
     3  Na  -0.461612   0.529649
     4  Na   0.191979   0.014593
     5  Na   0.353746   0.016492
     6  Na   0.445904  -0.018699
     7  Na  -0.107862  -0.083283
 Sum of Mulliken charges =  -0.00000   1.00000

 Dipole moment (field-independent basis, Debye):
    X=              0.0226    Y=              0.1110    Z=              0.1903  Tot=              0.2214
 Quadrupole moment (field-independent basis, Debye-Ang):
   XX=            -58.9299   YY=            -62.6472   ZZ=            -72.9867
   XY=              0.5350   XZ=             -0.3075   YZ=             -1.5607

 Normal termination of Gaussian 16 at Tue Dec  5 14:20:16 2023.
