 Gaussian 16, Revision B.01,
 Gaussian 16:  ES64L-G16RevB.01 20-Dec-2017

 -------------------------
 #P B3LYP/6-311+g(d) force
 -------------------------

 -----
 DPGEN
 -----
 Symbolic Z-matrix:
 Charge =  0 Multiplicity = 2

                         Standard orientation:
 ---------------------------------------------------------------------
 Center     Atomic      Atomic             Coordinates (Angstroms)
 Number     Number       Type             X           Y           Z
 ---------------------------------------------------------------------
      1         11           0       -2.038480    2.777121    0.335657
      2         11           0       -3.608193   -0.792784   -0.680483
      3         11           0       -0.356683   -2.534866   -0.527401
      4         11           0       -0.453859    0.080242    1.725081
      5         11           0        0.569558    0.528563   -1.288568
      6         11           0        2.112972   -1.114383    1.255948
      7         11           0        3.774685    1.056107   -0.820233
 ---------------------------------------------------------------------

 SCF Done:  E(UB3LYP) =  -1136.11869499     A.U. after   23 cycles

 The electronic state is 2-A.
 Alpha  occ. eigenvalues --  -38.45415 -38.44178 -38.44113 -38.43822 -38.43744
 Alpha  occ. eigenvalues --  -38.43243 -38.42856  -2.21170  -2.20114  -2.19932
 Alpha  occ. eigenvalues --   -2.19801  -2.19744  -2.19038  -2.18739  -1.14852
 Alpha  occ. eigenvalues --   -1.14805  -1.14792  -1.13863  -1.13776  -1.13740
 Alpha  occ. eigenvalues --   -1.13696  -1.13594  -1.13575  -1.13559  -1.13436
 Alpha  occ. eigenvalues --   -1.13400  -1.13378  -1.13338  -1.13276  -1.12713
 Alpha  occ. eigenvalues --   -1.12696  -1.12673  -1.12447  -1.12393  -1.12362
 Alpha  occ. eigenvalues --   -0.18534  -0.13512  -0.11638  -0.11140
 Alpha virt. eigenvalues --   -0.06867  -0.04920  -0.04299  -0.03288  -0.02734
 Alpha virt. eigenvalues --   -0.02563  -0.02156  -0.01092  -0.00614  -0.00277
 Alpha virt. eigenvalues --   -0.00024   0.00145   0.00467   0.00696   0.00739

  Beta  occ. eigenvalues --  -38.45380 -38.44154 -38.44084 -38.43783 -38.43663
  Beta  occ. eigenvalues --  -38.43235 -38.42853  -2.21105  -2.20070  -2.19880
  Beta  occ. eigenvalues --   -2.19731  -2.19602  -2.19025  -2.18737  -1.14806
  Beta  occ. eigenvalues --   -1.14760  -1.14747  -1.13820  -1.13745  -1.13704
  Beta  occ. eigenvalues --   -1.13605  -1.13557  -1.13537  -1.13525  -1.13384
  Beta  occ. eigenvalues --   -1.13333  -1.13313  -1.13243  -1.13170  -1.12695
  Beta  occ. eigenvalues --   -1.12687  -1.12667  -1.12448  -1.12389  -1.12342
  Beta  occ. eigenvalues --   -0.17924  -0.13139  -0.11288
  Beta virt. eigenvalues --   -0.07537  -0.06492  -0.04820  -0.03941  -0.02956
  Beta virt. eigenvalues --   -0.02335  -0.02078  -0.01503  -0.00953  -0.00404
  Beta virt. eigenvalues --   -0.00185   0.00040   0.00208   0.00567   0.00746

 Mulliken charges and spin densities:
               1          2
     1  Na   0.159783  -0.068300
     2  Na   0.009108   0.163443
     3  Na  -0.274838   0.045845
     4  Na  -0.281415   0.216748
     5  Na  -0.387234   0.421527
     6  Na   0.822696   0.189286
     7  Na  -0.048099   0.031451
 Sum of Mulliken charges =  -0.00000   1.00000

 Dipole moment (field-independent basis, Debye):
    X=             -0.3465    Y=             -0.2453    Z=             -0.0661  Tot=              0.4296
 Quadrupole moment (field-independent basis, Debye-Ang):
   XX=            -51.2817   YY=            -71.0364   ZZ=            -71.0007
   XY=             -0.0753   XZ=              2.4496   YZ=             -0.4377

 Normal termination of Gaussian 16 at Tue Dec  5 19:05:09 2023.
