 Gaussian 16, Revision B.01,
 Gaussian 16:  ES64L-G16RevB.01 20-Dec-2017

 -------------------------
 #P B3LYP/6-311+g(d) force
 -------------------------

 -----
 DPGEN
 -----
 Symbolic Z-matrix:
 Charge =  0 Multiplicity = 2

                         Standard orientation:
 ---------------------------------------------------------------------
 Center     Atomic      Atomic             Coordinates (Angstroms)
 Number     Number       Type             X           Y           Z
 ---------------------------------------------------------------------
      1         11           0       -0.319343    3.034561   -0.290014
      2         11           0        2.027683   -2.268279    0.026055
      3         11           0       -1.633309   -2.623522   -0.085372
      4         11           0        0.387203   -0.120861   -1.879786
      5         11           0        2.926255    1.183110    0.164912
      6         11           0       -0.090469    0.152767    2.110079
      7         11           0       -3.298020    0.642224   -0.045875
 ---------------------------------------------------------------------

 SCF Done:  E(UB3LYP) =  -1136.13786333     A.U. after   18 cycles

 The electronic state is 2-A.
 Alpha  occ. eigenvalues --  -38.44204 -38.43978 -38.43885 -38.43656 -38.43616
 Alpha  occ. eigenvalues --  -38.43614 -38.43601  -2.19971  -2.19796  -2.19728
 Alpha  occ. eigenvalues --   -2.19498  -2.19456  -2.19453  -2.19413  -1.13650
 Alpha  occ. eigenvalues --   -1.13626  -1.13617  -1.13471  -1.13465  -1.13435
 Alpha  occ. eigenvalues --   -1.13391  -1.13358  -1.13346  -1.13205  -1.13161
 Alpha  occ. eigenvalues --   -1.13142  -1.13130  -1.13115  -1.13109  -1.13100
 Alpha  occ. eigenvalues --   -1.13095  -1.13082  -1.13073  -1.13072  -1.13044
 Alpha  occ. eigenvalues --   -0.18076  -0.12696  -0.12352  -0.10760
 Alpha virt. eigenvalues --   -0.05713  -0.05301  -0.04918  -0.03166  -0.02998
 Alpha virt. eigenvalues --   -0.02718  -0.01499  -0.01180  -0.00636  -0.00538
 Alpha virt. eigenvalues --   -0.00054   0.00374   0.00760   0.00843   0.00850

  Beta  occ. eigenvalues --  -38.44206 -38.43973 -38.43793 -38.43654 -38.43612
  Beta  occ. eigenvalues --  -38.43608 -38.43529  -2.19976  -2.19791  -2.19559
  Beta  occ. eigenvalues --   -2.19455  -2.19449  -2.19405  -2.19365  -1.13640
  Beta  occ. eigenvalues --   -1.13630  -1.13623  -1.13464  -1.13440  -1.13435
  Beta  occ. eigenvalues --   -1.13281  -1.13240  -1.13224  -1.13163  -1.13126
  Beta  occ. eigenvalues --   -1.13117  -1.13101  -1.13095  -1.13090  -1.13073
  Beta  occ. eigenvalues --   -1.13064  -1.13062  -1.13042  -1.13025  -1.13009
  Beta  occ. eigenvalues --   -0.17332  -0.12526  -0.12137
  Beta virt. eigenvalues --   -0.06867  -0.05679  -0.05330  -0.04760  -0.02418
  Beta virt. eigenvalues --   -0.02231  -0.01702  -0.01405  -0.01101  -0.00687
  Beta virt. eigenvalues --   -0.00605   0.00097   0.00396   0.00819   0.00837

 Mulliken charges and spin densities:
               1          2
     1  Na   0.002236  -0.116793
     2  Na   0.203930  -0.064411
     3  Na  -0.000438  -0.125068
     4  Na  -0.048904   0.668071
     5  Na   0.215623  -0.043626
     6  Na  -0.344798   0.793749
     7  Na  -0.027648  -0.111921
 Sum of Mulliken charges =  -0.00000   1.00000

 Dipole moment (field-independent basis, Debye):
    X=              0.0056    Y=              0.0689    Z=              0.0625  Tot=              0.0932
 Quadrupole moment (field-independent basis, Debye-Ang):
   XX=            -57.4311   YY=            -62.6230   ZZ=            -74.0157
   XY=             -0.0079   XZ=              1.0201   YZ=             -0.5582

 Normal termination of Gaussian 16 at Thu Dec  7 20:49:36 2023.
