 Gaussian 16, Revision B.01,
 Gaussian 16:  ES64L-G16RevB.01 20-Dec-2017

 -------------------------
 #P B3LYP/6-311+g(d) force
 -------------------------

 -----
 DPGEN
 -----
 Symbolic Z-matrix:
 Charge =  0 Multiplicity = 2

                         Standard orientation:
 ---------------------------------------------------------------------
 Center     Atomic      Atomic             Coordinates (Angstroms)
 Number     Number       Type             X           Y           Z
 ---------------------------------------------------------------------
      1         11           0        2.637213   -1.867219   -0.979009
      2         11           0       -3.464119   -1.968123    0.860435
      3         11           0       -0.246270   -3.182829   -0.920143
      4         11           0       -3.518409    1.419801   -0.018624
      5         11           0       -0.731919    3.617611   -0.624395
      6         11           0        2.516386    2.044401   -0.318280
      7         11           0        2.807119   -0.063643    2.000016
 ---------------------------------------------------------------------

 SCF Done:  E(UB3LYP) =  -1136.11290061     A.U. after   21 cycles

 The electronic state is 2-A.
 Alpha  occ. eigenvalues --  -38.44910 -38.44821 -38.44735 -38.44476 -38.44138
 Alpha  occ. eigenvalues --  -38.44066 -38.43499  -2.20749  -2.20627  -2.20485
 Alpha  occ. eigenvalues --   -2.20313  -2.19916  -2.19862  -2.19285  -1.14456
 Alpha  occ. eigenvalues --   -1.14385  -1.14378  -1.14305  -1.14290  -1.14232
 Alpha  occ. eigenvalues --   -1.14175  -1.14159  -1.14121  -1.14003  -1.13989
 Alpha  occ. eigenvalues --   -1.13932  -1.13579  -1.13561  -1.13550  -1.13531
 Alpha  occ. eigenvalues --   -1.13525  -1.13485  -1.12945  -1.12934  -1.12919
 Alpha  occ. eigenvalues --   -0.16298  -0.13700  -0.13072  -0.10656
 Alpha virt. eigenvalues --   -0.06948  -0.05891  -0.04023  -0.03704  -0.03127
 Alpha virt. eigenvalues --   -0.02252  -0.01898  -0.01601  -0.01348  -0.01134
 Alpha virt. eigenvalues --   -0.00254  -0.00099  -0.00026   0.00519   0.00591

  Beta  occ. eigenvalues --  -38.44848 -38.44815 -38.44735 -38.44443 -38.44095
  Beta  occ. eigenvalues --  -38.44033 -38.43451  -2.20635  -2.20621  -2.20489
  Beta  occ. eigenvalues --   -2.20258  -2.19836  -2.19806  -2.19197  -1.14393
  Beta  occ. eigenvalues --   -1.14312  -1.14306  -1.14292  -1.14280  -1.14190
  Beta  occ. eigenvalues --   -1.14182  -1.14166  -1.14095  -1.13962  -1.13953
  Beta  occ. eigenvalues --   -1.13867  -1.13525  -1.13510  -1.13494  -1.13491
  Beta  occ. eigenvalues --   -1.13490  -1.13426  -1.12884  -1.12876  -1.12862
  Beta  occ. eigenvalues --   -0.15778  -0.13139  -0.12295
  Beta virt. eigenvalues --   -0.07482  -0.07054  -0.05513  -0.03627  -0.03407
  Beta virt. eigenvalues --   -0.02734  -0.01898  -0.01693  -0.01479  -0.01149
  Beta virt. eigenvalues --   -0.00974  -0.00034   0.00171   0.00233   0.00517

 Mulliken charges and spin densities:
               1          2
     1  Na   0.306284   0.103186
     2  Na   0.027116   0.214055
     3  Na  -0.264015   0.076770
     4  Na  -0.228503   0.030536
     5  Na   0.245797   0.232487
     6  Na  -0.265158   0.067632
     7  Na   0.178479   0.275335
 Sum of Mulliken charges =  -0.00000   1.00000

 Dipole moment (field-independent basis, Debye):
    X=              1.0240    Y=             -0.2667    Z=              0.6055  Tot=              1.2192
 Quadrupole moment (field-independent basis, Debye-Ang):
   XX=            -63.4451   YY=            -70.9575   ZZ=            -68.0538
   XY=              0.8511   XZ=             -1.3619   YZ=             -2.9104

 Normal termination of Gaussian 16 at Sun Dec  3 13:45:16 2023.
