 Gaussian 16, Revision B.01,
 Gaussian 16:  ES64L-G16RevB.01 20-Dec-2017

 -------------------------
 #P B3LYP/6-311+g(d) force
 -------------------------

 -----
 DPGEN
 -----
 Symbolic Z-matrix:
 Charge =  0 Multiplicity = 2

                         Standard orientation:
 ---------------------------------------------------------------------
 Center     Atomic      Atomic             Coordinates (Angstroms)
 Number     Number       Type             X           Y           Z
 ---------------------------------------------------------------------
      1         11           0        1.919602   -1.962582    0.681206
      2         11           0        2.194462    1.802072    0.681543
      3         11           0       -0.877595    3.373570   -0.327872
      4         11           0        4.572080   -0.722130   -0.704477
      5         11           0       -3.156504   -3.095304   -0.133785
      6         11           0       -3.888761    1.034711    0.141561
      7         11           0       -0.763284   -0.430337   -0.338175
 ---------------------------------------------------------------------

 SCF Done:  E(UB3LYP) =  -1136.12047250     A.U. after   21 cycles

 The electronic state is 2-A.
 Alpha  occ. eigenvalues --  -38.45019 -38.44722 -38.44453 -38.44218 -38.43733
 Alpha  occ. eigenvalues --  -38.43521 -38.43394  -2.20742  -2.20518  -2.20297
 Alpha  occ. eigenvalues --   -2.20013  -2.19575  -2.19300  -2.19288  -1.14430
 Alpha  occ. eigenvalues --   -1.14402  -1.14385  -1.14218  -1.14188  -1.14122
 Alpha  occ. eigenvalues --   -1.13996  -1.13979  -1.13916  -1.13680  -1.13668
 Alpha  occ. eigenvalues --   -1.13613  -1.13227  -1.13213  -1.13185  -1.12996
 Alpha  occ. eigenvalues --   -1.12986  -1.12977  -1.12956  -1.12947  -1.12877
 Alpha  occ. eigenvalues --   -0.16932  -0.14019  -0.12132  -0.10149
 Alpha virt. eigenvalues --   -0.06945  -0.05466  -0.04878  -0.03324  -0.02594
 Alpha virt. eigenvalues --   -0.02433  -0.02120  -0.01626  -0.01091  -0.00797
 Alpha virt. eigenvalues --   -0.00083   0.00073   0.00327   0.00442   0.00495

  Beta  occ. eigenvalues --  -38.45039 -38.44703 -38.44438 -38.44146 -38.43650
  Beta  occ. eigenvalues --  -38.43526 -38.43358  -2.20780  -2.20486  -2.20276
  Beta  occ. eigenvalues --   -2.19878  -2.19419  -2.19312  -2.19227  -1.14457
  Beta  occ. eigenvalues --   -1.14418  -1.14412  -1.14196  -1.14159  -1.14093
  Beta  occ. eigenvalues --   -1.13974  -1.13949  -1.13886  -1.13587  -1.13579
  Beta  occ. eigenvalues --   -1.13521  -1.13121  -1.13106  -1.13086  -1.12997
  Beta  occ. eigenvalues --   -1.12968  -1.12955  -1.12935  -1.12906  -1.12838
  Beta  occ. eigenvalues --   -0.16338  -0.13418  -0.11953
  Beta virt. eigenvalues --   -0.06838  -0.06604  -0.05160  -0.04651  -0.02796
  Beta virt. eigenvalues --   -0.02356  -0.02133  -0.01696  -0.01586  -0.01042
  Beta virt. eigenvalues --   -0.00406   0.00215   0.00287   0.00434   0.00550

 Mulliken charges and spin densities:
               1          2
     1  Na  -0.039218   0.150645
     2  Na   0.372452   0.097532
     3  Na   0.365846  -0.059048
     4  Na   0.512478   0.460905
     5  Na   0.179197  -0.070797
     6  Na   0.537477   0.426252
     7  Na  -1.928231  -0.005488
 Sum of Mulliken charges =  -0.00000   1.00000

 Dipole moment (field-independent basis, Debye):
    X=             -0.3178    Y=             -0.4614    Z=              0.3330  Tot=              0.6517
 Quadrupole moment (field-independent basis, Debye-Ang):
   XX=            -66.6931   YY=            -60.1903   ZZ=            -70.7717
   XY=              7.1477   XZ=              0.3065   YZ=             -0.6810

 Normal termination of Gaussian 16 at Wed Nov 29 17:22:12 2023.
