 Gaussian 16, Revision B.01,
 Gaussian 16:  ES64L-G16RevB.01 20-Dec-2017

 -------------------------
 #P B3LYP/6-311+g(d) force
 -------------------------

 -----
 DPGEN
 -----
 Symbolic Z-matrix:
 Charge =  0 Multiplicity = 2

                         Standard orientation:
 ---------------------------------------------------------------------
 Center     Atomic      Atomic             Coordinates (Angstroms)
 Number     Number       Type             X           Y           Z
 ---------------------------------------------------------------------
      1         11           0        2.209580   -0.360937    2.002346
      2         11           0       -3.649505   -0.369532   -0.230166
      3         11           0       -0.209059   -1.825025   -1.924010
      4         11           0       -1.531129   -1.720040    1.602572
      5         11           0       -1.926783    2.681240   -0.482916
      6         11           0        3.582941   -0.402965   -1.295964
      7         11           0        1.523955    1.997259    0.328138
 ---------------------------------------------------------------------

 SCF Done:  E(UB3LYP) =  -1136.11418581     A.U. after   23 cycles

 The electronic state is 2-A.
 Alpha  occ. eigenvalues --  -38.45215 -38.45173 -38.44842 -38.44650 -38.44101
 Alpha  occ. eigenvalues --  -38.43716 -38.42789  -2.21002  -2.20917  -2.20659
 Alpha  occ. eigenvalues --   -2.20513  -2.19924  -2.19568  -2.18565  -1.14678
 Alpha  occ. eigenvalues --   -1.14644  -1.14633  -1.14594  -1.14580  -1.14523
 Alpha  occ. eigenvalues --   -1.14374  -1.14310  -1.14282  -1.14243  -1.14134
 Alpha  occ. eigenvalues --   -1.14120  -1.13592  -1.13576  -1.13549  -1.13282
 Alpha  occ. eigenvalues --   -1.13233  -1.13168  -1.12242  -1.12230  -1.12212
 Alpha  occ. eigenvalues --   -0.17257  -0.14006  -0.11476  -0.11158
 Alpha virt. eigenvalues --   -0.06855  -0.05401  -0.05270  -0.03457  -0.03042
 Alpha virt. eigenvalues --   -0.02487  -0.02217  -0.01040  -0.00900  -0.00350
 Alpha virt. eigenvalues --   -0.00160   0.00065   0.00214   0.00366   0.00451

  Beta  occ. eigenvalues --  -38.45183 -38.45123 -38.44841 -38.44589 -38.44066
  Beta  occ. eigenvalues --  -38.43711 -38.42792  -2.20943  -2.20826  -2.20657
  Beta  occ. eigenvalues --   -2.20402  -2.19858  -2.19560  -2.18571  -1.14635
  Beta  occ. eigenvalues --   -1.14604  -1.14585  -1.14531  -1.14519  -1.14452
  Beta  occ. eigenvalues --   -1.14368  -1.14307  -1.14283  -1.14166  -1.14058
  Beta  occ. eigenvalues --   -1.14036  -1.13547  -1.13531  -1.13500  -1.13258
  Beta  occ. eigenvalues --   -1.13220  -1.13176  -1.12244  -1.12235  -1.12216
  Beta  occ. eigenvalues --   -0.16647  -0.13882  -0.11100
  Beta virt. eigenvalues --   -0.07643  -0.06592  -0.05059  -0.04659  -0.03304
  Beta virt. eigenvalues --   -0.02416  -0.02090  -0.01905  -0.00918  -0.00593
  Beta virt. eigenvalues --   -0.00223  -0.00087   0.00174   0.00340   0.00569

 Mulliken charges and spin densities:
               1          2
     1  Na   0.368479   0.069817
     2  Na   0.242938   0.109134
     3  Na  -0.198764   0.299846
     4  Na  -0.175515   0.186515
     5  Na   0.025977  -0.138732
     6  Na   0.279933   0.132048
     7  Na  -0.543047   0.341372
 Sum of Mulliken charges =  -0.00000   1.00000

 Dipole moment (field-independent basis, Debye):
    X=              0.6464    Y=             -1.1296    Z=             -0.3422  Tot=              1.3458
 Quadrupole moment (field-independent basis, Debye-Ang):
   XX=            -52.0031   YY=            -78.6283   ZZ=            -67.9663
   XY=              1.9237   XZ=             -0.3106   YZ=             -0.3622

 Normal termination of Gaussian 16 at Sun Dec  3 22:38:28 2023.
