 Gaussian 16, Revision B.01,
 Gaussian 16:  ES64L-G16RevB.01 20-Dec-2017

 -------------------------
 #P B3LYP/6-311+g(d) force
 -------------------------

 -----
 DPGEN
 -----
 Symbolic Z-matrix:
 Charge =  0 Multiplicity = 2

                         Standard orientation:
 ---------------------------------------------------------------------
 Center     Atomic      Atomic             Coordinates (Angstroms)
 Number     Number       Type             X           Y           Z
 ---------------------------------------------------------------------
      1         11           0        1.766859    2.909378    0.506647
      2         11           0       -0.004919   -2.494114    1.041117
      3         11           0       -1.577577    3.091957    0.096074
      4         11           0        4.575762    0.805615   -0.625062
      5         11           0       -3.381438   -2.564403   -0.365910
      6         11           0        3.397031   -2.567389   -0.273294
      7         11           0       -4.775718    0.818956   -0.379572
 ---------------------------------------------------------------------

 SCF Done:  E(UB3LYP) =  -1136.10538282     A.U. after   22 cycles

 The electronic state is 2-A.
 Alpha  occ. eigenvalues --  -38.45389 -38.45301 -38.44617 -38.44612 -38.44493
 Alpha  occ. eigenvalues --  -38.44255 -38.44183  -2.21122  -2.21040  -2.20400
 Alpha  occ. eigenvalues --   -2.20383  -2.20256  -2.20028  -2.19958  -1.14811
 Alpha  occ. eigenvalues --   -1.14792  -1.14762  -1.14728  -1.14710  -1.14684
 Alpha  occ. eigenvalues --   -1.14060  -1.14043  -1.14042  -1.14027  -1.14022
 Alpha  occ. eigenvalues --   -1.14009  -1.13931  -1.13927  -1.13890  -1.13703
 Alpha  occ. eigenvalues --   -1.13695  -1.13656  -1.13617  -1.13613  -1.13576
 Alpha  occ. eigenvalues --   -0.15380  -0.13843  -0.12980  -0.10831
 Alpha virt. eigenvalues --   -0.07909  -0.05042  -0.04774  -0.03533  -0.03466
 Alpha virt. eigenvalues --   -0.02468  -0.01954  -0.01882  -0.01356  -0.00933
 Alpha virt. eigenvalues --   -0.00883  -0.00336   0.00041   0.00322   0.00599

  Beta  occ. eigenvalues --  -38.45396 -38.45309 -38.44559 -38.44546 -38.44469
  Beta  occ. eigenvalues --  -38.44237 -38.44123  -2.21140  -2.21060  -2.20291
  Beta  occ. eigenvalues --   -2.20261  -2.20214  -2.20000  -2.19846  -1.14827
  Beta  occ. eigenvalues --   -1.14807  -1.14746  -1.14745  -1.14726  -1.14668
  Beta  occ. eigenvalues --   -1.13986  -1.13972  -1.13960  -1.13952  -1.13942
  Beta  occ. eigenvalues --   -1.13926  -1.13906  -1.13899  -1.13842  -1.13688
  Beta  occ. eigenvalues --   -1.13679  -1.13613  -1.13541  -1.13535  -1.13507
  Beta  occ. eigenvalues --   -0.14833  -0.13154  -0.12343
  Beta virt. eigenvalues --   -0.08074  -0.07742  -0.04561  -0.04150  -0.03350
  Beta virt. eigenvalues --   -0.03138  -0.02300  -0.01939  -0.01693  -0.01036
  Beta virt. eigenvalues --   -0.00748  -0.00606  -0.00003   0.00258   0.00290

 Mulliken charges and spin densities:
               1          2
     1  Na   0.068857  -0.017343
     2  Na  -0.751244   0.303005
     3  Na  -0.076701   0.111050
     4  Na   0.255877   0.297522
     5  Na   0.362552  -0.036040
     6  Na   0.267822  -0.024683
     7  Na  -0.127163   0.366490
 Sum of Mulliken charges =  -0.00000   1.00000

 Dipole moment (field-independent basis, Debye):
    X=              0.0627    Y=             -0.6118    Z=             -0.2852  Tot=              0.6779
 Quadrupole moment (field-independent basis, Debye-Ang):
   XX=            -59.1266   YY=            -65.8692   ZZ=            -73.4107
   XY=             -0.4542   XZ=              0.1453   YZ=              1.6450

 Normal termination of Gaussian 16 at Mon Dec  4 00:27:08 2023.
