 Gaussian 16, Revision B.01,
 Gaussian 16:  ES64L-G16RevB.01 20-Dec-2017

 -------------------------
 #P B3LYP/6-311+g(d) force
 -------------------------

 -----
 DPGEN
 -----
 Symbolic Z-matrix:
 Charge =  0 Multiplicity = 2

                         Standard orientation:
 ---------------------------------------------------------------------
 Center     Atomic      Atomic             Coordinates (Angstroms)
 Number     Number       Type             X           Y           Z
 ---------------------------------------------------------------------
      1         11           0        0.602231   -1.263736    1.544799
      2         11           0        3.226735   -1.086726   -0.478930
      3         11           0       -1.333697    2.222151   -0.187075
      4         11           0       -2.852662   -1.031874   -1.134326
      5         11           0       -1.880459   -0.413550    1.575125
      6         11           0        1.880176    1.935748    0.370213
      7         11           0        0.357676   -0.362014   -1.689805
 ---------------------------------------------------------------------

 SCF Done:  E(UB3LYP) =  -1136.11719596     A.U. after   24 cycles

 The electronic state is 2-A.
 Alpha  occ. eigenvalues --  -38.44621 -38.44296 -38.44228 -38.44064 -38.44001
 Alpha  occ. eigenvalues --  -38.43297 -38.42562  -2.20514  -2.20346  -2.20104
 Alpha  occ. eigenvalues --   -2.20045  -2.19992  -2.19181  -2.18468  -1.14405
 Alpha  occ. eigenvalues --   -1.14262  -1.14179  -1.14119  -1.13919  -1.13889
 Alpha  occ. eigenvalues --   -1.13828  -1.13770  -1.13743  -1.13731  -1.13664
 Alpha  occ. eigenvalues --   -1.13648  -1.13587  -1.13568  -1.13507  -1.12862
 Alpha  occ. eigenvalues --   -1.12848  -1.12809  -1.12156  -1.12138  -1.12089
 Alpha  occ. eigenvalues --   -0.19441  -0.14149  -0.11990  -0.11385
 Alpha virt. eigenvalues --   -0.06093  -0.05116  -0.04358  -0.03572  -0.02816
 Alpha virt. eigenvalues --   -0.02578  -0.01942  -0.00860  -0.00312   0.00158
 Alpha virt. eigenvalues --    0.00256   0.00392   0.00639   0.00740   0.00859

  Beta  occ. eigenvalues --  -38.44585 -38.44243 -38.44222 -38.44002 -38.43940
  Beta  occ. eigenvalues --  -38.43291 -38.42556  -2.20450  -2.20255  -2.20094
  Beta  occ. eigenvalues --   -2.19933  -2.19886  -2.19172  -2.18460  -1.14314
  Beta  occ. eigenvalues --   -1.14220  -1.14117  -1.14074  -1.13856  -1.13820
  Beta  occ. eigenvalues --   -1.13797  -1.13752  -1.13737  -1.13665  -1.13586
  Beta  occ. eigenvalues --   -1.13574  -1.13520  -1.13482  -1.13423  -1.12855
  Beta  occ. eigenvalues --   -1.12829  -1.12806  -1.12149  -1.12123  -1.12078
  Beta  occ. eigenvalues --   -0.18694  -0.13949  -0.11189
  Beta virt. eigenvalues --   -0.07847  -0.05962  -0.04866  -0.03853  -0.03226
  Beta virt. eigenvalues --   -0.02087  -0.01867  -0.01768  -0.00699  -0.00132
  Beta virt. eigenvalues --    0.00231   0.00293   0.00497   0.00733   0.00811

 Mulliken charges and spin densities:
               1          2
     1  Na  -0.776097   0.296593
     2  Na   1.521163   0.124014
     3  Na  -0.438294   0.198012
     4  Na   0.122052   0.080640
     5  Na   0.615625   0.050452
     6  Na  -0.305663  -0.007353
     7  Na  -0.738787   0.257642
 Sum of Mulliken charges =  -0.00000   1.00000

 Dipole moment (field-independent basis, Debye):
    X=              0.3265    Y=             -0.2199    Z=             -0.5506  Tot=              0.6769
 Quadrupole moment (field-independent basis, Debye-Ang):
   XX=            -51.0962   YY=            -76.1327   ZZ=            -68.3790
   XY=             -0.2828   XZ=              1.4187   YZ=              3.3441

 Normal termination of Gaussian 16 at Fri Dec  8 17:54:16 2023.
