 Gaussian 16, Revision B.01,
 Gaussian 16:  ES64L-G16RevB.01 20-Dec-2017

 -------------------------
 #P B3LYP/6-311+g(d) force
 -------------------------

 -----
 DPGEN
 -----
 Symbolic Z-matrix:
 Charge =  0 Multiplicity = 2

                         Standard orientation:
 ---------------------------------------------------------------------
 Center     Atomic      Atomic             Coordinates (Angstroms)
 Number     Number       Type             X           Y           Z
 ---------------------------------------------------------------------
      1         11           0        0.304504   -0.023254   -1.865182
      2         11           0       -3.134737   -0.439859   -0.070288
      3         11           0        0.241816   -0.066157    2.066195
      4         11           0       -1.410284    2.279998    0.022538
      5         11           0        2.777971   -1.460853   -0.007432
      6         11           0       -0.629087   -2.603611   -0.068650
      7         11           0        1.849817    2.313736   -0.077182
 ---------------------------------------------------------------------

 SCF Done:  E(UB3LYP) =  -1136.13940224     A.U. after   18 cycles

 The electronic state is 2-A.
 Alpha  occ. eigenvalues --  -38.43891 -38.43770 -38.43674 -38.43511 -38.43468
 Alpha  occ. eigenvalues --  -38.43274 -38.43159  -2.19722  -2.19674  -2.19521
 Alpha  occ. eigenvalues --   -2.19469  -2.19336  -2.19165  -2.19064  -1.13402
 Alpha  occ. eigenvalues --   -1.13394  -1.13360  -1.13339  -1.13306  -1.13289
 Alpha  occ. eigenvalues --   -1.13207  -1.13185  -1.13173  -1.13149  -1.13133
 Alpha  occ. eigenvalues --   -1.13087  -1.13009  -1.12996  -1.12970  -1.12846
 Alpha  occ. eigenvalues --   -1.12837  -1.12775  -1.12736  -1.12725  -1.12693
 Alpha  occ. eigenvalues --   -0.18917  -0.12894  -0.12624  -0.11114
 Alpha virt. eigenvalues --   -0.05495  -0.05074  -0.04459  -0.03195  -0.03119
 Alpha virt. eigenvalues --   -0.02887  -0.01426  -0.01041  -0.00103  -0.00066
 Alpha virt. eigenvalues --   -0.00045   0.00370   0.00826   0.00922   0.00962

  Beta  occ. eigenvalues --  -38.43888 -38.43676 -38.43674 -38.43464 -38.43434
  Beta  occ. eigenvalues --  -38.43267 -38.43153  -2.19719  -2.19524  -2.19502
  Beta  occ. eigenvalues --   -2.19331  -2.19326  -2.19155  -2.19057  -1.13392
  Beta  occ. eigenvalues --   -1.13369  -1.13362  -1.13230  -1.13212  -1.13188
  Beta  occ. eigenvalues --   -1.13182  -1.13168  -1.13157  -1.13072  -1.13046
  Beta  occ. eigenvalues --   -1.12995  -1.12988  -1.12966  -1.12951  -1.12838
  Beta  occ. eigenvalues --   -1.12796  -1.12774  -1.12734  -1.12694  -1.12689
  Beta  occ. eigenvalues --   -0.18146  -0.12678  -0.12366
  Beta virt. eigenvalues --   -0.07159  -0.05472  -0.05055  -0.04431  -0.02409
  Beta virt. eigenvalues --   -0.02269  -0.01805  -0.01358  -0.00985  -0.00161
  Beta virt. eigenvalues --   -0.00110   0.00088   0.00380   0.00871   0.00913

 Mulliken charges and spin densities:
               1          2
     1  Na  -0.397132   0.615769
     2  Na  -0.066046  -0.074788
     3  Na  -0.564088   0.723653
     4  Na   0.203475  -0.001877
     5  Na   0.266204  -0.126240
     6  Na   0.277367  -0.041767
     7  Na   0.280220  -0.094749
 Sum of Mulliken charges =  -0.00000   1.00000

 Dipole moment (field-independent basis, Debye):
    X=              0.3307    Y=             -0.1213    Z=              0.0960  Tot=              0.3651
 Quadrupole moment (field-independent basis, Debye-Ang):
   XX=            -57.5146   YY=            -64.9734   ZZ=            -72.1687
   XY=              0.0642   XZ=              0.1704   YZ=              0.0763

 Normal termination of Gaussian 16 at Tue Dec  5 12:27:34 2023.
