 Gaussian 16, Revision B.01,
 Gaussian 16:  ES64L-G16RevB.01 20-Dec-2017

 -------------------------
 #P B3LYP/6-311+g(d) force
 -------------------------

 -----
 DPGEN
 -----
 Symbolic Z-matrix:
 Charge =  0 Multiplicity = 2

                         Standard orientation:
 ---------------------------------------------------------------------
 Center     Atomic      Atomic             Coordinates (Angstroms)
 Number     Number       Type             X           Y           Z
 ---------------------------------------------------------------------
      1         11           0       -0.011561    0.049903    1.762311
      2         11           0       -0.188663    0.083930   -1.749862
      3         11           0       -1.799469    1.811178    0.052892
      4         11           0        1.046764    1.941779   -0.021523
      5         11           0        2.794635   -0.363009   -0.055964
      6         11           0        0.497649   -2.109942   -0.002551
      7         11           0       -2.339355   -1.413839    0.014698
 ---------------------------------------------------------------------

 SCF Done:  E(UB3LYP) =  -1136.09856754     A.U. after   18 cycles

 The electronic state is 2-A.
 Alpha  occ. eigenvalues --  -38.43877 -38.43838 -38.43827 -38.43465 -38.43395
 Alpha  occ. eigenvalues --  -38.43341 -38.43251  -2.20079  -2.20042  -2.19835
 Alpha  occ. eigenvalues --   -2.19568  -2.19466  -2.19402  -2.19391  -1.13943
 Alpha  occ. eigenvalues --   -1.13840  -1.13810  -1.13747  -1.13713  -1.13658
 Alpha  occ. eigenvalues --   -1.13600  -1.13557  -1.13438  -1.13309  -1.13249
 Alpha  occ. eigenvalues --   -1.13160  -1.13142  -1.13121  -1.13100  -1.13038
 Alpha  occ. eigenvalues --   -1.13020  -1.13018  -1.13005  -1.12927  -1.12896
 Alpha  occ. eigenvalues --   -0.21200  -0.13727  -0.12961  -0.11886
 Alpha virt. eigenvalues --   -0.05180  -0.04488  -0.04110  -0.03453  -0.03167
 Alpha virt. eigenvalues --   -0.02706  -0.01257  -0.00603  -0.00048   0.00359
 Alpha virt. eigenvalues --    0.00629   0.00691   0.00969   0.01098   0.01124

  Beta  occ. eigenvalues --  -38.43821 -38.43784 -38.43747 -38.43458 -38.43377
  Beta  occ. eigenvalues --  -38.43329 -38.43235  -2.19911  -2.19877  -2.19830
  Beta  occ. eigenvalues --   -2.19544  -2.19458  -2.19388  -2.19370  -1.13861
  Beta  occ. eigenvalues --   -1.13732  -1.13699  -1.13640  -1.13636  -1.13598
  Beta  occ. eigenvalues --   -1.13539  -1.13510  -1.13396  -1.13289  -1.13240
  Beta  occ. eigenvalues --   -1.13129  -1.13113  -1.13079  -1.13049  -1.13013
  Beta  occ. eigenvalues --   -1.13005  -1.12975  -1.12927  -1.12923  -1.12891
  Beta  occ. eigenvalues --   -0.20387  -0.13391  -0.12591
  Beta virt. eigenvalues --   -0.07732  -0.05205  -0.04477  -0.04104  -0.02539
  Beta virt. eigenvalues --   -0.02223  -0.01611  -0.01187  -0.00559   0.00091
  Beta virt. eigenvalues --    0.00389   0.00588   0.00665   0.01003   0.01094

 Mulliken charges and spin densities:
               1          2
     1  Na  -0.356115   0.480315
     2  Na  -0.355528   0.479197
     3  Na   0.213211  -0.022263
     4  Na   0.290903   0.094529
     5  Na  -0.123934  -0.078264
     6  Na   0.259026   0.101381
     7  Na   0.072437  -0.054896
 Sum of Mulliken charges =  -0.00000   1.00000

 Dipole moment (field-independent basis, Debye):
    X=             -0.1154    Y=             -0.1111    Z=              0.0033  Tot=              0.1602
 Quadrupole moment (field-independent basis, Debye-Ang):
   XX=            -57.5388   YY=            -68.7292   ZZ=            -70.0274
   XY=             -0.1587   XZ=             -0.3972   YZ=              0.0834

 Normal termination of Gaussian 16 at Fri Dec  8 19:01:00 2023.
