 Gaussian 16, Revision B.01,
 Gaussian 16:  ES64L-G16RevB.01 20-Dec-2017

 -------------------------
 #P B3LYP/6-311+g(d) force
 -------------------------

 -----
 DPGEN
 -----
 Symbolic Z-matrix:
 Charge =  0 Multiplicity = 2

                         Standard orientation:
 ---------------------------------------------------------------------
 Center     Atomic      Atomic             Coordinates (Angstroms)
 Number     Number       Type             X           Y           Z
 ---------------------------------------------------------------------
      1         11           0        2.525189   -2.472261   -0.338497
      2         11           0       -3.744337   -1.297765    0.553003
      3         11           0       -2.434947    1.997583   -0.221286
      4         11           0        0.659196    2.311042   -0.821251
      5         11           0       -0.013586   -0.333713    1.870277
      6         11           0        3.541627    1.131468    0.588424
      7         11           0       -0.533142   -1.336354   -1.630669
 ---------------------------------------------------------------------

 SCF Done:  E(UB3LYP) =  -1136.12187309     A.U. after   22 cycles

 The electronic state is 2-A.
 Alpha  occ. eigenvalues --  -38.45458 -38.44693 -38.44667 -38.44063 -38.43988
 Alpha  occ. eigenvalues --  -38.43718 -38.42697  -2.21235  -2.20466  -2.20448
 Alpha  occ. eigenvalues --   -2.19893  -2.19762  -2.19549  -2.18560  -1.14933
 Alpha  occ. eigenvalues --   -1.14891  -1.14840  -1.14129  -1.14127  -1.14121
 Alpha  occ. eigenvalues --   -1.14099  -1.14091  -1.14077  -1.13582  -1.13563
 Alpha  occ. eigenvalues --   -1.13520  -1.13438  -1.13423  -1.13406  -1.13231
 Alpha  occ. eigenvalues --   -1.13196  -1.13155  -1.12241  -1.12219  -1.12203
 Alpha  occ. eigenvalues --   -0.17586  -0.13429  -0.11786  -0.10522
 Alpha virt. eigenvalues --   -0.06993  -0.05938  -0.04118  -0.03271  -0.02957
 Alpha virt. eigenvalues --   -0.02551  -0.02242  -0.01601  -0.00881  -0.00476
 Alpha virt. eigenvalues --    0.00003   0.00095   0.00318   0.00569   0.00620

  Beta  occ. eigenvalues --  -38.45420 -38.44665 -38.44644 -38.44052 -38.43984
  Beta  occ. eigenvalues --  -38.43656 -38.42681  -2.21162  -2.20415  -2.20405
  Beta  occ. eigenvalues --   -2.19876  -2.19757  -2.19434  -2.18533  -1.14877
  Beta  occ. eigenvalues --   -1.14845  -1.14783  -1.14094  -1.14089  -1.14086
  Beta  occ. eigenvalues --   -1.14071  -1.14058  -1.14049  -1.13571  -1.13537
  Beta  occ. eigenvalues --   -1.13502  -1.13434  -1.13414  -1.13394  -1.13156
  Beta  occ. eigenvalues --   -1.13110  -1.13072  -1.12225  -1.12202  -1.12161
  Beta  occ. eigenvalues --   -0.16996  -0.13125  -0.11435
  Beta virt. eigenvalues --   -0.07125  -0.06608  -0.05901  -0.03736  -0.02948
  Beta virt. eigenvalues --   -0.02504  -0.02080  -0.01674  -0.01418  -0.00814
  Beta virt. eigenvalues --   -0.00221   0.00028   0.00151   0.00449   0.00675

 Mulliken charges and spin densities:
               1          2
     1  Na   0.020206  -0.055113
     2  Na   0.291767   0.162460
     3  Na   0.077119   0.093479
     4  Na  -0.225627  -0.056868
     5  Na  -0.275801   0.293174
     6  Na   0.326498   0.198856
     7  Na  -0.214161   0.364011
 Sum of Mulliken charges =  -0.00000   1.00000

 Dipole moment (field-independent basis, Debye):
    X=             -0.1681    Y=             -0.3940    Z=              0.3723  Tot=              0.5675
 Quadrupole moment (field-independent basis, Debye-Ang):
   XX=            -50.4309   YY=            -72.6285   ZZ=            -72.3901
   XY=             -0.3874   XZ=              0.5617   YZ=             -0.3678

 Normal termination of Gaussian 16 at Thu Dec  7 05:30:13 2023.
