 Gaussian 16, Revision B.01,
 Gaussian 16:  ES64L-G16RevB.01 20-Dec-2017

 -------------------------
 #P B3LYP/6-311+g(d) force
 -------------------------

 -----
 DPGEN
 -----
 Symbolic Z-matrix:
 Charge =  0 Multiplicity = 2

                         Standard orientation:
 ---------------------------------------------------------------------
 Center     Atomic      Atomic             Coordinates (Angstroms)
 Number     Number       Type             X           Y           Z
 ---------------------------------------------------------------------
      1         11           0       -3.138967   -0.773870   -0.127238
      2         11           0        1.945034    2.165123    0.393559
      3         11           0        2.884749   -1.278397   -0.579153
      4         11           0        0.232125   -0.134654    1.915690
      5         11           0       -1.492774    2.847680   -0.183542
      6         11           0        0.038165    0.012262   -1.732578
      7         11           0       -0.468332   -2.838144    0.313263
 ---------------------------------------------------------------------

 SCF Done:  E(UB3LYP) =  -1136.13847846     A.U. after   19 cycles

 The electronic state is 2-A.
 Alpha  occ. eigenvalues --  -38.43927 -38.43732 -38.43672 -38.43636 -38.43563
 Alpha  occ. eigenvalues --  -38.43497 -38.43358  -2.19728  -2.19527  -2.19504
 Alpha  occ. eigenvalues --   -2.19495  -2.19487  -2.19368  -2.19294  -1.13406
 Alpha  occ. eigenvalues --   -1.13389  -1.13372  -1.13243  -1.13209  -1.13200
 Alpha  occ. eigenvalues --   -1.13190  -1.13184  -1.13174  -1.13158  -1.13143
 Alpha  occ. eigenvalues --   -1.13141  -1.13114  -1.13101  -1.13086  -1.13034
 Alpha  occ. eigenvalues --   -1.13024  -1.12980  -1.12973  -1.12922  -1.12909
 Alpha  occ. eigenvalues --   -0.18498  -0.12826  -0.12493  -0.10814
 Alpha virt. eigenvalues --   -0.05432  -0.05194  -0.04914  -0.03148  -0.02951
 Alpha virt. eigenvalues --   -0.02548  -0.01463  -0.01243  -0.00423  -0.00380
 Alpha virt. eigenvalues --    0.00003   0.00349   0.00823   0.00852   0.00891

  Beta  occ. eigenvalues --  -38.43928 -38.43732 -38.43655 -38.43623 -38.43486
  Beta  occ. eigenvalues --  -38.43477 -38.43290  -2.19731  -2.19529  -2.19477
  Beta  occ. eigenvalues --   -2.19473  -2.19353  -2.19329  -2.19170  -1.13403
  Beta  occ. eigenvalues --   -1.13388  -1.13371  -1.13209  -1.13197  -1.13184
  Beta  occ. eigenvalues --   -1.13171  -1.13161  -1.13133  -1.13126  -1.13121
  Beta  occ. eigenvalues --   -1.13102  -1.13090  -1.13027  -1.13009  -1.12988
  Beta  occ. eigenvalues --   -1.12970  -1.12957  -1.12891  -1.12839  -1.12812
  Beta  occ. eigenvalues --   -0.17781  -0.12580  -0.12237
  Beta virt. eigenvalues --   -0.06929  -0.05418  -0.05118  -0.04853  -0.02374
  Beta virt. eigenvalues --   -0.02258  -0.01541  -0.01324  -0.01167  -0.00444
  Beta virt. eigenvalues --   -0.00408   0.00122   0.00383   0.00841   0.00878

 Mulliken charges and spin densities:
               1          2
     1  Na  -0.135325  -0.120149
     2  Na   0.154782  -0.017433
     3  Na   0.076077   0.005150
     4  Na  -0.031322   0.591279
     5  Na  -0.132450  -0.120044
     6  Na  -0.146679   0.683024
     7  Na   0.214916  -0.021827
 Sum of Mulliken charges =  -0.00000   1.00000

 Dipole moment (field-independent basis, Debye):
    X=             -0.0789    Y=              0.0214    Z=              0.0209  Tot=              0.0844
 Quadrupole moment (field-independent basis, Debye-Ang):
   XX=            -57.8921   YY=            -61.1229   ZZ=            -74.3089
   XY=             -0.5913   XZ=             -0.3449   YZ=              0.3703

 Normal termination of Gaussian 16 at Wed Dec  6 00:26:32 2023.
