 Gaussian 16, Revision B.01,
 Gaussian 16:  ES64L-G16RevB.01 20-Dec-2017

 -------------------------
 #P B3LYP/6-311+g(d) force
 -------------------------

 -----
 DPGEN
 -----
 Symbolic Z-matrix:
 Charge =  0 Multiplicity = 2

                         Standard orientation:
 ---------------------------------------------------------------------
 Center     Atomic      Atomic             Coordinates (Angstroms)
 Number     Number       Type             X           Y           Z
 ---------------------------------------------------------------------
      1         11           0        3.620447    0.343207    0.829311
      2         11           0        2.114666   -1.680966   -0.651683
      3         11           0       -0.249028   -0.401074    1.880520
      4         11           0        1.065160    2.011201   -0.676879
      5         11           0       -2.545564    1.949219   -0.105191
      6         11           0       -3.413338   -1.317232    0.517102
      7         11           0       -0.592343   -0.904355   -1.793179
 ---------------------------------------------------------------------

 SCF Done:  E(UB3LYP) =  -1136.12006811     A.U. after   26 cycles

 The electronic state is 2-A.
 Alpha  occ. eigenvalues --  -38.45283 -38.45045 -38.44562 -38.43742 -38.43689
 Alpha  occ. eigenvalues --  -38.43587 -38.42603  -2.21105  -2.20914  -2.20372
 Alpha  occ. eigenvalues --   -2.19617  -2.19556  -2.19524  -2.18464  -1.14799
 Alpha  occ. eigenvalues --   -1.14748  -1.14721  -1.14633  -1.14544  -1.14532
 Alpha  occ. eigenvalues --   -1.14043  -1.14028  -1.14010  -1.13404  -1.13254
 Alpha  occ. eigenvalues --   -1.13236  -1.13222  -1.13212  -1.13195  -1.13170
 Alpha  occ. eigenvalues --   -1.13145  -1.13138  -1.12159  -1.12139  -1.12082
 Alpha  occ. eigenvalues --   -0.18608  -0.14327  -0.11377  -0.10911
 Alpha virt. eigenvalues --   -0.07073  -0.05407  -0.04443  -0.03175  -0.02859
 Alpha virt. eigenvalues --   -0.02537  -0.02354  -0.01137  -0.00728  -0.00233
 Alpha virt. eigenvalues --    0.00107   0.00224   0.00298   0.00607   0.00737

  Beta  occ. eigenvalues --  -38.45239 -38.45017 -38.44553 -38.43742 -38.43600
  Beta  occ. eigenvalues --  -38.43564 -38.42590  -2.21021  -2.20860  -2.20358
  Beta  occ. eigenvalues --   -2.19557  -2.19491  -2.19455  -2.18442  -1.14738
  Beta  occ. eigenvalues --   -1.14693  -1.14656  -1.14603  -1.14503  -1.14493
  Beta  occ. eigenvalues --   -1.14030  -1.14012  -1.14003  -1.13307  -1.13234
  Beta  occ. eigenvalues --   -1.13218  -1.13189  -1.13157  -1.13134  -1.13126
  Beta  occ. eigenvalues --   -1.13094  -1.13055  -1.12146  -1.12101  -1.12070
  Beta  occ. eigenvalues --   -0.17877  -0.14056  -0.10676
  Beta virt. eigenvalues --   -0.07533  -0.06817  -0.05411  -0.03783  -0.02927
  Beta virt. eigenvalues --   -0.02575  -0.01917  -0.01627  -0.01103  -0.00430
  Beta virt. eigenvalues --   -0.00195   0.00157   0.00234   0.00454   0.00695

 Mulliken charges and spin densities:
               1          2
     1  Na   0.880274   0.277947
     2  Na  -0.287791   0.011642
     3  Na  -0.413931   0.347635
     4  Na  -0.636100  -0.054394
     5  Na  -0.059232  -0.009158
     6  Na   0.350780   0.021971
     7  Na   0.165999   0.404357
 Sum of Mulliken charges =  -0.00000   1.00000

 Dipole moment (field-independent basis, Debye):
    X=             -0.2507    Y=             -0.1944    Z=              0.6487  Tot=              0.7221
 Quadrupole moment (field-independent basis, Debye-Ang):
   XX=            -47.4676   YY=            -78.3849   ZZ=            -69.4404
   XY=              0.8881   XZ=              1.8409   YZ=              0.3678

 Normal termination of Gaussian 16 at Thu Dec  7 20:24:51 2023.
