 Gaussian 16, Revision B.01,
 Gaussian 16:  ES64L-G16RevB.01 20-Dec-2017

 -------------------------
 #P B3LYP/6-311+g(d) force
 -------------------------

 -----
 DPGEN
 -----
 Symbolic Z-matrix:
 Charge =  0 Multiplicity = 2

                         Standard orientation:
 ---------------------------------------------------------------------
 Center     Atomic      Atomic             Coordinates (Angstroms)
 Number     Number       Type             X           Y           Z
 ---------------------------------------------------------------------
      1         11           0       -0.447039   -0.829140    1.909876
      2         11           0       -1.357284    1.889155   -0.511882
      3         11           0        3.387418   -1.584593    0.481838
      4         11           0       -1.716172   -1.389838   -1.485396
      5         11           0        1.463341   -0.206247   -1.531911
      6         11           0       -4.263396    0.103165    0.711039
      7         11           0        2.933132    2.017497    0.426435
 ---------------------------------------------------------------------

 SCF Done:  E(UB3LYP) =  -1136.11189028     A.U. after   32 cycles

 The electronic state is 2-A.
 Alpha  occ. eigenvalues --  -38.45540 -38.45392 -38.44428 -38.44032 -38.43980
 Alpha  occ. eigenvalues --  -38.43507 -38.43139  -2.21324  -2.21142  -2.20305
 Alpha  occ. eigenvalues --   -2.19850  -2.19784  -2.19456  -2.18971  -1.14994
 Alpha  occ. eigenvalues --   -1.14970  -1.14936  -1.14843  -1.14825  -1.14741
 Alpha  occ. eigenvalues --   -1.13992  -1.13933  -1.13924  -1.13579  -1.13503
 Alpha  occ. eigenvalues --   -1.13475  -1.13463  -1.13440  -1.13403  -1.13144
 Alpha  occ. eigenvalues --   -1.13110  -1.13068  -1.12680  -1.12658  -1.12571
 Alpha  occ. eigenvalues --   -0.18067  -0.14362  -0.11313  -0.10249
 Alpha virt. eigenvalues --   -0.07448  -0.05656  -0.04759  -0.03130  -0.02999
 Alpha virt. eigenvalues --   -0.02270  -0.02193  -0.01361  -0.01261  -0.00428
 Alpha virt. eigenvalues --   -0.00059   0.00102   0.00235   0.00462   0.00538

  Beta  occ. eigenvalues --  -38.45497 -38.45387 -38.44356 -38.44028 -38.43956
  Beta  occ. eigenvalues --  -38.43466 -38.43133  -2.21243  -2.21134  -2.20177
  Beta  occ. eigenvalues --   -2.19844  -2.19740  -2.19385  -2.18962  -1.14934
  Beta  occ. eigenvalues --   -1.14914  -1.14885  -1.14839  -1.14811  -1.14733
  Beta  occ. eigenvalues --   -1.13895  -1.13847  -1.13818  -1.13574  -1.13489
  Beta  occ. eigenvalues --   -1.13469  -1.13435  -1.13412  -1.13369  -1.13096
  Beta  occ. eigenvalues --   -1.13038  -1.13010  -1.12679  -1.12627  -1.12565
  Beta  occ. eigenvalues --   -0.17373  -0.14030  -0.10145
  Beta virt. eigenvalues --   -0.07482  -0.07205  -0.05382  -0.04301  -0.02884
  Beta virt. eigenvalues --   -0.02713  -0.01842  -0.01628  -0.01133  -0.00910
  Beta virt. eigenvalues --   -0.00270   0.00013   0.00187   0.00317   0.00527

 Mulliken charges and spin densities:
               1          2
     1  Na  -0.352277   0.124645
     2  Na  -0.547727   0.109923
     3  Na   0.120615   0.103350
     4  Na   0.100069   0.140017
     5  Na   0.304586   0.063281
     6  Na   0.498268   0.281238
     7  Na  -0.123534   0.177546
 Sum of Mulliken charges =  -0.00000   1.00000

 Dipole moment (field-independent basis, Debye):
    X=             -1.2114    Y=             -0.3061    Z=              0.4349  Tot=              1.3230
 Quadrupole moment (field-independent basis, Debye-Ang):
   XX=            -47.0227   YY=            -78.6800   ZZ=            -69.4685
   XY=              0.7365   XZ=              1.4952   YZ=              6.8014

 Normal termination of Gaussian 16 at Fri Dec  8 04:23:15 2023.
