 Gaussian 16, Revision B.01,
 Gaussian 16:  ES64L-G16RevB.01 20-Dec-2017

 -------------------------
 #P B3LYP/6-311+g(d) force
 -------------------------

 -----
 DPGEN
 -----
 Symbolic Z-matrix:
 Charge =  0 Multiplicity = 2

                         Standard orientation:
 ---------------------------------------------------------------------
 Center     Atomic      Atomic             Coordinates (Angstroms)
 Number     Number       Type             X           Y           Z
 ---------------------------------------------------------------------
      1         11           0       -0.967840   -2.558750    0.017999
      2         11           0       -2.964259   -0.101308    0.002745
      3         11           0       -0.964725    2.555378    0.440167
      4         11           0       -0.351333    0.295568   -1.814571
      5         11           0        2.279411    1.616239   -0.227953
      6         11           0        0.499118   -0.289860    1.813602
      7         11           0        2.469628   -1.517266   -0.231989
 ---------------------------------------------------------------------

 SCF Done:  E(UB3LYP) =  -1136.13669572     A.U. after   19 cycles

 The electronic state is 2-A.
 Alpha  occ. eigenvalues --  -38.43813 -38.43647 -38.43482 -38.43338 -38.43329
 Alpha  occ. eigenvalues --  -38.43150 -38.43138  -2.19714  -2.19558  -2.19408
 Alpha  occ. eigenvalues --   -2.19333  -2.19327  -2.19058  -2.19040  -1.13417
 Alpha  occ. eigenvalues --   -1.13372  -1.13363  -1.13310  -1.13234  -1.13198
 Alpha  occ. eigenvalues --   -1.13102  -1.13080  -1.13025  -1.13010  -1.12989
 Alpha  occ. eigenvalues --   -1.12962  -1.12950  -1.12946  -1.12942  -1.12732
 Alpha  occ. eigenvalues --   -1.12715  -1.12709  -1.12694  -1.12683  -1.12669
 Alpha  occ. eigenvalues --   -0.19433  -0.13402  -0.12585  -0.11050
 Alpha virt. eigenvalues --   -0.05396  -0.05001  -0.04462  -0.03426  -0.02997
 Alpha virt. eigenvalues --   -0.02535  -0.01299  -0.00905  -0.00068   0.00007
 Alpha virt. eigenvalues --    0.00058   0.00384   0.00873   0.00962   0.00971

  Beta  occ. eigenvalues --  -38.43809 -38.43640 -38.43472 -38.43262 -38.43251
  Beta  occ. eigenvalues --  -38.43144 -38.43126  -2.19710  -2.19549  -2.19394
  Beta  occ. eigenvalues --   -2.19193  -2.19186  -2.19050  -2.19021  -1.13410
  Beta  occ. eigenvalues --   -1.13372  -1.13340  -1.13300  -1.13212  -1.13179
  Beta  occ. eigenvalues --   -1.13087  -1.13033  -1.13017  -1.12929  -1.12900
  Beta  occ. eigenvalues --   -1.12870  -1.12858  -1.12848  -1.12843  -1.12722
  Beta  occ. eigenvalues --   -1.12694  -1.12688  -1.12671  -1.12661  -1.12650
  Beta  occ. eigenvalues --   -0.18675  -0.13143  -0.12324
  Beta virt. eigenvalues --   -0.07087  -0.05342  -0.05005  -0.04433  -0.02599
  Beta virt. eigenvalues --   -0.02193  -0.01477  -0.01215  -0.00844  -0.00066
  Beta virt. eigenvalues --   -0.00017   0.00130   0.00405   0.00935   0.00957

 Mulliken charges and spin densities:
               1          2
     1  Na   0.187038  -0.106730
     2  Na   0.179618  -0.032688
     3  Na   0.153518  -0.017866
     4  Na  -0.501578   0.577703
     5  Na   0.272781   0.001052
     6  Na  -0.519846   0.629708
     7  Na   0.228469  -0.051180
 Sum of Mulliken charges =  -0.00000   1.00000

 Dipole moment (field-independent basis, Debye):
    X=             -0.0131    Y=             -0.0105    Z=             -0.0298  Tot=              0.0342
 Quadrupole moment (field-independent basis, Debye-Ang):
   XX=            -57.9148   YY=            -64.3593   ZZ=            -72.4123
   XY=             -0.3103   XZ=             -1.6439   YZ=              1.2419

 Normal termination of Gaussian 16 at Wed Nov 29 01:49:37 2023.
