 Gaussian 16, Revision B.01,
 Gaussian 16:  ES64L-G16RevB.01 20-Dec-2017

 -------------------------
 #P B3LYP/6-311+g(d) force
 -------------------------

 -----
 DPGEN
 -----
 Symbolic Z-matrix:
 Charge =  0 Multiplicity = 2

                         Standard orientation:
 ---------------------------------------------------------------------
 Center     Atomic      Atomic             Coordinates (Angstroms)
 Number     Number       Type             X           Y           Z
 ---------------------------------------------------------------------
      1         11           0       -3.231263   -0.687635   -0.372028
      2         11           0        0.251560   -2.878510   -0.606666
      3         11           0        0.511355    0.411302   -1.506053
      4         11           0        1.946943    2.476558    0.136104
      5         11           0       -2.039793    2.136289   -0.068767
      6         11           0        3.025413   -0.816445    0.125388
      7         11           0       -0.464215   -0.641558    2.292022
 ---------------------------------------------------------------------

 SCF Done:  E(UB3LYP) =  -1136.13119136     A.U. after   19 cycles

 The electronic state is 2-A.
 Alpha  occ. eigenvalues --  -38.44423 -38.44379 -38.43900 -38.43734 -38.43556
 Alpha  occ. eigenvalues --  -38.43304 -38.43235  -2.20239  -2.20222  -2.19722
 Alpha  occ. eigenvalues --   -2.19585  -2.19409  -2.19291  -2.19061  -1.13943
 Alpha  occ. eigenvalues --   -1.13916  -1.13896  -1.13886  -1.13872  -1.13846
 Alpha  occ. eigenvalues --   -1.13373  -1.13351  -1.13341  -1.13272  -1.13238
 Alpha  occ. eigenvalues --   -1.13224  -1.13193  -1.13057  -1.13032  -1.12959
 Alpha  occ. eigenvalues --   -1.12921  -1.12894  -1.12739  -1.12715  -1.12695
 Alpha  occ. eigenvalues --   -0.18243  -0.13353  -0.12169  -0.10663
 Alpha virt. eigenvalues --   -0.06004  -0.05287  -0.04534  -0.03427  -0.02984
 Alpha virt. eigenvalues --   -0.02455  -0.01683  -0.01086  -0.00561  -0.00402
 Alpha virt. eigenvalues --   -0.00054   0.00348   0.00725   0.00835   0.00858

  Beta  occ. eigenvalues --  -38.44419 -38.44377 -38.43797 -38.43729 -38.43554
  Beta  occ. eigenvalues --  -38.43260 -38.43222  -2.20236  -2.20220  -2.19580
  Beta  occ. eigenvalues --   -2.19531  -2.19407  -2.19212  -2.19040  -1.13944
  Beta  occ. eigenvalues --   -1.13912  -1.13875  -1.13871  -1.13866  -1.13849
  Beta  occ. eigenvalues --   -1.13266  -1.13243  -1.13224  -1.13219  -1.13216
  Beta  occ. eigenvalues --   -1.13205  -1.13177  -1.13043  -1.13032  -1.12908
  Beta  occ. eigenvalues --   -1.12864  -1.12843  -1.12718  -1.12688  -1.12682
  Beta  occ. eigenvalues --   -0.17575  -0.13170  -0.11960
  Beta virt. eigenvalues --   -0.06756  -0.05905  -0.05284  -0.04436  -0.02680
  Beta virt. eigenvalues --   -0.02224  -0.01590  -0.01478  -0.01029  -0.00589
  Beta virt. eigenvalues --   -0.00415   0.00142   0.00396   0.00801   0.00849

 Mulliken charges and spin densities:
               1          2
     1  Na   0.114391  -0.014001
     2  Na   0.031412  -0.007506
     3  Na   0.106081   0.176430
     4  Na   0.129370   0.056572
     5  Na   0.131590   0.014647
     6  Na   0.151409   0.058358
     7  Na  -0.664252   0.715501
 Sum of Mulliken charges =  -0.00000   1.00000

 Dipole moment (field-independent basis, Debye):
    X=              0.0303    Y=             -0.0783    Z=              0.1648  Tot=              0.1850
 Quadrupole moment (field-independent basis, Debye-Ang):
   XX=            -55.3098   YY=            -64.8196   ZZ=            -74.4736
   XY=              0.7839   XZ=              2.2340   YZ=              2.0899

 Normal termination of Gaussian 16 at Fri Dec  8 02:18:58 2023.
