 Gaussian 16, Revision B.01,
 Gaussian 16:  ES64L-G16RevB.01 20-Dec-2017

 -------------------------
 #P B3LYP/6-311+g(d) force
 -------------------------

 -----
 DPGEN
 -----
 Symbolic Z-matrix:
 Charge =  0 Multiplicity = 2

                         Standard orientation:
 ---------------------------------------------------------------------
 Center     Atomic      Atomic             Coordinates (Angstroms)
 Number     Number       Type             X           Y           Z
 ---------------------------------------------------------------------
      1         11           0        2.384767    1.645822    0.016334
      2         11           0        2.785292   -1.514638   -0.090809
      3         11           0       -1.013897   -2.609507   -0.019943
      4         11           0        0.012910    0.069602   -1.617418
      5         11           0       -3.179902   -0.239128    0.050973
      6         11           0        0.192250    0.010888    1.702670
      7         11           0       -1.181420    2.636961   -0.041806
 ---------------------------------------------------------------------

 SCF Done:  E(UB3LYP) =  -1136.13626186     A.U. after   21 cycles

 The electronic state is 2-A.
 Alpha  occ. eigenvalues --  -38.44323 -38.44020 -38.43768 -38.43179 -38.43092
 Alpha  occ. eigenvalues --  -38.42983 -38.42899  -2.20174  -2.19876  -2.19684
 Alpha  occ. eigenvalues --   -2.19068  -2.18986  -2.18967  -2.18926  -1.13845
 Alpha  occ. eigenvalues --   -1.13836  -1.13820  -1.13577  -1.13536  -1.13517
 Alpha  occ. eigenvalues --   -1.13375  -1.13352  -1.13292  -1.12790  -1.12742
 Alpha  occ. eigenvalues --   -1.12721  -1.12697  -1.12667  -1.12640  -1.12605
 Alpha  occ. eigenvalues --   -1.12594  -1.12589  -1.12574  -1.12540  -1.12517
 Alpha  occ. eigenvalues --   -0.19187  -0.13563  -0.12348  -0.10419
 Alpha virt. eigenvalues --   -0.05924  -0.05250  -0.04395  -0.03228  -0.02554
 Alpha virt. eigenvalues --   -0.02085  -0.01796  -0.01137  -0.00304  -0.00229
 Alpha virt. eigenvalues --    0.00031   0.00350   0.00771   0.00889   0.00913

  Beta  occ. eigenvalues --  -38.44321 -38.44015 -38.43759 -38.43173 -38.43086
  Beta  occ. eigenvalues --  -38.42903 -38.42825  -2.20173  -2.19871  -2.19672
  Beta  occ. eigenvalues --   -2.19060  -2.18961  -2.18840  -2.18791  -1.13848
  Beta  occ. eigenvalues --   -1.13823  -1.13813  -1.13577  -1.13517  -1.13505
  Beta  occ. eigenvalues --   -1.13369  -1.13305  -1.13290  -1.12774  -1.12702
  Beta  occ. eigenvalues --   -1.12695  -1.12682  -1.12610  -1.12598  -1.12588
  Beta  occ. eigenvalues --   -1.12502  -1.12495  -1.12479  -1.12447  -1.12426
  Beta  occ. eigenvalues --   -0.18459  -0.13307  -0.12078
  Beta virt. eigenvalues --   -0.06498  -0.05893  -0.05252  -0.04404  -0.02400
  Beta virt. eigenvalues --   -0.01786  -0.01703  -0.01088  -0.01052  -0.00346
  Beta virt. eigenvalues --   -0.00287   0.00170   0.00377   0.00817   0.00889

 Mulliken charges and spin densities:
               1          2
     1  Na   0.374673  -0.028778
     2  Na   0.168899  -0.072327
     3  Na   0.149514  -0.118060
     4  Na  -0.483625   0.666600
     5  Na   0.073009  -0.050783
     6  Na  -0.463006   0.707731
     7  Na   0.180536  -0.104384
 Sum of Mulliken charges =  -0.00000   1.00000

 Dipole moment (field-independent basis, Debye):
    X=             -0.0035    Y=             -0.0718    Z=              0.0390  Tot=              0.0818
 Quadrupole moment (field-independent basis, Debye-Ang):
   XX=            -52.0684   YY=            -63.2974   ZZ=            -76.3593
   XY=             -0.8711   XZ=             -0.4851   YZ=              0.2002

 Normal termination of Gaussian 16 at Tue Nov 28 19:32:39 2023.
