 Gaussian 16, Revision B.01,
 Gaussian 16:  ES64L-G16RevB.01 20-Dec-2017

 -------------------------
 #P B3LYP/6-311+g(d) force
 -------------------------

 -----
 DPGEN
 -----
 Symbolic Z-matrix:
 Charge =  0 Multiplicity = 2

                         Standard orientation:
 ---------------------------------------------------------------------
 Center     Atomic      Atomic             Coordinates (Angstroms)
 Number     Number       Type             X           Y           Z
 ---------------------------------------------------------------------
      1         11           0        3.655942   -1.860320   -0.372269
      2         11           0       -1.014048   -1.276551    1.777776
      3         11           0        0.453697   -1.199317   -1.441436
      4         11           0        0.455571    3.265072   -0.920296
      5         11           0        2.168913    1.027940    1.078917
      6         11           0       -3.902914   -1.156580   -0.802565
      7         11           0       -1.817161    1.199757    0.679873
 ---------------------------------------------------------------------

 SCF Done:  E(UB3LYP) =  -1136.12114130     A.U. after   21 cycles

 The electronic state is 2-A.
 Alpha  occ. eigenvalues --  -38.44868 -38.44673 -38.44256 -38.44038 -38.44036
 Alpha  occ. eigenvalues --  -38.43685 -38.42829  -2.20672  -2.20456  -2.20076
 Alpha  occ. eigenvalues --   -2.19956  -2.19826  -2.19619  -2.18644  -1.14375
 Alpha  occ. eigenvalues --   -1.14342  -1.14273  -1.14128  -1.14111  -1.14067
 Alpha  occ. eigenvalues --   -1.13809  -1.13762  -1.13761  -1.13692  -1.13587
 Alpha  occ. eigenvalues --   -1.13516  -1.13496  -1.13488  -1.13459  -1.13290
 Alpha  occ. eigenvalues --   -1.13281  -1.13181  -1.12308  -1.12301  -1.12278
 Alpha  occ. eigenvalues --   -0.17876  -0.13456  -0.11845  -0.10580
 Alpha virt. eigenvalues --   -0.06725  -0.05454  -0.04439  -0.03295  -0.02832
 Alpha virt. eigenvalues --   -0.02419  -0.02089  -0.01537  -0.00655  -0.00414
 Alpha virt. eigenvalues --    0.00103   0.00168   0.00248   0.00504   0.00712

  Beta  occ. eigenvalues --  -38.44846 -38.44635 -38.44251 -38.44039 -38.43954
  Beta  occ. eigenvalues --  -38.43666 -38.42810  -2.20632  -2.20385  -2.20068
  Beta  occ. eigenvalues --   -2.19828  -2.19808  -2.19592  -2.18608  -1.14337
  Beta  occ. eigenvalues --   -1.14314  -1.14244  -1.14078  -1.14056  -1.14023
  Beta  occ. eigenvalues --   -1.13759  -1.13730  -1.13714  -1.13694  -1.13497
  Beta  occ. eigenvalues --   -1.13486  -1.13486  -1.13461  -1.13402  -1.13267
  Beta  occ. eigenvalues --   -1.13207  -1.13171  -1.12283  -1.12273  -1.12258
  Beta  occ. eigenvalues --   -0.17208  -0.13252  -0.11657
  Beta virt. eigenvalues --   -0.06906  -0.06481  -0.05226  -0.04087  -0.02910
  Beta virt. eigenvalues --   -0.02502  -0.02165  -0.01516  -0.01276  -0.00401
  Beta virt. eigenvalues --   -0.00296   0.00172   0.00296   0.00464   0.00669

 Mulliken charges and spin densities:
               1          2
     1  Na   0.178205  -0.093248
     2  Na   0.043172   0.089456
     3  Na  -0.441313   0.326968
     4  Na   0.143564  -0.123558
     5  Na   0.092216   0.151564
     6  Na   0.023030   0.092335
     7  Na  -0.038873   0.556485
 Sum of Mulliken charges =  -0.00000   1.00000

 Dipole moment (field-independent basis, Debye):
    X=              0.0745    Y=             -0.8315    Z=             -0.0438  Tot=              0.8360
 Quadrupole moment (field-independent basis, Debye-Ang):
   XX=            -53.6984   YY=            -70.2630   ZZ=            -70.8345
   XY=              0.6160   XZ=              3.1369   YZ=             -0.4608

 Normal termination of Gaussian 16 at Tue Dec  5 22:24:22 2023.
