 Gaussian 16, Revision B.01,
 Gaussian 16:  ES64L-G16RevB.01 20-Dec-2017

 -------------------------
 #P B3LYP/6-311+g(d) force
 -------------------------

 -----
 DPGEN
 -----
 Symbolic Z-matrix:
 Charge =  0 Multiplicity = 2

                         Standard orientation:
 ---------------------------------------------------------------------
 Center     Atomic      Atomic             Coordinates (Angstroms)
 Number     Number       Type             X           Y           Z
 ---------------------------------------------------------------------
      1         11           0        2.205405   -2.435661   -0.554251
      2         11           0       -3.220388    1.106754    0.028620
      3         11           0        0.410658    2.930938   -0.209296
      4         11           0        3.216583    0.917917    0.360638
      5         11           0       -0.071563   -0.417002    2.078936
      6         11           0       -0.315544    0.036875   -1.782501
      7         11           0       -2.225151   -2.139820    0.077854
 ---------------------------------------------------------------------

 SCF Done:  E(UB3LYP) =  -1136.13176568     A.U. after   20 cycles

 The electronic state is 2-A.
 Alpha  occ. eigenvalues --  -38.44686 -38.44435 -38.44018 -38.43925 -38.43781
 Alpha  occ. eigenvalues --  -38.43590 -38.43041  -2.20481  -2.20221  -2.19855
 Alpha  occ. eigenvalues --   -2.19766  -2.19558  -2.19486  -2.18855  -1.14156
 Alpha  occ. eigenvalues --   -1.14137  -1.14125  -1.13898  -1.13875  -1.13864
 Alpha  occ. eigenvalues --   -1.13534  -1.13498  -1.13475  -1.13442  -1.13420
 Alpha  occ. eigenvalues --   -1.13396  -1.13232  -1.13209  -1.13203  -1.13168
 Alpha  occ. eigenvalues --   -1.13132  -1.13098  -1.12545  -1.12519  -1.12487
 Alpha  occ. eigenvalues --   -0.17955  -0.13215  -0.11846  -0.10672
 Alpha virt. eigenvalues --   -0.06164  -0.05645  -0.04445  -0.03353  -0.02801
 Alpha virt. eigenvalues --   -0.02554  -0.01900  -0.01320  -0.00651  -0.00439
 Alpha virt. eigenvalues --   -0.00072   0.00331   0.00659   0.00738   0.00779

  Beta  occ. eigenvalues --  -38.44685 -38.44433 -38.43931 -38.43919 -38.43769
  Beta  occ. eigenvalues --  -38.43521 -38.43040  -2.20481  -2.20217  -2.19759
  Beta  occ. eigenvalues --   -2.19695  -2.19538  -2.19359  -2.18856  -1.14148
  Beta  occ. eigenvalues --   -1.14135  -1.14121  -1.13881  -1.13874  -1.13865
  Beta  occ. eigenvalues --   -1.13462  -1.13417  -1.13402  -1.13393  -1.13370
  Beta  occ. eigenvalues --   -1.13345  -1.13208  -1.13194  -1.13192  -1.13082
  Beta  occ. eigenvalues --   -1.13043  -1.13003  -1.12541  -1.12511  -1.12486
  Beta  occ. eigenvalues --   -0.17243  -0.13040  -0.11606
  Beta virt. eigenvalues --   -0.06859  -0.06062  -0.05582  -0.04338  -0.02668
  Beta virt. eigenvalues --   -0.02073  -0.01797  -0.01593  -0.01216  -0.00700
  Beta virt. eigenvalues --   -0.00458   0.00082   0.00358   0.00751   0.00775

 Mulliken charges and spin densities:
               1          2
     1  Na  -0.063082  -0.033954
     2  Na   0.045277  -0.074337
     3  Na  -0.118466  -0.103225
     4  Na   0.013219   0.002614
     5  Na  -0.237129   0.626216
     6  Na   0.115575   0.622658
     7  Na   0.244606  -0.039972
 Sum of Mulliken charges =  -0.00000   1.00000

 Dipole moment (field-independent basis, Debye):
    X=             -0.3745    Y=             -0.0729    Z=              0.1886  Tot=              0.4256
 Quadrupole moment (field-independent basis, Debye-Ang):
   XX=            -52.8813   YY=            -66.1428   ZZ=            -74.7605
   XY=             -0.5210   XZ=              0.0565   YZ=              1.5032

 Normal termination of Gaussian 16 at Tue Dec  5 14:04:52 2023.
