 Gaussian 16, Revision B.01,
 Gaussian 16:  ES64L-G16RevB.01 20-Dec-2017

 -------------------------
 #P B3LYP/6-311+g(d) force
 -------------------------

 -----
 DPGEN
 -----
 Symbolic Z-matrix:
 Charge =  0 Multiplicity = 2

                         Standard orientation:
 ---------------------------------------------------------------------
 Center     Atomic      Atomic             Coordinates (Angstroms)
 Number     Number       Type             X           Y           Z
 ---------------------------------------------------------------------
      1         11           0        0.240489   -2.720974   -0.001779
      2         11           0        0.526055    0.222731   -1.888580
      3         11           0        3.150279   -0.546558   -0.197797
      4         11           0        1.149824    2.705851    0.118275
      5         11           0        0.297445   -0.115876    2.262379
      6         11           0       -2.559533    1.868409   -0.049864
      7         11           0       -2.804559   -1.413583   -0.242634
 ---------------------------------------------------------------------

 SCF Done:  E(UB3LYP) =  -1136.13578237     A.U. after   18 cycles

 The electronic state is 2-A.
 Alpha  occ. eigenvalues --  -38.44278 -38.44168 -38.43822 -38.43815 -38.43639
 Alpha  occ. eigenvalues --  -38.43528 -38.43095  -2.20112  -2.20019  -2.19734
 Alpha  occ. eigenvalues --   -2.19618  -2.19466  -2.19360  -2.18962  -1.13814
 Alpha  occ. eigenvalues --   -1.13766  -1.13742  -1.13670  -1.13647  -1.13639
 Alpha  occ. eigenvalues --   -1.13410  -1.13378  -1.13355  -1.13306  -1.13290
 Alpha  occ. eigenvalues --   -1.13257  -1.13133  -1.13125  -1.13111  -1.13042
 Alpha  occ. eigenvalues --   -1.13028  -1.12979  -1.12645  -1.12634  -1.12589
 Alpha  occ. eigenvalues --   -0.18339  -0.12946  -0.12273  -0.11170
 Alpha virt. eigenvalues --   -0.05802  -0.05128  -0.04528  -0.03304  -0.03105
 Alpha virt. eigenvalues --   -0.03026  -0.01542  -0.00941  -0.00416  -0.00242
 Alpha virt. eigenvalues --   -0.00095   0.00363   0.00786   0.00840   0.00871

  Beta  occ. eigenvalues --  -38.44272 -38.44063 -38.43823 -38.43748 -38.43638
  Beta  occ. eigenvalues --  -38.43522 -38.43089  -2.20103  -2.19826  -2.19622
  Beta  occ. eigenvalues --   -2.19611  -2.19466  -2.19353  -2.18955  -1.13795
  Beta  occ. eigenvalues --   -1.13745  -1.13741  -1.13544  -1.13508  -1.13505
  Beta  occ. eigenvalues --   -1.13332  -1.13311  -1.13292  -1.13282  -1.13266
  Beta  occ. eigenvalues --   -1.13256  -1.13132  -1.13117  -1.13111  -1.13032
  Beta  occ. eigenvalues --   -1.13001  -1.12978  -1.12643  -1.12599  -1.12589
  Beta  occ. eigenvalues --   -0.17589  -0.12753  -0.12064
  Beta virt. eigenvalues --   -0.07208  -0.05765  -0.05102  -0.04414  -0.02551
  Beta virt. eigenvalues --   -0.02296  -0.02001  -0.01467  -0.00882  -0.00470
  Beta virt. eigenvalues --   -0.00284   0.00073   0.00408   0.00866   0.00888

 Mulliken charges and spin densities:
               1          2
     1  Na   0.128342  -0.005469
     2  Na  -0.099889   0.574377
     3  Na   0.448661  -0.056385
     4  Na   0.046382  -0.096120
     5  Na  -0.428577   0.728475
     6  Na  -0.020007  -0.070091
     7  Na  -0.074911  -0.074787
 Sum of Mulliken charges =  -0.00000   1.00000

 Dipole moment (field-independent basis, Debye):
    X=              0.4039    Y=              0.1380    Z=              0.0987  Tot=              0.4381
 Quadrupole moment (field-independent basis, Debye-Ang):
   XX=            -57.9898   YY=            -66.0213   ZZ=            -71.7305
   XY=             -0.4305   XZ=              0.4346   YZ=              0.8065

 Normal termination of Gaussian 16 at Sun Dec  3 19:56:23 2023.
