 Gaussian 16, Revision B.01,
 Gaussian 16:  ES64L-G16RevB.01 20-Dec-2017

 -------------------------
 #P B3LYP/6-311+g(d) force
 -------------------------

 -----
 DPGEN
 -----
 Symbolic Z-matrix:
 Charge =  0 Multiplicity = 2

                         Standard orientation:
 ---------------------------------------------------------------------
 Center     Atomic      Atomic             Coordinates (Angstroms)
 Number     Number       Type             X           Y           Z
 ---------------------------------------------------------------------
      1         11           0       -0.084900   -2.410608   -0.842495
      2         11           0        0.104008   -0.532632    1.983463
      3         11           0       -2.366458    2.094404   -0.207627
      4         11           0        2.084364    2.180117    0.291766
      5         11           0        3.370174   -0.945598    0.052319
      6         11           0       -3.470384   -0.936411    0.284246
      7         11           0        0.363197    0.550728   -1.561672
 ---------------------------------------------------------------------

 SCF Done:  E(UB3LYP) =  -1136.12475887     A.U. after   21 cycles

 The electronic state is 2-A.
 Alpha  occ. eigenvalues --  -38.45234 -38.44887 -38.44135 -38.43767 -38.43546
 Alpha  occ. eigenvalues --  -38.43156 -38.42777  -2.21032  -2.20673  -2.19984
 Alpha  occ. eigenvalues --   -2.19579  -2.19413  -2.19153  -2.18659  -1.14705
 Alpha  occ. eigenvalues --   -1.14691  -1.14667  -1.14346  -1.14342  -1.14304
 Alpha  occ. eigenvalues --   -1.13670  -1.13626  -1.13591  -1.13260  -1.13238
 Alpha  occ. eigenvalues --   -1.13221  -1.13177  -1.13064  -1.13033  -1.12844
 Alpha  occ. eigenvalues --   -1.12795  -1.12751  -1.12363  -1.12306  -1.12256
 Alpha  occ. eigenvalues --   -0.18388  -0.13601  -0.11589  -0.10684
 Alpha virt. eigenvalues --   -0.06792  -0.05495  -0.03763  -0.03395  -0.02705
 Alpha virt. eigenvalues --   -0.02447  -0.02340  -0.01323  -0.00440  -0.00218
 Alpha virt. eigenvalues --   -0.00059   0.00271   0.00581   0.00660   0.00785

  Beta  occ. eigenvalues --  -38.45231 -38.44884 -38.44065 -38.43765 -38.43539
  Beta  occ. eigenvalues --  -38.43085 -38.42746  -2.21029  -2.20670  -2.19853
  Beta  occ. eigenvalues --   -2.19578  -2.19403  -2.19025  -2.18606  -1.14696
  Beta  occ. eigenvalues --   -1.14679  -1.14665  -1.14347  -1.14328  -1.14303
  Beta  occ. eigenvalues --   -1.13581  -1.13535  -1.13493  -1.13255  -1.13231
  Beta  occ. eigenvalues --   -1.13221  -1.13157  -1.13046  -1.13020  -1.12758
  Beta  occ. eigenvalues --   -1.12701  -1.12662  -1.12321  -1.12249  -1.12221
  Beta  occ. eigenvalues --   -0.17671  -0.13412  -0.11347
  Beta virt. eigenvalues --   -0.06877  -0.06566  -0.05500  -0.03652  -0.02769
  Beta virt. eigenvalues --   -0.02303  -0.01976  -0.01366  -0.01289  -0.00457
  Beta virt. eigenvalues --   -0.00132   0.00055   0.00296   0.00711   0.00779

 Mulliken charges and spin densities:
               1          2
     1  Na  -0.106907   0.057781
     2  Na  -0.403858   0.650526
     3  Na  -0.031053  -0.077036
     4  Na  -0.117523   0.014944
     5  Na   0.251639   0.035444
     6  Na   0.045895   0.053043
     7  Na   0.361806   0.265298
 Sum of Mulliken charges =  -0.00000   1.00000

 Dipole moment (field-independent basis, Debye):
    X=              0.2395    Y=             -0.3689    Z=              0.4104  Tot=              0.6016
 Quadrupole moment (field-independent basis, Debye-Ang):
   XX=            -47.5311   YY=            -70.1079   ZZ=            -74.6164
   XY=             -0.2522   XZ=             -0.0282   YZ=              1.6191

 Normal termination of Gaussian 16 at Thu Dec  7 01:59:04 2023.
