 Gaussian 16, Revision B.01,
 Gaussian 16:  ES64L-G16RevB.01 20-Dec-2017

 -------------------------
 #P B3LYP/6-311+g(d) force
 -------------------------

 -----
 DPGEN
 -----
 Symbolic Z-matrix:
 Charge =  0 Multiplicity = 2

                         Standard orientation:
 ---------------------------------------------------------------------
 Center     Atomic      Atomic             Coordinates (Angstroms)
 Number     Number       Type             X           Y           Z
 ---------------------------------------------------------------------
      1         11           0       -0.090185   -0.441174    1.951929
      2         11           0       -2.880499   -1.186338   -0.489237
      3         11           0        0.518871   -2.835281   -0.137673
      4         11           0        1.378734    2.665529   -0.133888
      5         11           0        3.348307   -0.453181   -0.162888
      6         11           0       -2.113834    1.936216    0.306148
      7         11           0       -0.161395    0.314230   -1.334392
 ---------------------------------------------------------------------

 SCF Done:  E(UB3LYP) =  -1136.13370179     A.U. after   19 cycles

 The electronic state is 2-A.
 Alpha  occ. eigenvalues --  -38.44484 -38.43858 -38.43577 -38.43477 -38.43447
 Alpha  occ. eigenvalues --  -38.43203 -38.42916  -2.20263  -2.19726  -2.19491
 Alpha  occ. eigenvalues --   -2.19330  -2.19301  -2.19131  -2.18995  -1.13943
 Alpha  occ. eigenvalues --   -1.13911  -1.13905  -1.13426  -1.13386  -1.13354
 Alpha  occ. eigenvalues --   -1.13229  -1.13142  -1.13109  -1.13071  -1.13015
 Alpha  occ. eigenvalues --   -1.12981  -1.12979  -1.12944  -1.12914  -1.12816
 Alpha  occ. eigenvalues --   -1.12745  -1.12735  -1.12671  -1.12619  -1.12605
 Alpha  occ. eigenvalues --   -0.18852  -0.13108  -0.12557  -0.10418
 Alpha virt. eigenvalues --   -0.05922  -0.05098  -0.04712  -0.03023  -0.02732
 Alpha virt. eigenvalues --   -0.02136  -0.01767  -0.01154  -0.00451  -0.00369
 Alpha virt. eigenvalues --    0.00017   0.00321   0.00773   0.00871   0.00877

  Beta  occ. eigenvalues --  -38.44482 -38.43841 -38.43566 -38.43474 -38.43441
  Beta  occ. eigenvalues --  -38.43108 -38.42869  -2.20262  -2.19697  -2.19475
  Beta  occ. eigenvalues --   -2.19328  -2.19293  -2.18955  -2.18912  -1.13932
  Beta  occ. eigenvalues --   -1.13911  -1.13905  -1.13404  -1.13354  -1.13328
  Beta  occ. eigenvalues --   -1.13218  -1.13107  -1.13093  -1.13062  -1.13002
  Beta  occ. eigenvalues --   -1.12967  -1.12950  -1.12941  -1.12912  -1.12708
  Beta  occ. eigenvalues --   -1.12622  -1.12612  -1.12596  -1.12564  -1.12541
  Beta  occ. eigenvalues --   -0.18142  -0.12861  -0.12312
  Beta virt. eigenvalues --   -0.06523  -0.05865  -0.05063  -0.04667  -0.02286
  Beta virt. eigenvalues --   -0.02002  -0.01680  -0.01123  -0.01067  -0.00476
  Beta virt. eigenvalues --   -0.00394   0.00165   0.00374   0.00810   0.00882

 Mulliken charges and spin densities:
               1          2
     1  Na  -0.334138   0.644043
     2  Na   0.276228   0.057231
     3  Na   0.134245  -0.036874
     4  Na   0.203467  -0.024231
     5  Na  -0.024035  -0.053438
     6  Na   0.391145   0.128274
     7  Na  -0.646912   0.284994
 Sum of Mulliken charges =  -0.00000   1.00000

 Dipole moment (field-independent basis, Debye):
    X=              0.2726    Y=             -0.1444    Z=              0.1996  Tot=              0.3675
 Quadrupole moment (field-independent basis, Debye-Ang):
   XX=            -53.6070   YY=            -62.0201   ZZ=            -76.0002
   XY=             -0.0052   XZ=             -0.0934   YZ=              1.8995

 Normal termination of Gaussian 16 at Tue Dec  5 19:38:11 2023.
