 Gaussian 16, Revision B.01,
 Gaussian 16:  ES64L-G16RevB.01 20-Dec-2017

 -------------------------
 #P B3LYP/6-311+g(d) force
 -------------------------

 -----
 DPGEN
 -----
 Symbolic Z-matrix:
 Charge =  0 Multiplicity = 2

                         Standard orientation:
 ---------------------------------------------------------------------
 Center     Atomic      Atomic             Coordinates (Angstroms)
 Number     Number       Type             X           Y           Z
 ---------------------------------------------------------------------
      1         11           0        1.068228    0.411639    1.508338
      2         11           0        2.552921    1.608477   -0.818084
      3         11           0        3.779485   -1.274403    0.039556
      4         11           0       -2.510089   -0.575171    1.810287
      5         11           0       -0.016833   -1.664171   -1.063162
      6         11           0       -3.605444   -0.296566   -1.275339
      7         11           0       -1.268268    1.790194   -0.201595
 ---------------------------------------------------------------------

 SCF Done:  E(UB3LYP) =  -1136.11598048     A.U. after   28 cycles

 The electronic state is 2-A.
 Alpha  occ. eigenvalues --  -38.45056 -38.44718 -38.44323 -38.44282 -38.44230
 Alpha  occ. eigenvalues --  -38.43134 -38.42790  -2.20827  -2.20589  -2.20215
 Alpha  occ. eigenvalues --   -2.20104  -2.20088  -2.19120  -2.18718  -1.14542
 Alpha  occ. eigenvalues --   -1.14531  -1.14412  -1.14258  -1.14237  -1.14215
 Alpha  occ. eigenvalues --   -1.13938  -1.13872  -1.13849  -1.13777  -1.13752
 Alpha  occ. eigenvalues --   -1.13746  -1.13743  -1.13720  -1.13704  -1.12840
 Alpha  occ. eigenvalues --   -1.12779  -1.12727  -1.12416  -1.12385  -1.12328
 Alpha  occ. eigenvalues --   -0.18603  -0.14830  -0.10960  -0.10620
 Alpha virt. eigenvalues --   -0.07367  -0.05506  -0.04834  -0.02980  -0.02957
 Alpha virt. eigenvalues --   -0.02229  -0.01992  -0.01301  -0.01213  -0.00185
 Alpha virt. eigenvalues --    0.00022   0.00214   0.00302   0.00527   0.00594

  Beta  occ. eigenvalues --  -38.45054 -38.44665 -38.44297 -38.44279 -38.44188
  Beta  occ. eigenvalues --  -38.43104 -38.42769  -2.20827  -2.20492  -2.20165
  Beta  occ. eigenvalues --   -2.20099  -2.20012  -2.19069  -2.18684  -1.14545
  Beta  occ. eigenvalues --   -1.14505  -1.14415  -1.14190  -1.14168  -1.14138
  Beta  occ. eigenvalues --   -1.13909  -1.13836  -1.13824  -1.13770  -1.13731
  Beta  occ. eigenvalues --   -1.13710  -1.13698  -1.13686  -1.13655  -1.12811
  Beta  occ. eigenvalues --   -1.12709  -1.12692  -1.12398  -1.12334  -1.12300
  Beta  occ. eigenvalues --   -0.17976  -0.14553  -0.10471
  Beta virt. eigenvalues --   -0.07227  -0.07128  -0.04999  -0.04512  -0.02876
  Beta virt. eigenvalues --   -0.02781  -0.01629  -0.01370  -0.01112  -0.00727
  Beta virt. eigenvalues --   -0.00075   0.00066   0.00289   0.00382   0.00621

 Mulliken charges and spin densities:
               1          2
     1  Na  -0.385537   0.313330
     2  Na   0.320323   0.080317
     3  Na   0.505234  -0.043052
     4  Na   0.165877   0.110643
     5  Na  -0.767090   0.014287
     6  Na   0.764605   0.173875
     7  Na  -0.603411   0.350599
 Sum of Mulliken charges =  -0.00000   1.00000

 Dipole moment (field-independent basis, Debye):
    X=              0.0327    Y=             -0.0561    Z=              0.1469  Tot=              0.1607
 Quadrupole moment (field-independent basis, Debye-Ang):
   XX=            -48.6901   YY=            -78.1246   ZZ=            -69.1309
   XY=              1.2495   XZ=             -2.0963   YZ=             -4.1112

 Normal termination of Gaussian 16 at Fri Dec  8 03:23:29 2023.
