 Gaussian 16, Revision B.01,
 Gaussian 16:  ES64L-G16RevB.01 20-Dec-2017

 -------------------------
 #P B3LYP/6-311+g(d) force
 -------------------------

 -----
 DPGEN
 -----
 Symbolic Z-matrix:
 Charge =  0 Multiplicity = 2

                         Standard orientation:
 ---------------------------------------------------------------------
 Center     Atomic      Atomic             Coordinates (Angstroms)
 Number     Number       Type             X           Y           Z
 ---------------------------------------------------------------------
      1         11           0       -3.529506   -0.257250   -0.141920
      2         11           0        2.533270    1.687076   -0.666618
      3         11           0        1.195262   -0.118739    2.442340
      4         11           0       -1.319185    3.021293    0.099182
      5         11           0        2.453581   -1.590205   -0.759062
      6         11           0       -1.033987   -2.758661    0.040551
      7         11           0       -0.299435    0.016486   -1.014472
 ---------------------------------------------------------------------

 SCF Done:  E(UB3LYP) =  -1136.12964864     A.U. after   20 cycles

 The electronic state is 2-A.
 Alpha  occ. eigenvalues --  -38.44510 -38.44032 -38.43922 -38.43820 -38.43759
 Alpha  occ. eigenvalues --  -38.43471 -38.42794  -2.20303  -2.19877  -2.19749
 Alpha  occ. eigenvalues --   -2.19640  -2.19592  -2.19318  -2.18852  -1.13985
 Alpha  occ. eigenvalues --   -1.13967  -1.13928  -1.13573  -1.13531  -1.13513
 Alpha  occ. eigenvalues --   -1.13390  -1.13369  -1.13365  -1.13337  -1.13279
 Alpha  occ. eigenvalues --   -1.13274  -1.13263  -1.13262  -1.13221  -1.13060
 Alpha  occ. eigenvalues --   -1.12974  -1.12928  -1.12543  -1.12498  -1.12492
 Alpha  occ. eigenvalues --   -0.18159  -0.13243  -0.12064  -0.10688
 Alpha virt. eigenvalues --   -0.06013  -0.05340  -0.04686  -0.03134  -0.02601
 Alpha virt. eigenvalues --   -0.02491  -0.01757  -0.01181  -0.00767  -0.00523
 Alpha virt. eigenvalues --   -0.00096   0.00298   0.00711   0.00780   0.00831

  Beta  occ. eigenvalues --  -38.44513 -38.44015 -38.43822 -38.43801 -38.43739
  Beta  occ. eigenvalues --  -38.43468 -38.42769  -2.20308  -2.19849  -2.19606
  Beta  occ. eigenvalues --   -2.19597  -2.19524  -2.19316  -2.18809  -1.13984
  Beta  occ. eigenvalues --   -1.13970  -1.13934  -1.13551  -1.13508  -1.13480
  Beta  occ. eigenvalues --   -1.13313  -1.13275  -1.13260  -1.13254  -1.13236
  Beta  occ. eigenvalues --   -1.13231  -1.13226  -1.13212  -1.13205  -1.13058
  Beta  occ. eigenvalues --   -1.12959  -1.12929  -1.12501  -1.12470  -1.12453
  Beta  occ. eigenvalues --   -0.17522  -0.13021  -0.11947
  Beta virt. eigenvalues --   -0.06558  -0.05933  -0.05285  -0.04627  -0.02479
  Beta virt. eigenvalues --   -0.01877  -0.01725  -0.01454  -0.01130  -0.00740
  Beta virt. eigenvalues --   -0.00540   0.00168   0.00369   0.00782   0.00834

 Mulliken charges and spin densities:
               1          2
     1  Na   0.050624  -0.003034
     2  Na   0.417083   0.056787
     3  Na  -0.811856   0.683833
     4  Na  -0.070812  -0.027859
     5  Na   0.633240   0.095307
     6  Na   0.160047   0.015769
     7  Na  -0.378326   0.179198
 Sum of Mulliken charges =  -0.00000   1.00000

 Dipole moment (field-independent basis, Debye):
    X=             -0.3248    Y=              0.0467    Z=              0.1227  Tot=              0.3503
 Quadrupole moment (field-independent basis, Debye-Ang):
   XX=            -54.4547   YY=            -62.6374   ZZ=            -75.4387
   XY=              0.4048   XZ=             -2.5862   YZ=              0.4333

 Normal termination of Gaussian 16 at Thu Dec  7 13:08:34 2023.
