 Gaussian 16, Revision B.01,
 Gaussian 16:  ES64L-G16RevB.01 20-Dec-2017

 -------------------------
 #P B3LYP/6-311+g(d) force
 -------------------------

 -----
 DPGEN
 -----
 Symbolic Z-matrix:
 Charge =  0 Multiplicity = 2

                         Standard orientation:
 ---------------------------------------------------------------------
 Center     Atomic      Atomic             Coordinates (Angstroms)
 Number     Number       Type             X           Y           Z
 ---------------------------------------------------------------------
      1         11           0       -4.501933   -0.157750    0.099094
      2         11           0       -1.541949    1.910792   -0.483919
      3         11           0       -1.050997   -0.545694    2.270458
      4         11           0        2.409735    2.139052   -0.066317
      5         11           0        4.751688   -0.956165    0.376166
      6         11           0        1.780501   -0.927177   -0.991466
      7         11           0       -1.847044   -1.463059   -1.204016
 ---------------------------------------------------------------------

 SCF Done:  E(UB3LYP) =  -1136.10383607     A.U. after   39 cycles

 The electronic state is 2-A.
 Alpha  occ. eigenvalues --  -38.46178 -38.44536 -38.44359 -38.44175 -38.44113
 Alpha  occ. eigenvalues --  -38.43818 -38.43365  -2.21953  -2.20390  -2.20202
 Alpha  occ. eigenvalues --   -2.19965  -2.19961  -2.19612  -2.19194  -1.15616
 Alpha  occ. eigenvalues --   -1.15584  -1.15573  -1.14090  -1.14062  -1.14038
 Alpha  occ. eigenvalues --   -1.13855  -1.13836  -1.13817  -1.13689  -1.13640
 Alpha  occ. eigenvalues --   -1.13631  -1.13622  -1.13606  -1.13555  -1.13312
 Alpha  occ. eigenvalues --   -1.13283  -1.13203  -1.12912  -1.12860  -1.12783
 Alpha  occ. eigenvalues --   -0.17725  -0.14402  -0.10849  -0.10349
 Alpha virt. eigenvalues --   -0.08231  -0.05645  -0.04555  -0.03294  -0.03088
 Alpha virt. eigenvalues --   -0.02446  -0.01949  -0.01725  -0.01453  -0.00752
 Alpha virt. eigenvalues --   -0.00466   0.00114   0.00206   0.00482   0.00514

  Beta  occ. eigenvalues --  -38.46111 -38.44529 -38.44298 -38.44160 -38.44105
  Beta  occ. eigenvalues --  -38.43808 -38.43344  -2.21829  -2.20384  -2.20089
  Beta  occ. eigenvalues --   -2.19949  -2.19937  -2.19593  -2.19156  -1.15526
  Beta  occ. eigenvalues --   -1.15498  -1.15488  -1.14091  -1.14051  -1.13994
  Beta  occ. eigenvalues --   -1.13775  -1.13754  -1.13748  -1.13679  -1.13625
  Beta  occ. eigenvalues --   -1.13612  -1.13604  -1.13587  -1.13531  -1.13300
  Beta  occ. eigenvalues --   -1.13271  -1.13185  -1.12890  -1.12835  -1.12744
  Beta  occ. eigenvalues --   -0.17088  -0.14010  -0.10190
  Beta virt. eigenvalues --   -0.07872  -0.07224  -0.05351  -0.04292  -0.02952
  Beta virt. eigenvalues --   -0.02849  -0.02029  -0.01673  -0.01316  -0.01096
  Beta virt. eigenvalues --   -0.00450  -0.00307   0.00164   0.00268   0.00519

 Mulliken charges and spin densities:
               1          2
     1  Na   0.752298   0.362774
     2  Na  -0.567755   0.158248
     3  Na  -0.104981   0.228202
     4  Na   0.095937   0.069628
     5  Na   0.818106   0.005691
     6  Na  -0.873723   0.126679
     7  Na  -0.119882   0.048777
 Sum of Mulliken charges =  -0.00000   1.00000

 Dipole moment (field-independent basis, Debye):
    X=             -0.2859    Y=             -0.2034    Z=              1.7709  Tot=              1.8053
 Quadrupole moment (field-independent basis, Debye-Ang):
   XX=            -61.4484   YY=            -80.0061   ZZ=            -61.6548
   XY=              1.5511   XZ=             -1.4493   YZ=             -1.8051

 Normal termination of Gaussian 16 at Thu Dec  7 23:01:56 2023.
