 Gaussian 16, Revision B.01,
 Gaussian 16:  ES64L-G16RevB.01 20-Dec-2017

 -------------------------
 #P B3LYP/6-311+g(d) force
 -------------------------

 -----
 DPGEN
 -----
 Symbolic Z-matrix:
 Charge =  0 Multiplicity = 2

                         Standard orientation:
 ---------------------------------------------------------------------
 Center     Atomic      Atomic             Coordinates (Angstroms)
 Number     Number       Type             X           Y           Z
 ---------------------------------------------------------------------
      1         11           0        3.032271    2.610301   -0.752670
      2         11           0        5.016902    0.487327    0.446723
      3         11           0        2.935185   -1.751402    0.980473
      4         11           0        0.785835   -2.048452   -1.203256
      5         11           0       -1.486469   -0.223921   -0.310811
      6         11           0       -3.922224    0.799113    1.224766
      7         11           0       -6.361499    0.127034   -0.385226
 ---------------------------------------------------------------------

 SCF Done:  E(UB3LYP) =  -1136.10439610     A.U. after   20 cycles

 The electronic state is 2-A.
 Alpha  occ. eigenvalues --  -38.45018 -38.44497 -38.44467 -38.44239 -38.43883
 Alpha  occ. eigenvalues --  -38.43661 -38.43594  -2.20830  -2.20365  -2.20276
 Alpha  occ. eigenvalues --   -2.20122  -2.19758  -2.19522  -2.19443  -1.14528
 Alpha  occ. eigenvalues --   -1.14469  -1.14464  -1.14078  -1.14001  -1.13998
 Alpha  occ. eigenvalues --   -1.13922  -1.13917  -1.13903  -1.13806  -1.13775
 Alpha  occ. eigenvalues --   -1.13747  -1.13475  -1.13401  -1.13385  -1.13194
 Alpha  occ. eigenvalues --   -1.13161  -1.13148  -1.13120  -1.13100  -1.13093
 Alpha  occ. eigenvalues --   -0.16291  -0.14831  -0.12214  -0.10776
 Alpha virt. eigenvalues --   -0.07026  -0.04938  -0.04207  -0.03772  -0.03213
 Alpha virt. eigenvalues --   -0.02609  -0.01954  -0.01807  -0.01227  -0.00580
 Alpha virt. eigenvalues --   -0.00084  -0.00049   0.00301   0.00412   0.00548

  Beta  occ. eigenvalues --  -38.44976 -38.44501 -38.44386 -38.44167 -38.43848
  Beta  occ. eigenvalues --  -38.43672 -38.43603  -2.20751  -2.20378  -2.20124
  Beta  occ. eigenvalues --   -2.19988  -2.19692  -2.19547  -2.19464  -1.14480
  Beta  occ. eigenvalues --   -1.14414  -1.14409  -1.14069  -1.14014  -1.13993
  Beta  occ. eigenvalues --   -1.13823  -1.13815  -1.13798  -1.13723  -1.13690
  Beta  occ. eigenvalues --   -1.13651  -1.13448  -1.13355  -1.13340  -1.13195
  Beta  occ. eigenvalues --   -1.13180  -1.13146  -1.13127  -1.13115  -1.13080
  Beta  occ. eigenvalues --   -0.15801  -0.14390  -0.11846
  Beta virt. eigenvalues --   -0.07552  -0.06331  -0.04624  -0.03984  -0.03550
  Beta virt. eigenvalues --   -0.02684  -0.02500  -0.01660  -0.01553  -0.00951
  Beta virt. eigenvalues --   -0.00349   0.00015   0.00173   0.00471   0.00527

 Mulliken charges and spin densities:
               1          2
     1  Na   0.127456   0.420467
     2  Na  -0.068835  -0.097679
     3  Na   0.328909   0.398503
     4  Na   0.344223   0.048713
     5  Na  -1.212050   0.037532
     6  Na   0.330335  -0.026005
     7  Na   0.149962   0.218469
 Sum of Mulliken charges =  -0.00000   1.00000

 Dipole moment (field-independent basis, Debye):
    X=             -1.5121    Y=              0.0300    Z=             -0.1978  Tot=              1.5253
 Quadrupole moment (field-independent basis, Debye-Ang):
   XX=            -60.1642   YY=            -71.8954   ZZ=            -66.3133
   XY=             -1.2714   XZ=              3.8176   YZ=              1.2325

 Normal termination of Gaussian 16 at Mon Nov 27 04:22:06 2023.
