 Gaussian 16, Revision B.01,
 Gaussian 16:  ES64L-G16RevB.01 20-Dec-2017

 -------------------------
 #P B3LYP/6-311+g(d) force
 -------------------------

 -----
 DPGEN
 -----
 Symbolic Z-matrix:
 Charge =  0 Multiplicity = 2

                         Standard orientation:
 ---------------------------------------------------------------------
 Center     Atomic      Atomic             Coordinates (Angstroms)
 Number     Number       Type             X           Y           Z
 ---------------------------------------------------------------------
      1         11           0        3.097252   -1.028519   -0.689851
      2         11           0       -2.935892   -1.401478    0.584203
      3         11           0       -0.940098   -0.724309   -1.866952
      4         11           0       -2.587143    1.997508    0.201806
      5         11           0        0.424609   -2.053266    0.766732
      6         11           0        1.204923    2.152782   -1.034607
      7         11           0        1.736350    1.057283    2.038668
 ---------------------------------------------------------------------

 SCF Done:  E(UB3LYP) =  -1136.12861356     A.U. after   21 cycles

 The electronic state is 2-A.
 Alpha  occ. eigenvalues --  -38.44676 -38.44200 -38.44156 -38.44046 -38.43950
 Alpha  occ. eigenvalues --  -38.43296 -38.42897  -2.20494  -2.19993  -2.19971
 Alpha  occ. eigenvalues --   -2.19940  -2.19807  -2.19126  -2.18802  -1.14176
 Alpha  occ. eigenvalues --   -1.14150  -1.14131  -1.13655  -1.13654  -1.13648
 Alpha  occ. eigenvalues --   -1.13642  -1.13631  -1.13613  -1.13607  -1.13601
 Alpha  occ. eigenvalues --   -1.13557  -1.13473  -1.13445  -1.13432  -1.12804
 Alpha  occ. eigenvalues --   -1.12799  -1.12751  -1.12495  -1.12471  -1.12425
 Alpha  occ. eigenvalues --   -0.18100  -0.13614  -0.11623  -0.10982
 Alpha virt. eigenvalues --   -0.06193  -0.05376  -0.04542  -0.03440  -0.02972
 Alpha virt. eigenvalues --   -0.02677  -0.01781  -0.00948  -0.00360  -0.00255
 Alpha virt. eigenvalues --    0.00066   0.00346   0.00406   0.00555   0.00763

  Beta  occ. eigenvalues --  -38.44669 -38.44200 -38.44089 -38.43991 -38.43941
  Beta  occ. eigenvalues --  -38.43276 -38.42880  -2.20484  -2.19972  -2.19868
  Beta  occ. eigenvalues --   -2.19841  -2.19790  -2.19093  -2.18775  -1.14171
  Beta  occ. eigenvalues --   -1.14131  -1.14115  -1.13648  -1.13635  -1.13614
  Beta  occ. eigenvalues --   -1.13583  -1.13570  -1.13554  -1.13533  -1.13520
  Beta  occ. eigenvalues --   -1.13489  -1.13453  -1.13421  -1.13414  -1.12785
  Beta  occ. eigenvalues --   -1.12748  -1.12730  -1.12476  -1.12432  -1.12403
  Beta  occ. eigenvalues --   -0.17401  -0.13408  -0.11452
  Beta virt. eigenvalues --   -0.07216  -0.06020  -0.05257  -0.03956  -0.03274
  Beta virt. eigenvalues --   -0.02334  -0.01743  -0.01688  -0.00906  -0.00277
  Beta virt. eigenvalues --   -0.00018   0.00075   0.00422   0.00557   0.00719

 Mulliken charges and spin densities:
               1          2
     1  Na   0.491795   0.062629
     2  Na   0.359463   0.041474
     3  Na  -0.352303   0.338591
     4  Na  -0.130842  -0.033188
     5  Na   0.037752   0.231653
     6  Na  -0.134326   0.121282
     7  Na  -0.271539   0.237558
 Sum of Mulliken charges =  -0.00000   1.00000

 Dipole moment (field-independent basis, Debye):
    X=              0.0289    Y=             -0.0673    Z=              0.0188  Tot=              0.0756
 Quadrupole moment (field-independent basis, Debye-Ang):
   XX=            -54.4001   YY=            -72.8230   ZZ=            -68.1989
   XY=             -0.8192   XZ=             -3.1031   YZ=              0.7090

 Normal termination of Gaussian 16 at Fri Dec  8 19:39:25 2023.
