 Gaussian 16, Revision B.01,
 Gaussian 16:  ES64L-G16RevB.01 20-Dec-2017

 -------------------------
 #P B3LYP/6-311+g(d) force
 -------------------------

 -----
 DPGEN
 -----
 Symbolic Z-matrix:
 Charge =  0 Multiplicity = 2

                         Standard orientation:
 ---------------------------------------------------------------------
 Center     Atomic      Atomic             Coordinates (Angstroms)
 Number     Number       Type             X           Y           Z
 ---------------------------------------------------------------------
      1         11           0        3.142742    0.509666   -0.511319
      2         11           0       -4.413044   -1.352063   -0.304727
      3         11           0        1.070911   -0.128465    2.182560
      4         11           0       -0.147122   -0.475758   -1.526237
      5         11           0       -2.404271    1.215413    0.789645
      6         11           0        0.499330    2.910327   -0.580474
      7         11           0        2.251453   -2.679120   -0.049449
 ---------------------------------------------------------------------

 SCF Done:  E(UB3LYP) =  -1136.12407994     A.U. after   22 cycles

 The electronic state is 2-A.
 Alpha  occ. eigenvalues --  -38.44961 -38.44609 -38.44513 -38.44087 -38.43849
 Alpha  occ. eigenvalues --  -38.43600 -38.42783  -2.20822  -2.20454  -2.20256
 Alpha  occ. eigenvalues --   -2.19940  -2.19668  -2.19433  -2.18609  -1.14508
 Alpha  occ. eigenvalues --   -1.14490  -1.14440  -1.14152  -1.14099  -1.14070
 Alpha  occ. eigenvalues --   -1.13929  -1.13928  -1.13894  -1.13605  -1.13583
 Alpha  occ. eigenvalues --   -1.13534  -1.13360  -1.13349  -1.13274  -1.13105
 Alpha  occ. eigenvalues --   -1.13090  -1.13078  -1.12282  -1.12273  -1.12255
 Alpha  occ. eigenvalues --   -0.18009  -0.13421  -0.11548  -0.10850
 Alpha virt. eigenvalues --   -0.07022  -0.05334  -0.04372  -0.03357  -0.02791
 Alpha virt. eigenvalues --   -0.02500  -0.02332  -0.01366  -0.00864  -0.00425
 Alpha virt. eigenvalues --   -0.00165   0.00123   0.00254   0.00656   0.00675

  Beta  occ. eigenvalues --  -38.44944 -38.44559 -38.44524 -38.43985 -38.43839
  Beta  occ. eigenvalues --  -38.43596 -38.42778  -2.20794  -2.20363  -2.20277
  Beta  occ. eigenvalues --   -2.19751  -2.19650  -2.19428  -2.18603  -1.14480
  Beta  occ. eigenvalues --   -1.14455  -1.14420  -1.14085  -1.14033  -1.13998
  Beta  occ. eigenvalues --   -1.13943  -1.13942  -1.13907  -1.13474  -1.13457
  Beta  occ. eigenvalues --   -1.13398  -1.13346  -1.13327  -1.13264  -1.13103
  Beta  occ. eigenvalues --   -1.13083  -1.13057  -1.12277  -1.12264  -1.12241
  Beta  occ. eigenvalues --   -0.17241  -0.13348  -0.11375
  Beta virt. eigenvalues --   -0.06969  -0.06801  -0.05165  -0.04209  -0.02869
  Beta virt. eigenvalues --   -0.02378  -0.01939  -0.01643  -0.01233  -0.00845
  Beta virt. eigenvalues --   -0.00157  -0.00104   0.00149   0.00439   0.00694

 Mulliken charges and spin densities:
               1          2
     1  Na   0.502060   0.163841
     2  Na   0.069712  -0.067495
     3  Na  -0.380509   0.522557
     4  Na  -0.457526   0.331096
     5  Na   0.098606   0.037563
     6  Na  -0.041246  -0.014464
     7  Na   0.208904   0.026903
 Sum of Mulliken charges =  -0.00000   1.00000

 Dipole moment (field-independent basis, Debye):
    X=              0.4268    Y=             -0.3477    Z=             -0.1918  Tot=              0.5830
 Quadrupole moment (field-independent basis, Debye-Ang):
   XX=            -55.2723   YY=            -66.1026   ZZ=            -73.7946
   XY=              2.1803   XZ=             -0.7339   YZ=              1.2328

 Normal termination of Gaussian 16 at Fri Dec  8 03:18:01 2023.
