 Gaussian 16, Revision B.01,
 Gaussian 16:  ES64L-G16RevB.01 20-Dec-2017

 -------------------------
 #P B3LYP/6-311+g(d) force
 -------------------------

 -----
 DPGEN
 -----
 Symbolic Z-matrix:
 Charge =  0 Multiplicity = 2

                         Standard orientation:
 ---------------------------------------------------------------------
 Center     Atomic      Atomic             Coordinates (Angstroms)
 Number     Number       Type             X           Y           Z
 ---------------------------------------------------------------------
      1         11           0        3.213107    0.839505    0.294126
      2         11           0       -0.131943    0.178606   -1.614404
      3         11           0        1.837590   -2.267896   -0.576386
      4         11           0        0.099571    2.926247   -0.072833
      5         11           0       -2.986525    1.070712   -0.215600
      6         11           0       -1.756089   -2.460532    0.089906
      7         11           0       -0.275711   -0.286643    2.095193
 ---------------------------------------------------------------------

 SCF Done:  E(UB3LYP) =  -1136.13758492     A.U. after   19 cycles

 The electronic state is 2-A.
 Alpha  occ. eigenvalues --  -38.44054 -38.44051 -38.43743 -38.43534 -38.43511
 Alpha  occ. eigenvalues --  -38.43490 -38.43179  -2.19882  -2.19840  -2.19616
 Alpha  occ. eigenvalues --   -2.19376  -2.19357  -2.19331  -2.19162  -1.13572
 Alpha  occ. eigenvalues --   -1.13540  -1.13512  -1.13510  -1.13498  -1.13486
 Alpha  occ. eigenvalues --   -1.13286  -1.13251  -1.13234  -1.13085  -1.13065
 Alpha  occ. eigenvalues --   -1.13035  -1.13029  -1.13024  -1.13005  -1.12993
 Alpha  occ. eigenvalues --   -1.12976  -1.12943  -1.12833  -1.12784  -1.12781
 Alpha  occ. eigenvalues --   -0.18450  -0.12834  -0.12488  -0.10755
 Alpha virt. eigenvalues --   -0.05674  -0.05204  -0.04718  -0.03116  -0.02989
 Alpha virt. eigenvalues --   -0.02589  -0.01570  -0.01162  -0.00449  -0.00356
 Alpha virt. eigenvalues --   -0.00014   0.00347   0.00799   0.00856   0.00878

  Beta  occ. eigenvalues --  -38.44052 -38.44046 -38.43648 -38.43520 -38.43506
  Beta  occ. eigenvalues --  -38.43486 -38.43117  -2.19874  -2.19838  -2.19441
  Beta  occ. eigenvalues --   -2.19354  -2.19350  -2.19328  -2.19050  -1.13558
  Beta  occ. eigenvalues --   -1.13528  -1.13504  -1.13503  -1.13493  -1.13486
  Beta  occ. eigenvalues --   -1.13175  -1.13130  -1.13112  -1.13061  -1.13050
  Beta  occ. eigenvalues --   -1.13020  -1.13004  -1.12999  -1.12991  -1.12979
  Beta  occ. eigenvalues --   -1.12968  -1.12940  -1.12758  -1.12708  -1.12699
  Beta  occ. eigenvalues --   -0.17734  -0.12617  -0.12233
  Beta virt. eigenvalues --   -0.06869  -0.05640  -0.05156  -0.04652  -0.02398
  Beta virt. eigenvalues --   -0.02215  -0.01546  -0.01484  -0.01077  -0.00482
  Beta virt. eigenvalues --   -0.00388   0.00124   0.00376   0.00847   0.00870

 Mulliken charges and spin densities:
               1          2
     1  Na  -0.070241   0.001159
     2  Na   0.002310   0.378072
     3  Na   0.118183   0.002876
     4  Na   0.027186  -0.051401
     5  Na   0.176269  -0.077372
     6  Na   0.232685  -0.036878
     7  Na  -0.486393   0.783545
 Sum of Mulliken charges =  -0.00000   1.00000

 Dipole moment (field-independent basis, Debye):
    X=             -0.1361    Y=              0.0876    Z=              0.1829  Tot=              0.2442
 Quadrupole moment (field-independent basis, Debye-Ang):
   XX=            -56.1576   YY=            -62.7368   ZZ=            -74.3851
   XY=              0.2979   XZ=              0.7267   YZ=              1.3245

 Normal termination of Gaussian 16 at Thu Dec  7 07:51:51 2023.
