 Gaussian 16, Revision B.01,
 Gaussian 16:  ES64L-G16RevB.01 20-Dec-2017

 -------------------------
 #P B3LYP/6-311+g(d) force
 -------------------------

 -----
 DPGEN
 -----
 Symbolic Z-matrix:
 Charge =  0 Multiplicity = 2

                         Standard orientation:
 ---------------------------------------------------------------------
 Center     Atomic      Atomic             Coordinates (Angstroms)
 Number     Number       Type             X           Y           Z
 ---------------------------------------------------------------------
      1         11           0        0.249435   -0.026036   -1.682903
      2         11           0       -2.555894    1.635309   -0.122518
      3         11           0        0.910963   -2.928290    0.037817
      4         11           0        0.886396    2.887430    0.233914
      5         11           0        0.122553   -0.308557    1.975343
      6         11           0        3.141278    0.146129   -0.270332
      7         11           0       -2.754731   -1.405985   -0.171321
 ---------------------------------------------------------------------

 SCF Done:  E(UB3LYP) =  -1136.13794028     A.U. after   19 cycles

 The electronic state is 2-A.
 Alpha  occ. eigenvalues --  -38.44247 -38.43888 -38.43644 -38.43532 -38.43436
 Alpha  occ. eigenvalues --  -38.43402 -38.43277  -2.20083  -2.19739  -2.19502
 Alpha  occ. eigenvalues --   -2.19365  -2.19333  -2.19232  -2.19226  -1.13782
 Alpha  occ. eigenvalues --   -1.13739  -1.13704  -1.13475  -1.13399  -1.13371
 Alpha  occ. eigenvalues --   -1.13162  -1.13153  -1.13134  -1.13070  -1.13044
 Alpha  occ. eigenvalues --   -1.12997  -1.12994  -1.12955  -1.12942  -1.12920
 Alpha  occ. eigenvalues --   -1.12896  -1.12890  -1.12868  -1.12862  -1.12842
 Alpha  occ. eigenvalues --   -0.18559  -0.13156  -0.12371  -0.10642
 Alpha virt. eigenvalues --   -0.05752  -0.05055  -0.04875  -0.03186  -0.02869
 Alpha virt. eigenvalues --   -0.02477  -0.01576  -0.01171  -0.00461  -0.00396
 Alpha virt. eigenvalues --   -0.00005   0.00362   0.00810   0.00858   0.00904

  Beta  occ. eigenvalues --  -38.44237 -38.43884 -38.43642 -38.43527 -38.43397
  Beta  occ. eigenvalues --  -38.43345 -38.43212  -2.20069  -2.19734  -2.19500
  Beta  occ. eigenvalues --   -2.19360  -2.19220  -2.19164  -2.19113  -1.13762
  Beta  occ. eigenvalues --   -1.13715  -1.13700  -1.13475  -1.13380  -1.13364
  Beta  occ. eigenvalues --   -1.13156  -1.13147  -1.13125  -1.13051  -1.13015
  Beta  occ. eigenvalues --   -1.12992  -1.12907  -1.12885  -1.12874  -1.12862
  Beta  occ. eigenvalues --   -1.12839  -1.12824  -1.12820  -1.12774  -1.12767
  Beta  occ. eigenvalues --   -0.17843  -0.12907  -0.12139
  Beta virt. eigenvalues --   -0.06761  -0.05709  -0.05060  -0.04809  -0.02413
  Beta virt. eigenvalues --   -0.02104  -0.01481  -0.01431  -0.01093  -0.00516
  Beta virt. eigenvalues --   -0.00443   0.00133   0.00393   0.00834   0.00875

 Mulliken charges and spin densities:
               1          2
     1  Na  -0.163980   0.538190
     2  Na   0.006274  -0.036145
     3  Na   0.141831  -0.136414
     4  Na   0.008580  -0.031675
     5  Na  -0.393858   0.794459
     6  Na   0.247040  -0.062232
     7  Na   0.154113  -0.066183
 Sum of Mulliken charges =  -0.00000   1.00000

 Dipole moment (field-independent basis, Debye):
    X=              0.2571    Y=             -0.1439    Z=              0.0496  Tot=              0.2988
 Quadrupole moment (field-independent basis, Debye-Ang):
   XX=            -57.0513   YY=            -61.4839   ZZ=            -75.0072
   XY=              0.1557   XZ=              0.1855   YZ=              0.7834

 Normal termination of Gaussian 16 at Fri Dec  8 06:17:47 2023.
