 Gaussian 16, Revision B.01,
 Gaussian 16:  ES64L-G16RevB.01 20-Dec-2017

 -------------------------
 #P B3LYP/6-311+g(d) force
 -------------------------

 -----
 DPGEN
 -----
 Symbolic Z-matrix:
 Charge =  0 Multiplicity = 2

                         Standard orientation:
 ---------------------------------------------------------------------
 Center     Atomic      Atomic             Coordinates (Angstroms)
 Number     Number       Type             X           Y           Z
 ---------------------------------------------------------------------
      1         11           0        0.165988    3.994338    0.056991
      2         11           0       -2.145815    1.931134   -0.542688
      3         11           0       -2.073193   -3.089092   -0.954522
      4         11           0        1.735175   -2.862037    0.078391
      5         11           0        1.532556    0.865460   -0.958074
      6         11           0        4.161451   -0.281121    0.797569
      7         11           0       -3.376162   -0.558681    1.522333
 ---------------------------------------------------------------------

 SCF Done:  E(UB3LYP) =  -1136.11976406     A.U. after   19 cycles

 The electronic state is 2-A.
 Alpha  occ. eigenvalues --  -38.44787 -38.44769 -38.44226 -38.44097 -38.44026
 Alpha  occ. eigenvalues --  -38.43820 -38.43461  -2.20591  -2.20533  -2.20062
 Alpha  occ. eigenvalues --   -2.19924  -2.19778  -2.19641  -2.19264  -1.14303
 Alpha  occ. eigenvalues --   -1.14292  -1.14229  -1.14215  -1.14176  -1.14132
 Alpha  occ. eigenvalues --   -1.13768  -1.13742  -1.13715  -1.13574  -1.13572
 Alpha  occ. eigenvalues --   -1.13529  -1.13461  -1.13431  -1.13407  -1.13302
 Alpha  occ. eigenvalues --   -1.13292  -1.13252  -1.12922  -1.12914  -1.12880
 Alpha  occ. eigenvalues --   -0.16306  -0.13665  -0.12931  -0.10056
 Alpha virt. eigenvalues --   -0.06161  -0.05848  -0.04841  -0.03535  -0.02770
 Alpha virt. eigenvalues --   -0.02214  -0.01708  -0.01540  -0.01421  -0.01097
 Alpha virt. eigenvalues --   -0.00123  -0.00001   0.00478   0.00543   0.00628

  Beta  occ. eigenvalues --  -38.44785 -38.44745 -38.44212 -38.44080 -38.43998
  Beta  occ. eigenvalues --  -38.43773 -38.43399  -2.20589  -2.20493  -2.20040
  Beta  occ. eigenvalues --   -2.19893  -2.19729  -2.19551  -2.19149  -1.14297
  Beta  occ. eigenvalues --   -1.14292  -1.14205  -1.14193  -1.14168  -1.14077
  Beta  occ. eigenvalues --   -1.13760  -1.13732  -1.13669  -1.13552  -1.13549
  Beta  occ. eigenvalues --   -1.13505  -1.13430  -1.13399  -1.13356  -1.13239
  Beta  occ. eigenvalues --   -1.13230  -1.13197  -1.12844  -1.12828  -1.12806
  Beta  occ. eigenvalues --   -0.15986  -0.13148  -0.12312
  Beta virt. eigenvalues --   -0.06726  -0.06114  -0.05638  -0.04435  -0.03281
  Beta virt. eigenvalues --   -0.02500  -0.01842  -0.01561  -0.01332  -0.01160
  Beta virt. eigenvalues --   -0.00760   0.00169   0.00201   0.00567   0.00620

 Mulliken charges and spin densities:
               1          2
     1  Na   0.335146   0.085416
     2  Na  -0.107360   0.121964
     3  Na  -0.065781   0.120947
     4  Na  -0.070241   0.167091
     5  Na  -0.599742  -0.028726
     6  Na   0.472579   0.224680
     7  Na   0.035400   0.308628
 Sum of Mulliken charges =  -0.00000   1.00000

 Dipole moment (field-independent basis, Debye):
    X=              1.1018    Y=              0.8982    Z=              0.2756  Tot=              1.4480
 Quadrupole moment (field-independent basis, Debye-Ang):
   XX=            -68.2602   YY=            -62.9184   ZZ=            -68.1912
   XY=              0.6610   XZ=              3.9573   YZ=              0.3888

 Normal termination of Gaussian 16 at Sun Dec  3 15:14:34 2023.
