 Gaussian 16, Revision B.01,
 Gaussian 16:  ES64L-G16RevB.01 20-Dec-2017

 -------------------------
 #P B3LYP/6-311+g(d) force
 -------------------------

 -----
 DPGEN
 -----
 Symbolic Z-matrix:
 Charge =  0 Multiplicity = 2

                         Standard orientation:
 ---------------------------------------------------------------------
 Center     Atomic      Atomic             Coordinates (Angstroms)
 Number     Number       Type             X           Y           Z
 ---------------------------------------------------------------------
      1         11           0        2.106786   -1.204583    1.156750
      2         11           0       -0.816786   -1.965903    0.817342
      3         11           0       -2.978452   -1.479210   -1.292839
      4         11           0       -2.804490    2.278366    0.211775
      5         11           0        3.920213    0.635478   -1.211034
      6         11           0        0.176066    1.195762    1.835018
      7         11           0        0.396663    0.540090   -1.517013
 ---------------------------------------------------------------------

 SCF Done:  E(UB3LYP) =  -1136.11952001     A.U. after   24 cycles

 The electronic state is 2-A.
 Alpha  occ. eigenvalues --  -38.44708 -38.44678 -38.44519 -38.44456 -38.43564
 Alpha  occ. eigenvalues --  -38.43510 -38.42545  -2.20552  -2.20479  -2.20370
 Alpha  occ. eigenvalues --   -2.20350  -2.19508  -2.19283  -2.18486  -1.14279
 Alpha  occ. eigenvalues --   -1.14218  -1.14166  -1.14132  -1.14128  -1.14089
 Alpha  occ. eigenvalues --   -1.14050  -1.14033  -1.14011  -1.13999  -1.13976
 Alpha  occ. eigenvalues --   -1.13953  -1.13220  -1.13182  -1.13110  -1.12962
 Alpha  occ. eigenvalues --   -1.12940  -1.12919  -1.12174  -1.12147  -1.12134
 Alpha  occ. eigenvalues --   -0.18446  -0.13675  -0.11878  -0.11346
 Alpha virt. eigenvalues --   -0.06456  -0.05056  -0.04724  -0.03164  -0.02955
 Alpha virt. eigenvalues --   -0.02551  -0.02347  -0.01137  -0.00878   0.00101
 Alpha virt. eigenvalues --    0.00163   0.00184   0.00377   0.00497   0.00663

  Beta  occ. eigenvalues --  -38.44688 -38.44634 -38.44470 -38.44372 -38.43544
  Beta  occ. eigenvalues --  -38.43504 -38.42543  -2.20516  -2.20396  -2.20259
  Beta  occ. eigenvalues --   -2.20217  -2.19475  -2.19274  -2.18489  -1.14247
  Beta  occ. eigenvalues --   -1.14192  -1.14129  -1.14078  -1.14071  -1.14039
  Beta  occ. eigenvalues --   -1.13978  -1.13950  -1.13933  -1.13911  -1.13894
  Beta  occ. eigenvalues --   -1.13852  -1.13193  -1.13152  -1.13074  -1.12954
  Beta  occ. eigenvalues --   -1.12926  -1.12917  -1.12175  -1.12148  -1.12103
  Beta  occ. eigenvalues --   -0.17758  -0.13165  -0.11018
  Beta virt. eigenvalues --   -0.08271  -0.06210  -0.04784  -0.04223  -0.02921
  Beta virt. eigenvalues --   -0.02410  -0.02120  -0.01942  -0.01004  -0.00593
  Beta virt. eigenvalues --    0.00139   0.00233   0.00316   0.00490   0.00604

 Mulliken charges and spin densities:
               1          2
     1  Na   0.949789   0.032625
     2  Na  -0.887352  -0.047287
     3  Na   0.748474   0.181274
     4  Na  -0.187212  -0.060573
     5  Na  -0.039897   0.180503
     6  Na   0.098332   0.358780
     7  Na  -0.682133   0.354679
 Sum of Mulliken charges =  -0.00000   1.00000

 Dipole moment (field-independent basis, Debye):
    X=              0.5419    Y=              0.1844    Z=             -0.3285  Tot=              0.6599
 Quadrupole moment (field-independent basis, Debye-Ang):
   XX=            -51.6275   YY=            -76.9090   ZZ=            -66.8399
   XY=              0.7143   XZ=              2.2761   YZ=              1.9392

 Normal termination of Gaussian 16 at Thu Dec  7 05:50:03 2023.
