 Gaussian 16, Revision B.01,
 Gaussian 16:  ES64L-G16RevB.01 20-Dec-2017

 -------------------------
 #P B3LYP/6-311+g(d) force
 -------------------------

 -----
 DPGEN
 -----
 Symbolic Z-matrix:
 Charge =  0 Multiplicity = 2

                         Standard orientation:
 ---------------------------------------------------------------------
 Center     Atomic      Atomic             Coordinates (Angstroms)
 Number     Number       Type             X           Y           Z
 ---------------------------------------------------------------------
      1         11           0       -2.390283   -2.744207   -0.237864
      2         11           0        2.998044   -2.103178   -0.059357
      3         11           0       -3.297507    0.716490    0.164480
      4         11           0        0.356292   -0.409860    2.009041
      5         11           0        2.844261    1.459120   -0.162573
      6         11           0       -0.581794    3.238793   -0.030660
      7         11           0        0.070987   -0.157158   -1.683067
 ---------------------------------------------------------------------

 SCF Done:  E(UB3LYP) =  -1136.12710933     A.U. after   21 cycles

 The electronic state is 2-A.
 Alpha  occ. eigenvalues --  -38.44721 -38.44650 -38.44517 -38.44099 -38.43826
 Alpha  occ. eigenvalues --  -38.43797 -38.43232  -2.20489  -2.20420  -2.20321
 Alpha  occ. eigenvalues --   -2.19860  -2.19672  -2.19620  -2.19008  -1.14174
 Alpha  occ. eigenvalues --   -1.14151  -1.14120  -1.14088  -1.14086  -1.14066
 Alpha  occ. eigenvalues --   -1.14002  -1.13991  -1.13939  -1.13530  -1.13519
 Alpha  occ. eigenvalues --   -1.13503  -1.13375  -1.13303  -1.13292  -1.13290
 Alpha  occ. eigenvalues --   -1.13253  -1.13229  -1.12683  -1.12669  -1.12659
 Alpha  occ. eigenvalues --   -0.17514  -0.13202  -0.11785  -0.10129
 Alpha virt. eigenvalues --   -0.06346  -0.05953  -0.04904  -0.03217  -0.02522
 Alpha virt. eigenvalues --   -0.02284  -0.02034  -0.01582  -0.01167  -0.00750
 Alpha virt. eigenvalues --   -0.00087   0.00284   0.00624   0.00644   0.00731

  Beta  occ. eigenvalues --  -38.44720 -38.44651 -38.44508 -38.44098 -38.43764
  Beta  occ. eigenvalues --  -38.43704 -38.43233  -2.20489  -2.20424  -2.20309
  Beta  occ. eigenvalues --   -2.19858  -2.19559  -2.19448  -2.19012  -1.14162
  Beta  occ. eigenvalues --   -1.14151  -1.14122  -1.14094  -1.14071  -1.14067
  Beta  occ. eigenvalues --   -1.13986  -1.13966  -1.13936  -1.13521  -1.13516
  Beta  occ. eigenvalues --   -1.13503  -1.13293  -1.13224  -1.13207  -1.13172
  Beta  occ. eigenvalues --   -1.13132  -1.13106  -1.12678  -1.12670  -1.12660
  Beta  occ. eigenvalues --   -0.16824  -0.13057  -0.11617
  Beta virt. eigenvalues --   -0.06430  -0.06165  -0.05812  -0.04883  -0.02530
  Beta virt. eigenvalues --   -0.01940  -0.01837  -0.01550  -0.01274  -0.01196
  Beta virt. eigenvalues --   -0.00762   0.00100   0.00330   0.00647   0.00715

 Mulliken charges and spin densities:
               1          2
     1  Na   0.005822  -0.076210
     2  Na   0.105370  -0.083852
     3  Na   0.040624  -0.004112
     4  Na  -0.213663   0.695079
     5  Na   0.137837   0.052599
     6  Na  -0.223429  -0.069428
     7  Na   0.147440   0.485925
 Sum of Mulliken charges =  -0.00000   1.00000

 Dipole moment (field-independent basis, Debye):
    X=              0.3218    Y=             -0.4324    Z=             -0.0429  Tot=              0.5407
 Quadrupole moment (field-independent basis, Debye-Ang):
   XX=            -52.8209   YY=            -61.7246   ZZ=            -78.2181
   XY=             -1.1925   XZ=             -1.0096   YZ=              0.8551

 Normal termination of Gaussian 16 at Thu Dec  7 16:04:26 2023.
