 Gaussian 16, Revision B.01,
 Gaussian 16:  ES64L-G16RevB.01 20-Dec-2017

 -------------------------
 #P B3LYP/6-311+g(d) force
 -------------------------

 -----
 DPGEN
 -----
 Symbolic Z-matrix:
 Charge =  0 Multiplicity = 2

                         Standard orientation:
 ---------------------------------------------------------------------
 Center     Atomic      Atomic             Coordinates (Angstroms)
 Number     Number       Type             X           Y           Z
 ---------------------------------------------------------------------
      1         11           0        0.414069   -0.069608   -1.497757
      2         11           0        2.322826    2.269600   -0.027005
      3         11           0       -1.526632    2.687507    0.055958
      4         11           0        3.020743   -1.556772   -0.314096
      5         11           0       -3.302350   -0.814171   -0.959027
      6         11           0       -0.349818   -2.545527    0.599175
      7         11           0       -0.578839    0.028971    2.142752
 ---------------------------------------------------------------------

 SCF Done:  E(UB3LYP) =  -1136.13096219     A.U. after   19 cycles

 The electronic state is 2-A.
 Alpha  occ. eigenvalues --  -38.44303 -38.44071 -38.43986 -38.43836 -38.43804
 Alpha  occ. eigenvalues --  -38.43455 -38.43187  -2.20084  -2.19856  -2.19798
 Alpha  occ. eigenvalues --   -2.19733  -2.19596  -2.19401  -2.19089  -1.13750
 Alpha  occ. eigenvalues --   -1.13730  -1.13708  -1.13549  -1.13528  -1.13496
 Alpha  occ. eigenvalues --   -1.13477  -1.13453  -1.13445  -1.13428  -1.13362
 Alpha  occ. eigenvalues --   -1.13342  -1.13276  -1.13260  -1.13221  -1.13104
 Alpha  occ. eigenvalues --   -1.13047  -1.13019  -1.12795  -1.12743  -1.12680
 Alpha  occ. eigenvalues --   -0.18129  -0.12800  -0.12280  -0.10904
 Alpha virt. eigenvalues --   -0.05716  -0.05541  -0.04471  -0.03208  -0.02962
 Alpha virt. eigenvalues --   -0.02576  -0.01766  -0.01295  -0.00493  -0.00338
 Alpha virt. eigenvalues --   -0.00027   0.00286   0.00698   0.00776   0.00870

  Beta  occ. eigenvalues --  -38.44260 -38.44074 -38.43985 -38.43801 -38.43739
  Beta  occ. eigenvalues --  -38.43418 -38.43167  -2.20004  -2.19864  -2.19799
  Beta  occ. eigenvalues --   -2.19594  -2.19555  -2.19334  -2.19058  -1.13685
  Beta  occ. eigenvalues --   -1.13675  -1.13658  -1.13548  -1.13532  -1.13490
  Beta  occ. eigenvalues --   -1.13481  -1.13451  -1.13429  -1.13324  -1.13283
  Beta  occ. eigenvalues --   -1.13260  -1.13226  -1.13217  -1.13206  -1.13055
  Beta  occ. eigenvalues --   -1.13001  -1.12967  -1.12763  -1.12694  -1.12665
  Beta  occ. eigenvalues --   -0.17479  -0.12483  -0.12079
  Beta virt. eigenvalues --   -0.07065  -0.05650  -0.05368  -0.04383  -0.02628
  Beta virt. eigenvalues --   -0.02244  -0.01766  -0.01466  -0.01243  -0.00487
  Beta virt. eigenvalues --   -0.00267   0.00090   0.00351   0.00760   0.00835

 Mulliken charges and spin densities:
               1          2
     1  Na  -0.095777   0.408174
     2  Na  -0.076931  -0.074234
     3  Na  -0.014402  -0.025489
     4  Na   0.077985  -0.072257
     5  Na  -0.099092   0.209953
     6  Na   0.337892   0.135243
     7  Na  -0.129675   0.418610
 Sum of Mulliken charges =  -0.00000   1.00000

 Dipole moment (field-independent basis, Debye):
    X=              0.2088    Y=              0.2342    Z=              0.0776  Tot=              0.3232
 Quadrupole moment (field-independent basis, Debye-Ang):
   XX=            -55.7398   YY=            -64.2553   ZZ=            -73.4316
   XY=             -0.6321   XZ=              2.2784   YZ=              0.5649

 Normal termination of Gaussian 16 at Thu Dec  7 20:33:21 2023.
