 Gaussian 16, Revision B.01,
 Gaussian 16:  ES64L-G16RevB.01 20-Dec-2017

 -------------------------
 #P B3LYP/6-311+g(d) force
 -------------------------

 -----
 DPGEN
 -----
 Symbolic Z-matrix:
 Charge =  0 Multiplicity = 2

                         Standard orientation:
 ---------------------------------------------------------------------
 Center     Atomic      Atomic             Coordinates (Angstroms)
 Number     Number       Type             X           Y           Z
 ---------------------------------------------------------------------
      1         11           0       -3.035984   -1.032866    0.272903
      2         11           0       -2.155268    2.164537   -0.402039
      3         11           0        0.185140    0.129252   -1.582424
      4         11           0        1.457014    2.612387    0.294264
      5         11           0        3.498257   -0.753144   -0.203274
      6         11           0       -0.160573   -2.670839   -0.523505
      7         11           0        0.211415   -0.449327    2.144076
 ---------------------------------------------------------------------

 SCF Done:  E(UB3LYP) =  -1136.13238580     A.U. after   21 cycles

 The electronic state is 2-A.
 Alpha  occ. eigenvalues --  -38.44885 -38.44056 -38.43847 -38.43696 -38.43417
 Alpha  occ. eigenvalues --  -38.43319 -38.43249  -2.20636  -2.19885  -2.19699
 Alpha  occ. eigenvalues --   -2.19507  -2.19251  -2.19233  -2.19205  -1.14316
 Alpha  occ. eigenvalues --   -1.14288  -1.14274  -1.13556  -1.13545  -1.13537
 Alpha  occ. eigenvalues --   -1.13364  -1.13335  -1.13308  -1.13199  -1.13181
 Alpha  occ. eigenvalues --   -1.13127  -1.13057  -1.12962  -1.12912  -1.12894
 Alpha  occ. eigenvalues --   -1.12878  -1.12850  -1.12829  -1.12808  -1.12789
 Alpha  occ. eigenvalues --   -0.18327  -0.12896  -0.12230  -0.10759
 Alpha virt. eigenvalues --   -0.06251  -0.05159  -0.04342  -0.03205  -0.02856
 Alpha virt. eigenvalues --   -0.02636  -0.02016  -0.01090  -0.00465  -0.00244
 Alpha virt. eigenvalues --   -0.00049   0.00308   0.00729   0.00792   0.00834

  Beta  occ. eigenvalues --  -38.44886 -38.44053 -38.43750 -38.43691 -38.43412
  Beta  occ. eigenvalues --  -38.43303 -38.43188  -2.20640  -2.19882  -2.19521
  Beta  occ. eigenvalues --   -2.19499  -2.19243  -2.19184  -2.19119  -1.14308
  Beta  occ. eigenvalues --   -1.14289  -1.14279  -1.13555  -1.13539  -1.13523
  Beta  occ. eigenvalues --   -1.13247  -1.13212  -1.13193  -1.13179  -1.13158
  Beta  occ. eigenvalues --   -1.13124  -1.13008  -1.12940  -1.12897  -1.12879
  Beta  occ. eigenvalues --   -1.12826  -1.12805  -1.12797  -1.12750  -1.12730
  Beta  occ. eigenvalues --   -0.17605  -0.12719  -0.11989
  Beta virt. eigenvalues --   -0.06828  -0.06210  -0.05108  -0.04294  -0.02482
  Beta virt. eigenvalues --   -0.02139  -0.01939  -0.01543  -0.01026  -0.00476
  Beta virt. eigenvalues --   -0.00268   0.00097   0.00335   0.00778   0.00850

 Mulliken charges and spin densities:
               1          2
     1  Na   0.105716   0.070895
     2  Na   0.098041  -0.014933
     3  Na   0.009328   0.321789
     4  Na  -0.035820   0.010410
     5  Na   0.031396  -0.091174
     6  Na   0.270168  -0.011933
     7  Na  -0.478828   0.714947
 Sum of Mulliken charges =  -0.00000   1.00000

 Dipole moment (field-independent basis, Debye):
    X=              0.5225    Y=             -0.1162    Z=              0.2542  Tot=              0.5926
 Quadrupole moment (field-independent basis, Debye-Ang):
   XX=            -52.4415   YY=            -65.6398   ZZ=            -74.5194
   XY=             -0.0115   XZ=             -0.3343   YZ=              0.9435

 Normal termination of Gaussian 16 at Thu Dec  7 23:11:55 2023.
