 Gaussian 16, Revision B.01,
 Gaussian 16:  ES64L-G16RevB.01 20-Dec-2017

 -------------------------
 #P B3LYP/6-311+g(d) force
 -------------------------

 -----
 DPGEN
 -----
 Symbolic Z-matrix:
 Charge =  0 Multiplicity = 2

                         Standard orientation:
 ---------------------------------------------------------------------
 Center     Atomic      Atomic             Coordinates (Angstroms)
 Number     Number       Type             X           Y           Z
 ---------------------------------------------------------------------
      1         11           0       -0.263944    0.011780    2.029550
      2         11           0        2.733012   -2.303678   -0.067705
      3         11           0        3.528383    0.742423   -0.016057
      4         11           0       -2.627248    1.337263   -0.642631
      5         11           0       -0.202919   -0.907406   -1.593835
      6         11           0        0.340967    2.841258   -0.055755
      7         11           0       -3.508252   -1.721640    0.346433
 ---------------------------------------------------------------------

 SCF Done:  E(UB3LYP) =  -1136.12309066     A.U. after   23 cycles

 The electronic state is 2-A.
 Alpha  occ. eigenvalues --  -38.45438 -38.44530 -38.44360 -38.44106 -38.44027
 Alpha  occ. eigenvalues --  -38.43905 -38.42425  -2.21223  -2.20314  -2.20189
 Alpha  occ. eigenvalues --   -2.19934  -2.19904  -2.19722  -2.18254  -1.14902
 Alpha  occ. eigenvalues --   -1.14889  -1.14858  -1.14001  -1.13967  -1.13950
 Alpha  occ. eigenvalues --   -1.13887  -1.13845  -1.13800  -1.13612  -1.13584
 Alpha  occ. eigenvalues --   -1.13576  -1.13555  -1.13537  -1.13528  -1.13395
 Alpha  occ. eigenvalues --   -1.13375  -1.13372  -1.11925  -1.11919  -1.11911
 Alpha  occ. eigenvalues --   -0.17812  -0.13830  -0.11578  -0.10381
 Alpha virt. eigenvalues --   -0.07051  -0.05736  -0.04259  -0.03459  -0.02638
 Alpha virt. eigenvalues --   -0.02460  -0.02295  -0.01517  -0.00882  -0.00271
 Alpha virt. eigenvalues --   -0.00255   0.00161   0.00459   0.00542   0.00689

  Beta  occ. eigenvalues --  -38.45441 -38.44525 -38.44307 -38.44016 -38.44005
  Beta  occ. eigenvalues --  -38.43906 -38.42423  -2.21229  -2.20305  -2.20092
  Beta  occ. eigenvalues --   -2.19867  -2.19767  -2.19726  -2.18254  -1.14906
  Beta  occ. eigenvalues --   -1.14888  -1.14863  -1.13998  -1.13947  -1.13943
  Beta  occ. eigenvalues --   -1.13818  -1.13769  -1.13734  -1.13552  -1.13520
  Beta  occ. eigenvalues --   -1.13506  -1.13496  -1.13454  -1.13415  -1.13400
  Beta  occ. eigenvalues --   -1.13375  -1.13364  -1.11927  -1.11919  -1.11890
  Beta  occ. eigenvalues --   -0.17127  -0.13701  -0.11389
  Beta virt. eigenvalues --   -0.06936  -0.06502  -0.05664  -0.04136  -0.02894
  Beta virt. eigenvalues --   -0.02404  -0.01857  -0.01523  -0.01290  -0.00864
  Beta virt. eigenvalues --   -0.00265  -0.00032   0.00197   0.00611   0.00665

 Mulliken charges and spin densities:
               1          2
     1  Na  -0.421632   0.667991
     2  Na   0.383861  -0.062281
     3  Na  -0.096143  -0.000376
     4  Na   0.382539   0.194221
     5  Na  -0.354930   0.274835
     6  Na  -0.072162  -0.083619
     7  Na   0.178466   0.009230
 Sum of Mulliken charges =  -0.00000   1.00000

 Dipole moment (field-independent basis, Debye):
    X=              0.3070    Y=             -0.3852    Z=             -0.0244  Tot=              0.4932
 Quadrupole moment (field-independent basis, Debye-Ang):
   XX=            -49.9346   YY=            -68.1786   ZZ=            -76.4002
   XY=              2.4780   XZ=              0.4190   YZ=             -1.8533

 Normal termination of Gaussian 16 at Fri Dec  8 02:59:02 2023.
