 Gaussian 16, Revision B.01,
 Gaussian 16:  ES64L-G16RevB.01 20-Dec-2017

 -------------------------
 #P B3LYP/6-311+g(d) force
 -------------------------

 -----
 DPGEN
 -----
 Symbolic Z-matrix:
 Charge =  0 Multiplicity = 2

                         Standard orientation:
 ---------------------------------------------------------------------
 Center     Atomic      Atomic             Coordinates (Angstroms)
 Number     Number       Type             X           Y           Z
 ---------------------------------------------------------------------
      1         11           0        1.175544    2.331818    0.254831
      2         11           0       -2.010827    2.559962   -0.603403
      3         11           0       -3.221437   -0.858775   -0.954100
      4         11           0       -1.071315   -0.189554    1.697519
      5         11           0        2.348500   -0.461454    1.149738
      6         11           0       -0.917676   -2.822302   -0.052568
      7         11           0        3.697211   -0.559695   -1.492017
 ---------------------------------------------------------------------

 SCF Done:  E(UB3LYP) =  -1136.12470569     A.U. after   20 cycles

 The electronic state is 2-A.
 Alpha  occ. eigenvalues --  -38.44258 -38.44160 -38.43972 -38.43934 -38.43908
 Alpha  occ. eigenvalues --  -38.43596 -38.43279  -2.20100  -2.20017  -2.19841
 Alpha  occ. eigenvalues --   -2.19820  -2.19783  -2.19521  -2.19100  -1.13810
 Alpha  occ. eigenvalues --   -1.13725  -1.13714  -1.13706  -1.13682  -1.13649
 Alpha  occ. eigenvalues --   -1.13570  -1.13537  -1.13502  -1.13491  -1.13479
 Alpha  occ. eigenvalues --   -1.13444  -1.13438  -1.13401  -1.13390  -1.13189
 Alpha  occ. eigenvalues --   -1.13179  -1.13147  -1.12774  -1.12753  -1.12744
 Alpha  occ. eigenvalues --   -0.17839  -0.14076  -0.12215  -0.10870
 Alpha virt. eigenvalues --   -0.05853  -0.05404  -0.04709  -0.03980  -0.02722
 Alpha virt. eigenvalues --   -0.02284  -0.01524  -0.00900  -0.00635  -0.00476
 Alpha virt. eigenvalues --   -0.00330   0.00350   0.00426   0.00516   0.00626

  Beta  occ. eigenvalues --  -38.44184 -38.44123 -38.43969 -38.43932 -38.43850
  Beta  occ. eigenvalues --  -38.43581 -38.43270  -2.19962  -2.19947  -2.19817
  Beta  occ. eigenvalues --   -2.19781  -2.19739  -2.19502  -2.19084  -1.13723
  Beta  occ. eigenvalues --   -1.13665  -1.13635  -1.13629  -1.13619  -1.13598
  Beta  occ. eigenvalues --   -1.13525  -1.13520  -1.13498  -1.13446  -1.13435
  Beta  occ. eigenvalues --   -1.13424  -1.13396  -1.13385  -1.13346  -1.13177
  Beta  occ. eigenvalues --   -1.13155  -1.13090  -1.12765  -1.12745  -1.12722
  Beta  occ. eigenvalues --   -0.17202  -0.13553  -0.12050
  Beta virt. eigenvalues --   -0.07298  -0.05624  -0.05137  -0.04136  -0.03881
  Beta virt. eigenvalues --   -0.02271  -0.01585  -0.01353  -0.00773  -0.00633
  Beta virt. eigenvalues --   -0.00314  -0.00011   0.00501   0.00562   0.00614

 Mulliken charges and spin densities:
               1          2
     1  Na  -0.595830   0.104443
     2  Na  -0.269964   0.136817
     3  Na  -0.027692   0.291255
     4  Na   1.352604   0.021336
     5  Na   0.380282   0.000085
     6  Na  -0.723233   0.083786
     7  Na  -0.116167   0.362277
 Sum of Mulliken charges =  -0.00000   1.00000

 Dipole moment (field-independent basis, Debye):
    X=             -0.2512    Y=             -0.3543    Z=             -0.4028  Tot=              0.5924
 Quadrupole moment (field-independent basis, Debye-Ang):
   XX=            -64.8750   YY=            -67.5107   ZZ=            -67.1757
   XY=              0.7506   XZ=             -0.0795   YZ=              0.9312

 Normal termination of Gaussian 16 at Wed Nov 29 03:52:56 2023.
