 Gaussian 16, Revision B.01,
 Gaussian 16:  ES64L-G16RevB.01 20-Dec-2017

 -------------------------
 #P B3LYP/6-311+g(d) force
 -------------------------

 -----
 DPGEN
 -----
 Symbolic Z-matrix:
 Charge =  0 Multiplicity = 2

                         Standard orientation:
 ---------------------------------------------------------------------
 Center     Atomic      Atomic             Coordinates (Angstroms)
 Number     Number       Type             X           Y           Z
 ---------------------------------------------------------------------
      1         11           0        2.837541    2.196465   -0.411162
      2         11           0       -1.934344   -1.450972    1.348973
      3         11           0       -0.006229   -0.592278   -1.758181
      4         11           0       -3.992750   -0.285486   -0.723586
      5         11           0        2.934361   -2.489710   -0.311337
      6         11           0       -1.179404    2.536558    0.276972
      7         11           0        1.340826    0.085422    1.578322
 ---------------------------------------------------------------------

 SCF Done:  E(UB3LYP) =  -1136.12011860     A.U. after   24 cycles

 The electronic state is 2-A.
 Alpha  occ. eigenvalues --  -38.44840 -38.44738 -38.44539 -38.44289 -38.43917
 Alpha  occ. eigenvalues --  -38.43766 -38.43192  -2.20638  -2.20510  -2.20344
 Alpha  occ. eigenvalues --   -2.20046  -2.19768  -2.19527  -2.19096  -1.14330
 Alpha  occ. eigenvalues --   -1.14289  -1.14267  -1.14206  -1.14163  -1.14128
 Alpha  occ. eigenvalues --   -1.14043  -1.13997  -1.13944  -1.13736  -1.13731
 Alpha  occ. eigenvalues --   -1.13654  -1.13434  -1.13417  -1.13402  -1.13203
 Alpha  occ. eigenvalues --   -1.13191  -1.13166  -1.12795  -1.12757  -1.12694
 Alpha  occ. eigenvalues --   -0.17649  -0.13484  -0.11313  -0.10472
 Alpha virt. eigenvalues --   -0.06814  -0.05945  -0.04482  -0.03213  -0.02540
 Alpha virt. eigenvalues --   -0.02442  -0.02240  -0.01539  -0.01124  -0.00328
 Alpha virt. eigenvalues --   -0.00033   0.00136   0.00399   0.00443   0.00580

  Beta  occ. eigenvalues --  -38.44831 -38.44734 -38.44485 -38.44283 -38.43872
  Beta  occ. eigenvalues --  -38.43771 -38.43140  -2.20622  -2.20503  -2.20244
  Beta  occ. eigenvalues --   -2.20038  -2.19686  -2.19537  -2.19003  -1.14317
  Beta  occ. eigenvalues --   -1.14276  -1.14253  -1.14198  -1.14154  -1.14124
  Beta  occ. eigenvalues --   -1.13969  -1.13926  -1.13870  -1.13729  -1.13710
  Beta  occ. eigenvalues --   -1.13651  -1.13379  -1.13350  -1.13337  -1.13207
  Beta  occ. eigenvalues --   -1.13194  -1.13172  -1.12733  -1.12671  -1.12633
  Beta  occ. eigenvalues --   -0.16940  -0.13381  -0.11160
  Beta virt. eigenvalues --   -0.06688  -0.06616  -0.05836  -0.04048  -0.02971
  Beta virt. eigenvalues --   -0.02325  -0.01895  -0.01619  -0.01277  -0.00873
  Beta virt. eigenvalues --   -0.00156   0.00018   0.00173   0.00483   0.00568

 Mulliken charges and spin densities:
               1          2
     1  Na   0.188621  -0.000254
     2  Na  -0.057417   0.140297
     3  Na  -0.410303   0.565104
     4  Na   0.299169   0.112318
     5  Na   0.035073  -0.021551
     6  Na  -0.190969   0.046784
     7  Na   0.135826   0.157301
 Sum of Mulliken charges =  -0.00000   1.00000

 Dipole moment (field-independent basis, Debye):
    X=             -0.3892    Y=              0.4470    Z=             -0.4517  Tot=              0.7452
 Quadrupole moment (field-independent basis, Debye-Ang):
   XX=            -48.5814   YY=            -70.3715   ZZ=            -73.7527
   XY=              0.5771   XZ=              0.3403   YZ=             -1.4572

 Normal termination of Gaussian 16 at Tue Dec  5 17:31:46 2023.
