 Gaussian 16, Revision B.01,
 Gaussian 16:  ES64L-G16RevB.01 20-Dec-2017

 -------------------------
 #P B3LYP/6-311+g(d) force
 -------------------------

 -----
 DPGEN
 -----
 Symbolic Z-matrix:
 Charge =  0 Multiplicity = 2

                         Standard orientation:
 ---------------------------------------------------------------------
 Center     Atomic      Atomic             Coordinates (Angstroms)
 Number     Number       Type             X           Y           Z
 ---------------------------------------------------------------------
      1         11           0        2.923501   -1.246236   -0.092155
      2         11           0        2.259708    2.169156   -0.148291
      3         11           0       -0.034304   -2.594645   -0.112295
      4         11           0       -3.091116   -1.122921   -0.266754
      5         11           0       -0.087952    0.514852   -1.662277
      6         11           0        0.070667   -0.057390    2.030084
      7         11           0       -2.040504    2.337185    0.251688
 ---------------------------------------------------------------------

 SCF Done:  E(UB3LYP) =  -1136.13608906     A.U. after   19 cycles

 The electronic state is 2-A.
 Alpha  occ. eigenvalues --  -38.44252 -38.44047 -38.43920 -38.43878 -38.43552
 Alpha  occ. eigenvalues --  -38.43286 -38.42790  -2.20063  -2.19888  -2.19739
 Alpha  occ. eigenvalues --   -2.19704  -2.19445  -2.19234  -2.18695  -1.13733
 Alpha  occ. eigenvalues --   -1.13723  -1.13705  -1.13566  -1.13549  -1.13537
 Alpha  occ. eigenvalues --   -1.13427  -1.13406  -1.13399  -1.13366  -1.13360
 Alpha  occ. eigenvalues --   -1.13333  -1.13122  -1.13074  -1.13056  -1.12917
 Alpha  occ. eigenvalues --   -1.12876  -1.12852  -1.12382  -1.12359  -1.12328
 Alpha  occ. eigenvalues --   -0.18582  -0.13180  -0.12250  -0.10669
 Alpha virt. eigenvalues --   -0.05819  -0.05663  -0.04233  -0.03222  -0.02814
 Alpha virt. eigenvalues --   -0.02507  -0.01745  -0.01314  -0.00511  -0.00144
 Alpha virt. eigenvalues --   -0.00029   0.00333   0.00722   0.00806   0.00923

  Beta  occ. eigenvalues --  -38.44247 -38.44045 -38.43914 -38.43873 -38.43455
  Beta  occ. eigenvalues --  -38.43228 -38.42781  -2.20057  -2.19887  -2.19730
  Beta  occ. eigenvalues --   -2.19699  -2.19267  -2.19127  -2.18684  -1.13723
  Beta  occ. eigenvalues --   -1.13710  -1.13702  -1.13567  -1.13543  -1.13523
  Beta  occ. eigenvalues --   -1.13419  -1.13387  -1.13380  -1.13363  -1.13346
  Beta  occ. eigenvalues --   -1.13329  -1.13003  -1.12949  -1.12928  -1.12844
  Beta  occ. eigenvalues --   -1.12798  -1.12773  -1.12377  -1.12334  -1.12309
  Beta  occ. eigenvalues --   -0.17854  -0.12965  -0.12007
  Beta virt. eigenvalues --   -0.06771  -0.05788  -0.05614  -0.04207  -0.02471
  Beta virt. eigenvalues --   -0.02048  -0.01645  -0.01455  -0.01234  -0.00567
  Beta virt. eigenvalues --   -0.00176   0.00119   0.00363   0.00776   0.00814

 Mulliken charges and spin densities:
               1          2
     1  Na   0.113866  -0.021262
     2  Na   0.263425  -0.070856
     3  Na   0.137367   0.001913
     4  Na   0.111921  -0.023018
     5  Na  -0.285909   0.468593
     6  Na  -0.455301   0.724708
     7  Na   0.114632  -0.080079
 Sum of Mulliken charges =  -0.00000   1.00000

 Dipole moment (field-independent basis, Debye):
    X=             -0.1037    Y=              0.2930    Z=              0.0953  Tot=              0.3251
 Quadrupole moment (field-independent basis, Debye-Ang):
   XX=            -53.1302   YY=            -65.1395   ZZ=            -74.7417
   XY=             -0.0539   XZ=             -0.0821   YZ=              1.3718

 Normal termination of Gaussian 16 at Thu Dec  7 12:32:07 2023.
