 Gaussian 16, Revision B.01,
 Gaussian 16:  ES64L-G16RevB.01 20-Dec-2017

 -------------------------
 #P B3LYP/6-311+g(d) force
 -------------------------

 -----
 DPGEN
 -----
 Symbolic Z-matrix:
 Charge =  0 Multiplicity = 2

                         Standard orientation:
 ---------------------------------------------------------------------
 Center     Atomic      Atomic             Coordinates (Angstroms)
 Number     Number       Type             X           Y           Z
 ---------------------------------------------------------------------
      1         11           0        1.374030    1.567361   -0.859954
      2         11           0       -1.897193    1.766072   -0.929783
      3         11           0       -0.388672    0.278659    2.094951
      4         11           0       -1.375905   -1.444816   -1.118235
      5         11           0       -3.878103   -0.523176    0.769559
      6         11           0        1.866154   -1.790625   -0.612625
      7         11           0        4.299689    0.146525    0.656087
 ---------------------------------------------------------------------

 SCF Done:  E(UB3LYP) =  -1136.11502303     A.U. after   34 cycles

 The electronic state is 2-A.
 Alpha  occ. eigenvalues --  -38.46489 -38.45364 -38.44489 -38.43466 -38.43303
 Alpha  occ. eigenvalues --  -38.43131 -38.42527  -2.22269  -2.21162  -2.20328
 Alpha  occ. eigenvalues --   -2.19336  -2.19228  -2.19029  -2.18420  -1.15955
 Alpha  occ. eigenvalues --   -1.15902  -1.15887  -1.14821  -1.14811  -1.14786
 Alpha  occ. eigenvalues --   -1.13998  -1.13976  -1.13961  -1.13047  -1.13004
 Alpha  occ. eigenvalues --   -1.12974  -1.12902  -1.12892  -1.12850  -1.12714
 Alpha  occ. eigenvalues --   -1.12677  -1.12665  -1.12117  -1.12094  -1.12040
 Alpha  occ. eigenvalues --   -0.18461  -0.14441  -0.11242  -0.10628
 Alpha virt. eigenvalues --   -0.07932  -0.04843  -0.04710  -0.03351  -0.03154
 Alpha virt. eigenvalues --   -0.02215  -0.02168  -0.01565  -0.01069  -0.00255
 Alpha virt. eigenvalues --   -0.00183   0.00161   0.00266   0.00659   0.00740

  Beta  occ. eigenvalues --  -38.46441 -38.45328 -38.44459 -38.43440 -38.43254
  Beta  occ. eigenvalues --  -38.43131 -38.42517  -2.22181  -2.21093  -2.20272
  Beta  occ. eigenvalues --   -2.19294  -2.19141  -2.19033  -2.18407  -1.15891
  Beta  occ. eigenvalues --   -1.15844  -1.15818  -1.14774  -1.14763  -1.14741
  Beta  occ. eigenvalues --   -1.13962  -1.13941  -1.13915  -1.13006  -1.12977
  Beta  occ. eigenvalues --   -1.12927  -1.12851  -1.12840  -1.12763  -1.12694
  Beta  occ. eigenvalues --   -1.12677  -1.12663  -1.12106  -1.12067  -1.12026
  Beta  occ. eigenvalues --   -0.17783  -0.14125  -0.10420
  Beta virt. eigenvalues --   -0.07616  -0.07460  -0.04762  -0.04219  -0.02972
  Beta virt. eigenvalues --   -0.02849  -0.01799  -0.01634  -0.01072  -0.00943
  Beta virt. eigenvalues --   -0.00159  -0.00106   0.00273   0.00354   0.00726

 Mulliken charges and spin densities:
               1          2
     1  Na  -0.516087   0.037852
     2  Na   0.051242   0.046706
     3  Na  -0.542636   0.253286
     4  Na  -0.634449   0.106137
     5  Na   0.994702   0.294997
     6  Na  -0.170948  -0.005386
     7  Na   0.818177   0.266408
 Sum of Mulliken charges =  -0.00000   1.00000

 Dipole moment (field-independent basis, Debye):
    X=              0.4276    Y=              0.5295    Z=              1.1405  Tot=              1.3281
 Quadrupole moment (field-independent basis, Debye-Ang):
   XX=            -47.8986   YY=            -81.6733   ZZ=            -66.7016
   XY=             -0.3220   XZ=              2.5655   YZ=              0.2003

 Normal termination of Gaussian 16 at Thu Dec  7 10:50:25 2023.
