 Gaussian 16, Revision B.01,
 Gaussian 16:  ES64L-G16RevB.01 20-Dec-2017

 -------------------------
 #P B3LYP/6-311+g(d) force
 -------------------------

 -----
 DPGEN
 -----
 Symbolic Z-matrix:
 Charge =  0 Multiplicity = 2

                         Standard orientation:
 ---------------------------------------------------------------------
 Center     Atomic      Atomic             Coordinates (Angstroms)
 Number     Number       Type             X           Y           Z
 ---------------------------------------------------------------------
      1         11           0        3.318610    2.137524    0.097668
      2         11           0        0.383850   -2.261920   -0.917121
      3         11           0        3.172994   -0.922555   -0.361423
      4         11           0       -3.798866    1.963482   -0.195080
      5         11           0       -2.909710   -1.357200   -0.269810
      6         11           0        0.011349    1.531720   -0.306619
      7         11           0       -0.178226   -1.091051    1.952385
 ---------------------------------------------------------------------

 SCF Done:  E(UB3LYP) =  -1136.11990866     A.U. after   23 cycles

 The electronic state is 2-A.
 Alpha  occ. eigenvalues --  -38.44741 -38.44349 -38.44304 -38.44108 -38.43919
 Alpha  occ. eigenvalues --  -38.43816 -38.43265  -2.20569  -2.20179  -2.20135
 Alpha  occ. eigenvalues --   -2.19997  -2.19720  -2.19700  -2.19182  -1.14269
 Alpha  occ. eigenvalues --   -1.14229  -1.14187  -1.13901  -1.13849  -1.13843
 Alpha  occ. eigenvalues --   -1.13824  -1.13821  -1.13714  -1.13680  -1.13640
 Alpha  occ. eigenvalues --   -1.13603  -1.13384  -1.13367  -1.13358  -1.13357
 Alpha  occ. eigenvalues --   -1.13342  -1.13333  -1.12854  -1.12841  -1.12808
 Alpha  occ. eigenvalues --   -0.18150  -0.14062  -0.12119  -0.10184
 Alpha virt. eigenvalues --   -0.06679  -0.06577  -0.04072  -0.03280  -0.02652
 Alpha virt. eigenvalues --   -0.02411  -0.02119  -0.01685  -0.01242  -0.00249
 Alpha virt. eigenvalues --   -0.00123   0.00098   0.00442   0.00473   0.00681

  Beta  occ. eigenvalues --  -38.44729 -38.44346 -38.44285 -38.44067 -38.43903
  Beta  occ. eigenvalues --  -38.43736 -38.43242  -2.20548  -2.20176  -2.20105
  Beta  occ. eigenvalues --   -2.19922  -2.19671  -2.19571  -2.19143  -1.14252
  Beta  occ. eigenvalues --   -1.14211  -1.14166  -1.13891  -1.13841  -1.13817
  Beta  occ. eigenvalues --   -1.13808  -1.13792  -1.13701  -1.13627  -1.13584
  Beta  occ. eigenvalues --   -1.13551  -1.13347  -1.13330  -1.13317  -1.13288
  Beta  occ. eigenvalues --   -1.13254  -1.13235  -1.12829  -1.12817  -1.12756
  Beta  occ. eigenvalues --   -0.17578  -0.13710  -0.11867
  Beta virt. eigenvalues --   -0.06697  -0.06513  -0.06137  -0.03896  -0.02727
  Beta virt. eigenvalues --   -0.02559  -0.01994  -0.01869  -0.01116  -0.01019
  Beta virt. eigenvalues --   -0.00145   0.00112   0.00239   0.00516   0.00615

 Mulliken charges and spin densities:
               1          2
     1  Na   1.148819  -0.021383
     2  Na   0.390512   0.160447
     3  Na  -0.190907   0.248318
     4  Na   0.613469   0.138031
     5  Na   0.067858   0.250779
     6  Na  -2.029442  -0.006043
     7  Na  -0.000310   0.229852
 Sum of Mulliken charges =  -0.00000   1.00000

 Dipole moment (field-independent basis, Debye):
    X=              0.1029    Y=              0.1376    Z=              0.8183  Tot=              0.8362
 Quadrupole moment (field-independent basis, Debye-Ang):
   XX=            -59.7677   YY=            -67.6023   ZZ=            -71.8754
   XY=              4.8000   XZ=              1.2239   YZ=             -0.7519

 Normal termination of Gaussian 16 at Wed Nov 29 16:57:08 2023.
