 Gaussian 16, Revision B.01,
 Gaussian 16:  ES64L-G16RevB.01 20-Dec-2017

 -------------------------
 #P B3LYP/6-311+g(d) force
 -------------------------

 -----
 DPGEN
 -----
 Symbolic Z-matrix:
 Charge =  0 Multiplicity = 2

                         Standard orientation:
 ---------------------------------------------------------------------
 Center     Atomic      Atomic             Coordinates (Angstroms)
 Number     Number       Type             X           Y           Z
 ---------------------------------------------------------------------
      1         11           0       -1.185117    2.325695    0.196379
      2         11           0        4.795910   -0.905811   -0.381706
      3         11           0       -1.866035   -1.671046   -1.522495
      4         11           0       -3.833706    0.811972   -0.430697
      5         11           0        1.404547   -0.668397    0.248820
      6         11           0       -1.818907   -1.796420    1.737261
      7         11           0        2.503307    1.904007    0.152438
 ---------------------------------------------------------------------

 SCF Done:  E(UB3LYP) =  -1136.11490265     A.U. after   23 cycles

 The electronic state is 2-A.
 Alpha  occ. eigenvalues --  -38.45023 -38.44673 -38.44389 -38.44300 -38.43703
 Alpha  occ. eigenvalues --  -38.43529 -38.42661  -2.20847  -2.20493  -2.20267
 Alpha  occ. eigenvalues --   -2.20120  -2.19629  -2.19406  -2.18489  -1.14533
 Alpha  occ. eigenvalues --   -1.14513  -1.14489  -1.14150  -1.14134  -1.14120
 Alpha  occ. eigenvalues --   -1.14106  -1.13922  -1.13841  -1.13770  -1.13765
 Alpha  occ. eigenvalues --   -1.13719  -1.13316  -1.13293  -1.13220  -1.13075
 Alpha  occ. eigenvalues --   -1.13064  -1.13026  -1.12174  -1.12168  -1.12130
 Alpha  occ. eigenvalues --   -0.17580  -0.14677  -0.11456  -0.10719
 Alpha virt. eigenvalues --   -0.06895  -0.05545  -0.04325  -0.03231  -0.03154
 Alpha virt. eigenvalues --   -0.02201  -0.01871  -0.01437  -0.01205  -0.00509
 Alpha virt. eigenvalues --   -0.00350   0.00040   0.00292   0.00566   0.00660

  Beta  occ. eigenvalues --  -38.45029 -38.44637 -38.44373 -38.44215 -38.43683
  Beta  occ. eigenvalues --  -38.43481 -38.42665  -2.20861  -2.20428  -2.20243
  Beta  occ. eigenvalues --   -2.19960  -2.19598  -2.19317  -2.18500  -1.14543
  Beta  occ. eigenvalues --   -1.14526  -1.14472  -1.14104  -1.14094  -1.14085
  Beta  occ. eigenvalues --   -1.14075  -1.13909  -1.13787  -1.13661  -1.13655
  Beta  occ. eigenvalues --   -1.13619  -1.13300  -1.13259  -1.13172  -1.13025
  Beta  occ. eigenvalues --   -1.12998  -1.12967  -1.12184  -1.12179  -1.12106
  Beta  occ. eigenvalues --   -0.17021  -0.14076  -0.11151
  Beta virt. eigenvalues --   -0.07220  -0.06659  -0.05372  -0.03720  -0.03097
  Beta virt. eigenvalues --   -0.02838  -0.01835  -0.01501  -0.01280  -0.00802
  Beta virt. eigenvalues --   -0.00212  -0.00076   0.00058   0.00441   0.00630

 Mulliken charges and spin densities:
               1          2
     1  Na   0.245565  -0.249651
     2  Na   0.287777   0.421906
     3  Na   0.805238  -0.023009
     4  Na  -0.227966   0.526012
     5  Na  -2.357318   0.392696
     6  Na   0.868567  -0.046953
     7  Na   0.378137  -0.021002
 Sum of Mulliken charges =  -0.00000   1.00000

 Dipole moment (field-independent basis, Debye):
    X=              0.1938    Y=             -0.8660    Z=              0.1232  Tot=              0.8959
 Quadrupole moment (field-independent basis, Debye-Ang):
   XX=            -61.3412   YY=            -75.0028   ZZ=            -63.5792
   XY=              5.5522   XZ=             -3.2703   YZ=              1.9606

 Normal termination of Gaussian 16 at Tue Dec  5 16:27:11 2023.
