 Gaussian 16, Revision B.01,
 Gaussian 16:  ES64L-G16RevB.01 20-Dec-2017

 -------------------------
 #P B3LYP/6-311+g(d) force
 -------------------------

 -----
 DPGEN
 -----
 Symbolic Z-matrix:
 Charge =  0 Multiplicity = 2

                         Standard orientation:
 ---------------------------------------------------------------------
 Center     Atomic      Atomic             Coordinates (Angstroms)
 Number     Number       Type             X           Y           Z
 ---------------------------------------------------------------------
      1         11           0       -3.622517   -1.136320   -0.285493
      2         11           0        1.576703   -2.932277    0.450811
      3         11           0        1.768400    2.754932    0.286975
      4         11           0        3.244942   -0.091932   -0.519021
      5         11           0       -0.329908   -0.525044   -1.582000
      6         11           0       -0.681880   -0.364167    1.675441
      7         11           0       -1.955740    2.294809   -0.026713
 ---------------------------------------------------------------------

 SCF Done:  E(UB3LYP) =  -1136.12848371     A.U. after   22 cycles

 The electronic state is 2-A.
 Alpha  occ. eigenvalues --  -38.44912 -38.44299 -38.44083 -38.44073 -38.43610
 Alpha  occ. eigenvalues --  -38.43401 -38.43311  -2.20700  -2.20116  -2.19959
 Alpha  occ. eigenvalues --   -2.19901  -2.19422  -2.19217  -2.19191  -1.14367
 Alpha  occ. eigenvalues --   -1.14360  -1.14326  -1.13805  -1.13801  -1.13724
 Alpha  occ. eigenvalues --   -1.13680  -1.13606  -1.13577  -1.13572  -1.13554
 Alpha  occ. eigenvalues --   -1.13532  -1.13088  -1.13077  -1.13068  -1.12915
 Alpha  occ. eigenvalues --   -1.12872  -1.12858  -1.12840  -1.12831  -1.12825
 Alpha  occ. eigenvalues --   -0.17983  -0.13496  -0.12042  -0.10067
 Alpha virt. eigenvalues --   -0.06576  -0.05659  -0.04751  -0.03143  -0.02577
 Alpha virt. eigenvalues --   -0.02270  -0.02014  -0.01432  -0.00923  -0.00436
 Alpha virt. eigenvalues --   -0.00101   0.00219   0.00575   0.00662   0.00696

  Beta  occ. eigenvalues --  -38.44893 -38.44289 -38.44059 -38.44039 -38.43599
  Beta  occ. eigenvalues --  -38.43405 -38.43235  -2.20667  -2.20102  -2.19879
  Beta  occ. eigenvalues --   -2.19873  -2.19404  -2.19201  -2.19077  -1.14339
  Beta  occ. eigenvalues --   -1.14326  -1.14307  -1.13797  -1.13771  -1.13711
  Beta  occ. eigenvalues --   -1.13616  -1.13556  -1.13552  -1.13545  -1.13522
  Beta  occ. eigenvalues --   -1.13491  -1.13075  -1.13061  -1.13045  -1.12881
  Beta  occ. eigenvalues --   -1.12857  -1.12830  -1.12820  -1.12745  -1.12718
  Beta  occ. eigenvalues --   -0.17367  -0.13234  -0.11804
  Beta virt. eigenvalues --   -0.06603  -0.06217  -0.05592  -0.04555  -0.02585
  Beta virt. eigenvalues --   -0.02230  -0.01857  -0.01363  -0.01155  -0.00865
  Beta virt. eigenvalues --   -0.00415   0.00092   0.00302   0.00685   0.00696

 Mulliken charges and spin densities:
               1          2
     1  Na   0.094924   0.110259
     2  Na  -0.017081   0.027237
     3  Na  -0.318256  -0.057256
     4  Na   0.140408   0.086608
     5  Na   0.009418   0.343998
     6  Na   0.074702   0.439757
     7  Na   0.015886   0.049398
 Sum of Mulliken charges =  -0.00000   1.00000

 Dipole moment (field-independent basis, Debye):
    X=             -0.9214    Y=             -0.3187    Z=              0.0247  Tot=              0.9753
 Quadrupole moment (field-independent basis, Debye-Ang):
   XX=            -52.6457   YY=            -64.1520   ZZ=            -76.3483
   XY=             -0.8845   XZ=             -0.0244   YZ=             -0.5389

 Normal termination of Gaussian 16 at Fri Dec  8 02:38:59 2023.
