 Gaussian 16, Revision B.01,
 Gaussian 16:  ES64L-G16RevB.01 20-Dec-2017

 -------------------------
 #P B3LYP/6-311+g(d) force
 -------------------------

 -----
 DPGEN
 -----
 Symbolic Z-matrix:
 Charge =  0 Multiplicity = 2

                         Standard orientation:
 ---------------------------------------------------------------------
 Center     Atomic      Atomic             Coordinates (Angstroms)
 Number     Number       Type             X           Y           Z
 ---------------------------------------------------------------------
      1         11           0       -3.084278   -0.943197    0.371721
      2         11           0        2.876398   -1.073435    0.244804
      3         11           0       -1.592539    2.319691   -0.384413
      4         11           0       -0.106979    0.120429    1.906792
      5         11           0        1.796168    2.230001    0.095508
      6         11           0        0.065408    0.089561   -1.788671
      7         11           0        0.045822   -2.743050   -0.445740
 ---------------------------------------------------------------------

 SCF Done:  E(UB3LYP) =  -1136.13912486     A.U. after   19 cycles

 The electronic state is 2-A.
 Alpha  occ. eigenvalues --  -38.43868 -38.43663 -38.43579 -38.43429 -38.43373
 Alpha  occ. eigenvalues --  -38.43310 -38.43247  -2.19677  -2.19516  -2.19510
 Alpha  occ. eigenvalues --   -2.19372  -2.19321  -2.19202  -2.19126  -1.13356
 Alpha  occ. eigenvalues --   -1.13328  -1.13324  -1.13208  -1.13186  -1.13179
 Alpha  occ. eigenvalues --   -1.13168  -1.13145  -1.13130  -1.13122  -1.13057
 Alpha  occ. eigenvalues --   -1.13010  -1.12973  -1.12939  -1.12933  -1.12870
 Alpha  occ. eigenvalues --   -1.12864  -1.12818  -1.12803  -1.12778  -1.12735
 Alpha  occ. eigenvalues --   -0.18959  -0.12894  -0.12619  -0.11050
 Alpha virt. eigenvalues --   -0.05407  -0.05029  -0.04557  -0.03204  -0.03069
 Alpha virt. eigenvalues --   -0.02692  -0.01453  -0.01047  -0.00200  -0.00068
 Alpha virt. eigenvalues --    0.00028   0.00361   0.00844   0.00914   0.00934

  Beta  occ. eigenvalues --  -38.43862 -38.43660 -38.43499 -38.43417 -38.43304
  Beta  occ. eigenvalues --  -38.43292 -38.43236  -2.19668  -2.19511  -2.19363
  Beta  occ. eigenvalues --   -2.19304  -2.19224  -2.19195  -2.19108  -1.13335
  Beta  occ. eigenvalues --   -1.13324  -1.13316  -1.13187  -1.13177  -1.13149
  Beta  occ. eigenvalues --   -1.13108  -1.13066  -1.13045  -1.13016  -1.12967
  Beta  occ. eigenvalues --   -1.12956  -1.12932  -1.12912  -1.12866  -1.12851
  Beta  occ. eigenvalues --   -1.12836  -1.12805  -1.12769  -1.12749  -1.12725
  Beta  occ. eigenvalues --   -0.18219  -0.12635  -0.12336
  Beta virt. eigenvalues --   -0.07130  -0.05342  -0.05032  -0.04527  -0.02439
  Beta virt. eigenvalues --   -0.02268  -0.01635  -0.01342  -0.00984  -0.00195
  Beta virt. eigenvalues --   -0.00120   0.00119   0.00377   0.00893   0.00905

 Mulliken charges and spin densities:
               1          2
     1  Na  -0.031571  -0.042505
     2  Na   0.016110  -0.053160
     3  Na   0.268165  -0.050508
     4  Na  -0.424950   0.738042
     5  Na   0.176479  -0.063967
     6  Na  -0.157902   0.512387
     7  Na   0.153669  -0.040290
 Sum of Mulliken charges =  -0.00000   1.00000

 Dipole moment (field-independent basis, Debye):
    X=             -0.0852    Y=              0.0045    Z=              0.1754  Tot=              0.1951
 Quadrupole moment (field-independent basis, Debye-Ang):
   XX=            -57.1751   YY=            -63.7224   ZZ=            -72.9003
   XY=              0.1908   XZ=              0.4108   YZ=             -0.2473

 Normal termination of Gaussian 16 at Thu Dec  7 02:14:59 2023.
