 Gaussian 16, Revision B.01,
 Gaussian 16:  ES64L-G16RevB.01 20-Dec-2017

 -------------------------
 #P B3LYP/6-311+g(d) force
 -------------------------

 -----
 DPGEN
 -----
 Symbolic Z-matrix:
 Charge =  0 Multiplicity = 2

                         Standard orientation:
 ---------------------------------------------------------------------
 Center     Atomic      Atomic             Coordinates (Angstroms)
 Number     Number       Type             X           Y           Z
 ---------------------------------------------------------------------
      1         11           0        1.609736   -2.435949    0.291669
      2         11           0        1.157952    2.632289    0.481603
      3         11           0       -0.228830   -0.192950   -1.633172
      4         11           0       -3.361632   -1.523749    0.010650
      5         11           0       -2.417133    1.757886   -0.284853
      6         11           0        3.352621   -0.020487   -0.555732
      7         11           0       -0.112714   -0.217041    1.689836
 ---------------------------------------------------------------------

 SCF Done:  E(UB3LYP) =  -1136.12846319     A.U. after   22 cycles

 The electronic state is 2-A.
 Alpha  occ. eigenvalues --  -38.44728 -38.44636 -38.44038 -38.43938 -38.43332
 Alpha  occ. eigenvalues --  -38.43089 -38.42734  -2.20506  -2.20481  -2.19901
 Alpha  occ. eigenvalues --   -2.19862  -2.19230  -2.19059  -2.18575  -1.14182
 Alpha  occ. eigenvalues --   -1.14166  -1.14160  -1.14144  -1.14136  -1.14114
 Alpha  occ. eigenvalues --   -1.13645  -1.13581  -1.13559  -1.13505  -1.13488
 Alpha  occ. eigenvalues --   -1.13454  -1.12954  -1.12877  -1.12872  -1.12742
 Alpha  occ. eigenvalues --   -1.12673  -1.12664  -1.12256  -1.12230  -1.12213
 Alpha  occ. eigenvalues --   -0.18609  -0.13777  -0.11754  -0.10455
 Alpha virt. eigenvalues --   -0.06565  -0.05463  -0.04037  -0.03432  -0.02530
 Alpha virt. eigenvalues --   -0.02311  -0.02124  -0.01341  -0.00534  -0.00161
 Alpha virt. eigenvalues --   -0.00013   0.00244   0.00652   0.00722   0.00806

  Beta  occ. eigenvalues --  -38.44731 -38.44617 -38.44029 -38.43887 -38.43321
  Beta  occ. eigenvalues --  -38.42999 -38.42725  -2.20515  -2.20446  -2.19887
  Beta  occ. eigenvalues --   -2.19769  -2.19215  -2.18895  -2.18561  -1.14189
  Beta  occ. eigenvalues --   -1.14159  -1.14151  -1.14140  -1.14098  -1.14090
  Beta  occ. eigenvalues --   -1.13619  -1.13548  -1.13501  -1.13493  -1.13432
  Beta  occ. eigenvalues --   -1.13386  -1.12926  -1.12868  -1.12838  -1.12636
  Beta  occ. eigenvalues --   -1.12559  -1.12545  -1.12240  -1.12208  -1.12204
  Beta  occ. eigenvalues --   -0.17915  -0.13512  -0.11505
  Beta virt. eigenvalues --   -0.06690  -0.06396  -0.05436  -0.03968  -0.02744
  Beta virt. eigenvalues --   -0.02197  -0.01761  -0.01307  -0.01177  -0.00525
  Beta virt. eigenvalues --   -0.00126   0.00097   0.00291   0.00730   0.00787

 Mulliken charges and spin densities:
               1          2
     1  Na   0.208519   0.074279
     2  Na  -0.148856   0.031511
     3  Na  -0.143637   0.336022
     4  Na  -0.010069  -0.057347
     5  Na   0.114916   0.036517
     6  Na   0.014985   0.144104
     7  Na  -0.035857   0.434913
 Sum of Mulliken charges =  -0.00000   1.00000

 Dipole moment (field-independent basis, Debye):
    X=             -0.5027    Y=             -0.2006    Z=             -0.1415  Tot=              0.5594
 Quadrupole moment (field-independent basis, Debye-Ang):
   XX=            -49.8927   YY=            -66.8473   ZZ=            -75.5229
   XY=              1.4962   XZ=             -0.8880   YZ=             -0.2609

 Normal termination of Gaussian 16 at Wed Nov 29 16:54:14 2023.
