 Gaussian 16, Revision B.01,
 Gaussian 16:  ES64L-G16RevB.01 20-Dec-2017

 -------------------------
 #P B3LYP/6-311+g(d) force
 -------------------------

 -----
 DPGEN
 -----
 Symbolic Z-matrix:
 Charge =  0 Multiplicity = 2

                         Standard orientation:
 ---------------------------------------------------------------------
 Center     Atomic      Atomic             Coordinates (Angstroms)
 Number     Number       Type             X           Y           Z
 ---------------------------------------------------------------------
      1         11           0        3.850949    1.730361   -0.217634
      2         11           0        0.110896    1.165750   -1.046303
      3         11           0       -0.793271   -1.302418    1.718435
      4         11           0        2.720729   -0.953498    0.786313
      5         11           0       -2.657864   -0.605440   -0.597713
      6         11           0       -3.032096    2.417391    0.543241
      7         11           0       -0.199342   -2.452147   -1.186339
 ---------------------------------------------------------------------

 SCF Done:  E(UB3LYP) =  -1136.12325433     A.U. after   22 cycles

 The electronic state is 2-A.
 Alpha  occ. eigenvalues --  -38.44419 -38.44214 -38.44073 -38.43978 -38.43678
 Alpha  occ. eigenvalues --  -38.43638 -38.43199  -2.20222  -2.20066  -2.19970
 Alpha  occ. eigenvalues --   -2.19927  -2.19605  -2.19443  -2.19125  -1.13936
 Alpha  occ. eigenvalues --   -1.13877  -1.13860  -1.13782  -1.13748  -1.13707
 Alpha  occ. eigenvalues --   -1.13682  -1.13630  -1.13603  -1.13586  -1.13582
 Alpha  occ. eigenvalues --   -1.13540  -1.13266  -1.13258  -1.13209  -1.13116
 Alpha  occ. eigenvalues --   -1.13094  -1.13077  -1.12800  -1.12769  -1.12746
 Alpha  occ. eigenvalues --   -0.18460  -0.13857  -0.12033  -0.10537
 Alpha virt. eigenvalues --   -0.06503  -0.05772  -0.04283  -0.03229  -0.02699
 Alpha virt. eigenvalues --   -0.02185  -0.02015  -0.01459  -0.00912  -0.00199
 Alpha virt. eigenvalues --   -0.00063   0.00229   0.00372   0.00633   0.00762

  Beta  occ. eigenvalues --  -38.44423 -38.44176 -38.44053 -38.43958 -38.43631
  Beta  occ. eigenvalues --  -38.43617 -38.43165  -2.20229  -2.19999  -2.19940
  Beta  occ. eigenvalues --   -2.19892  -2.19491  -2.19430  -2.19065  -1.13939
  Beta  occ. eigenvalues --   -1.13881  -1.13860  -1.13743  -1.13691  -1.13670
  Beta  occ. eigenvalues --   -1.13641  -1.13576  -1.13570  -1.13559  -1.13553
  Beta  occ. eigenvalues --   -1.13512  -1.13193  -1.13177  -1.13126  -1.13108
  Beta  occ. eigenvalues --   -1.13078  -1.13070  -1.12760  -1.12731  -1.12675
  Beta  occ. eigenvalues --   -0.17749  -0.13684  -0.11858
  Beta virt. eigenvalues --   -0.06717  -0.06318  -0.05489  -0.04074  -0.02780
  Beta virt. eigenvalues --   -0.02216  -0.02120  -0.01474  -0.01000  -0.00820
  Beta virt. eigenvalues --   -0.00039   0.00107   0.00286   0.00578   0.00665

 Mulliken charges and spin densities:
               1          2
     1  Na   0.372521  -0.046805
     2  Na  -1.180270   0.072507
     3  Na  -0.314156   0.319892
     4  Na  -0.131574   0.066210
     5  Na   0.836070   0.425193
     6  Na   0.216899  -0.038139
     7  Na   0.200512   0.201143
 Sum of Mulliken charges =  -0.00000   1.00000

 Dipole moment (field-independent basis, Debye):
    X=              0.5308    Y=              0.2328    Z=             -0.1362  Tot=              0.5954
 Quadrupole moment (field-independent basis, Debye-Ang):
   XX=            -56.3041   YY=            -64.5718   ZZ=            -73.6671
   XY=              1.6527   XZ=             -0.7997   YZ=              2.1705

 Normal termination of Gaussian 16 at Wed Nov 29 15:57:11 2023.
