 Gaussian 16, Revision B.01,
 Gaussian 16:  ES64L-G16RevB.01 20-Dec-2017

 -------------------------
 #P B3LYP/6-311+g(d) force
 -------------------------

 -----
 DPGEN
 -----
 Symbolic Z-matrix:
 Charge =  0 Multiplicity = 2

                         Standard orientation:
 ---------------------------------------------------------------------
 Center     Atomic      Atomic             Coordinates (Angstroms)
 Number     Number       Type             X           Y           Z
 ---------------------------------------------------------------------
      1         11           0       -3.482779    1.827632   -0.236881
      2         11           0       -0.016102    2.920582    0.680099
      3         11           0       -0.785571   -2.728646    0.900320
      4         11           0       -4.092616   -1.490689   -0.273908
      5         11           0        0.842641   -0.732593   -0.939367
      6         11           0        4.315115   -1.707063   -0.015402
      7         11           0        3.219313    1.910777   -0.114862
 ---------------------------------------------------------------------

 SCF Done:  E(UB3LYP) =  -1136.11659371     A.U. after   21 cycles

 The electronic state is 2-A.
 Alpha  occ. eigenvalues --  -38.44948 -38.44740 -38.44464 -38.44417 -38.44152
 Alpha  occ. eigenvalues --  -38.43778 -38.43459  -2.20737  -2.20517  -2.20292
 Alpha  occ. eigenvalues --   -2.20207  -2.19932  -2.19595  -2.19244  -1.14429
 Alpha  occ. eigenvalues --   -1.14404  -1.14359  -1.14194  -1.14181  -1.14145
 Alpha  occ. eigenvalues --   -1.14009  -1.13941  -1.13922  -1.13862  -1.13843
 Alpha  occ. eigenvalues --   -1.13817  -1.13609  -1.13592  -1.13559  -1.13267
 Alpha  occ. eigenvalues --   -1.13242  -1.13207  -1.12920  -1.12908  -1.12878
 Alpha  occ. eigenvalues --   -0.16457  -0.13946  -0.12329  -0.10620
 Alpha virt. eigenvalues --   -0.06898  -0.05671  -0.03917  -0.03584  -0.03235
 Alpha virt. eigenvalues --   -0.02712  -0.02004  -0.01698  -0.00572  -0.00497
 Alpha virt. eigenvalues --   -0.00381  -0.00095   0.00067   0.00560   0.00582

  Beta  occ. eigenvalues --  -38.44936 -38.44714 -38.44447 -38.44334 -38.44126
  Beta  occ. eigenvalues --  -38.43736 -38.43445  -2.20719  -2.20473  -2.20263
  Beta  occ. eigenvalues --   -2.20054  -2.19885  -2.19517  -2.19219  -1.14422
  Beta  occ. eigenvalues --   -1.14396  -1.14312  -1.14168  -1.14149  -1.14097
  Beta  occ. eigenvalues --   -1.13981  -1.13917  -1.13896  -1.13758  -1.13733
  Beta  occ. eigenvalues --   -1.13719  -1.13579  -1.13563  -1.13513  -1.13207
  Beta  occ. eigenvalues --   -1.13189  -1.13161  -1.12903  -1.12891  -1.12860
  Beta  occ. eigenvalues --   -0.15960  -0.13180  -0.11921
  Beta virt. eigenvalues --   -0.07261  -0.06949  -0.05363  -0.03564  -0.03262
  Beta virt. eigenvalues --   -0.02686  -0.02545  -0.01830  -0.01409  -0.00488
  Beta virt. eigenvalues --   -0.00314  -0.00013   0.00082   0.00170   0.00559

 Mulliken charges and spin densities:
               1          2
     1  Na  -0.093685   0.220519
     2  Na   0.007637  -0.019823
     3  Na   0.015764   0.099913
     4  Na   0.160610   0.145643
     5  Na  -0.484185  -0.083302
     6  Na   0.127236   0.466788
     7  Na   0.266623   0.170261
 Sum of Mulliken charges =  -0.00000   1.00000

 Dipole moment (field-independent basis, Debye):
    X=              0.4417    Y=             -0.4458    Z=              0.2242  Tot=              0.6664
 Quadrupole moment (field-independent basis, Debye-Ang):
   XX=            -64.4598   YY=            -65.8034   ZZ=            -69.6175
   XY=              5.1158   XZ=              1.1517   YZ=             -1.4336

 Normal termination of Gaussian 16 at Sun Dec  3 13:58:01 2023.
