 Gaussian 16, Revision B.01,
 Gaussian 16:  ES64L-G16RevB.01 20-Dec-2017

 -------------------------
 #P B3LYP/6-311+g(d) force
 -------------------------

 -----
 DPGEN
 -----
 Symbolic Z-matrix:
 Charge =  0 Multiplicity = 2

                         Standard orientation:
 ---------------------------------------------------------------------
 Center     Atomic      Atomic             Coordinates (Angstroms)
 Number     Number       Type             X           Y           Z
 ---------------------------------------------------------------------
      1         11           0       -1.999140   -2.227168    0.207965
      2         11           0       -3.168184    0.976159   -0.579263
      3         11           0        0.343262    2.886049    0.773157
      4         11           0        0.018902    0.052595   -1.538936
      5         11           0        2.850292    0.765056   -0.576526
      6         11           0       -0.148495   -0.278363    1.606153
      7         11           0        2.103364   -2.174328    0.107450
 ---------------------------------------------------------------------

 SCF Done:  E(UB3LYP) =  -1136.13105698     A.U. after   20 cycles

 The electronic state is 2-A.
 Alpha  occ. eigenvalues --  -38.44375 -38.43805 -38.43750 -38.43545 -38.43385
 Alpha  occ. eigenvalues --  -38.43065 -38.43035  -2.20184  -2.19723  -2.19624
 Alpha  occ. eigenvalues --   -2.19429  -2.19397  -2.19067  -2.18907  -1.13861
 Alpha  occ. eigenvalues --   -1.13826  -1.13820  -1.13465  -1.13402  -1.13368
 Alpha  occ. eigenvalues --   -1.13339  -1.13287  -1.13228  -1.13134  -1.13105
 Alpha  occ. eigenvalues --   -1.13084  -1.13056  -1.13019  -1.12992  -1.12749
 Alpha  occ. eigenvalues --   -1.12708  -1.12673  -1.12570  -1.12548  -1.12540
 Alpha  occ. eigenvalues --   -0.18951  -0.13503  -0.12196  -0.10666
 Alpha virt. eigenvalues --   -0.05801  -0.05217  -0.04369  -0.03274  -0.02770
 Alpha virt. eigenvalues --   -0.02115  -0.01821  -0.01179  -0.00286  -0.00207
 Alpha virt. eigenvalues --    0.00086   0.00320   0.00762   0.00850   0.00904

  Beta  occ. eigenvalues --  -38.44355 -38.43789 -38.43743 -38.43542 -38.43332
  Beta  occ. eigenvalues --  -38.43042 -38.42958  -2.20148  -2.19696  -2.19615
  Beta  occ. eigenvalues --   -2.19428  -2.19301  -2.18928  -2.18866  -1.13824
  Beta  occ. eigenvalues --   -1.13806  -1.13794  -1.13438  -1.13387  -1.13351
  Beta  occ. eigenvalues --   -1.13304  -1.13272  -1.13215  -1.13111  -1.13083
  Beta  occ. eigenvalues --   -1.13044  -1.13038  -1.12954  -1.12925  -1.12656
  Beta  occ. eigenvalues --   -1.12614  -1.12585  -1.12521  -1.12513  -1.12508
  Beta  occ. eigenvalues --   -0.18299  -0.13166  -0.11887
  Beta virt. eigenvalues --   -0.06890  -0.05657  -0.05173  -0.04298  -0.02573
  Beta virt. eigenvalues --   -0.02094  -0.01652  -0.01207  -0.01085  -0.00231
  Beta virt. eigenvalues --   -0.00199   0.00162   0.00378   0.00812   0.00869

 Mulliken charges and spin densities:
               1          2
     1  Na  -0.033513  -0.026978
     2  Na  -0.016225   0.077360
     3  Na  -0.093277   0.067137
     4  Na  -0.227521   0.341524
     5  Na   0.389454   0.123923
     6  Na   0.059176   0.437067
     7  Na  -0.078095  -0.020033
 Sum of Mulliken charges =  -0.00000   1.00000

 Dipole moment (field-independent basis, Debye):
    X=             -0.3732    Y=             -0.0888    Z=             -0.0822  Tot=              0.3923
 Quadrupole moment (field-independent basis, Debye-Ang):
   XX=            -54.4206   YY=            -63.0626   ZZ=            -74.7108
   XY=             -0.6229   XZ=              0.3617   YZ=              0.1563

 Normal termination of Gaussian 16 at Wed Nov 29 03:02:14 2023.
