 Gaussian 16, Revision B.01,
 Gaussian 16:  ES64L-G16RevB.01 20-Dec-2017

 -------------------------
 #P B3LYP/6-311+g(d) force
 -------------------------

 -----
 DPGEN
 -----
 Symbolic Z-matrix:
 Charge =  0 Multiplicity = 2

                         Standard orientation:
 ---------------------------------------------------------------------
 Center     Atomic      Atomic             Coordinates (Angstroms)
 Number     Number       Type             X           Y           Z
 ---------------------------------------------------------------------
      1         11           0       -1.111462    1.854310   -0.111137
      2         11           0        4.333990   -0.453692   -0.859339
      3         11           0        2.663739    2.523544    0.355105
      4         11           0        1.144260   -2.558054   -0.400637
      5         11           0       -0.150603   -1.270350    2.434767
      6         11           0       -2.971520   -0.355722   -2.204152
      7         11           0       -3.908404    0.259964    0.785392
 ---------------------------------------------------------------------

 SCF Done:  E(UB3LYP) =  -1136.10718544     A.U. after   25 cycles

 The electronic state is 2-A.
 Alpha  occ. eigenvalues --  -38.45991 -38.45183 -38.44749 -38.44621 -38.43494
 Alpha  occ. eigenvalues --  -38.43437 -38.43365  -2.21801  -2.21016  -2.20499
 Alpha  occ. eigenvalues --   -2.20438  -2.19280  -2.19190  -2.19134  -1.15491
 Alpha  occ. eigenvalues --   -1.15461  -1.15436  -1.14677  -1.14648  -1.14626
 Alpha  occ. eigenvalues --   -1.14176  -1.14145  -1.14140  -1.14127  -1.14101
 Alpha  occ. eigenvalues --   -1.14041  -1.12946  -1.12935  -1.12920  -1.12872
 Alpha  occ. eigenvalues --   -1.12857  -1.12827  -1.12817  -1.12795  -1.12766
 Alpha  occ. eigenvalues --   -0.16868  -0.13694  -0.11129  -0.11015
 Alpha virt. eigenvalues --   -0.07300  -0.05918  -0.04395  -0.03770  -0.02928
 Alpha virt. eigenvalues --   -0.02586  -0.02225  -0.01671  -0.00771  -0.00737
 Alpha virt. eigenvalues --   -0.00165  -0.00139  -0.00053   0.00347   0.00540

  Beta  occ. eigenvalues --  -38.45994 -38.45115 -38.44722 -38.44578 -38.43458
  Beta  occ. eigenvalues --  -38.43433 -38.43372  -2.21811  -2.20887  -2.20447
  Beta  occ. eigenvalues --   -2.20360  -2.19211  -2.19184  -2.19146  -1.15484
  Beta  occ. eigenvalues --   -1.15473  -1.15425  -1.14585  -1.14562  -1.14544
  Beta  occ. eigenvalues --   -1.14140  -1.14109  -1.14095  -1.14082  -1.14041
  Beta  occ. eigenvalues --   -1.13979  -1.12906  -1.12891  -1.12869  -1.12869
  Beta  occ. eigenvalues --   -1.12851  -1.12826  -1.12814  -1.12801  -1.12763
  Beta  occ. eigenvalues --   -0.16251  -0.13392  -0.10998
  Beta virt. eigenvalues --   -0.07639  -0.06890  -0.05329  -0.04005  -0.03567
  Beta virt. eigenvalues --   -0.02589  -0.02284  -0.01935  -0.01270  -0.00579
  Beta virt. eigenvalues --   -0.00500  -0.00208   0.00071   0.00145   0.00490

 Mulliken charges and spin densities:
               1          2
     1  Na  -0.698288   0.369231
     2  Na   0.053382   0.111221
     3  Na  -0.078076  -0.085593
     4  Na  -0.187436   0.030490
     5  Na  -0.104962   0.268353
     6  Na   0.278448   0.270068
     7  Na   0.736933   0.036231
 Sum of Mulliken charges =  -0.00000   1.00000

 Dipole moment (field-independent basis, Debye):
    X=             -2.1723    Y=             -0.1891    Z=             -0.2590  Tot=              2.1959
 Quadrupole moment (field-independent basis, Debye-Ang):
   XX=            -54.7230   YY=            -78.2883   ZZ=            -65.8610
   XY=             -1.8885   XZ=             -4.1187   YZ=              5.7046

 Normal termination of Gaussian 16 at Sun Dec  3 18:04:47 2023.
