 Gaussian 16, Revision B.01,
 Gaussian 16:  ES64L-G16RevB.01 20-Dec-2017

 -------------------------
 #P B3LYP/6-311+g(d) force
 -------------------------

 -----
 DPGEN
 -----
 Symbolic Z-matrix:
 Charge =  0 Multiplicity = 2

                         Standard orientation:
 ---------------------------------------------------------------------
 Center     Atomic      Atomic             Coordinates (Angstroms)
 Number     Number       Type             X           Y           Z
 ---------------------------------------------------------------------
      1         11           0       -0.063333    0.196398    0.776334
      2         11           0       -2.228764   -2.223842   -0.572673
      3         11           0        1.330773   -2.666447   -0.647766
      4         11           0        3.705155   -0.489766    0.519358
      5         11           0        2.274190    2.358074   -0.066262
      6         11           0       -3.430661    0.248672    1.168032
      7         11           0       -1.587360    2.576911   -1.177022
 ---------------------------------------------------------------------

 SCF Done:  E(UB3LYP) =  -1136.12615229     A.U. after   22 cycles

 The electronic state is 2-A.
 Alpha  occ. eigenvalues --  -38.44304 -38.44244 -38.43981 -38.43978 -38.43935
 Alpha  occ. eigenvalues --  -38.43581 -38.43239  -2.20135  -2.20073  -2.19912
 Alpha  occ. eigenvalues --   -2.19787  -2.19785  -2.19458  -2.19075  -1.13816
 Alpha  occ. eigenvalues --   -1.13809  -1.13782  -1.13779  -1.13749  -1.13709
 Alpha  occ. eigenvalues --   -1.13635  -1.13560  -1.13552  -1.13449  -1.13448
 Alpha  occ. eigenvalues --   -1.13427  -1.13421  -1.13416  -1.13411  -1.13119
 Alpha  occ. eigenvalues --   -1.13099  -1.13069  -1.12740  -1.12737  -1.12705
 Alpha  occ. eigenvalues --   -0.17628  -0.14163  -0.12573  -0.09815
 Alpha virt. eigenvalues --   -0.06342  -0.06071  -0.04203  -0.03576  -0.02721
 Alpha virt. eigenvalues --   -0.02440  -0.01825  -0.01171  -0.00799  -0.00442
 Alpha virt. eigenvalues --   -0.00313   0.00147   0.00454   0.00583   0.00672

  Beta  occ. eigenvalues --  -38.44294 -38.44238 -38.43981 -38.43930 -38.43901
  Beta  occ. eigenvalues --  -38.43515 -38.43211  -2.20124  -2.20068  -2.19919
  Beta  occ. eigenvalues --   -2.19722  -2.19694  -2.19335  -2.19025  -1.13815
  Beta  occ. eigenvalues --   -1.13806  -1.13785  -1.13751  -1.13726  -1.13665
  Beta  occ. eigenvalues --   -1.13614  -1.13570  -1.13563  -1.13405  -1.13384
  Beta  occ. eigenvalues --   -1.13379  -1.13376  -1.13363  -1.13343  -1.13035
  Beta  occ. eigenvalues --   -1.13018  -1.12982  -1.12708  -1.12702  -1.12663
  Beta  occ. eigenvalues --   -0.17257  -0.13590  -0.12016
  Beta virt. eigenvalues --   -0.06538  -0.06377  -0.05819  -0.03847  -0.03142
  Beta virt. eigenvalues --   -0.02228  -0.02192  -0.01558  -0.00982  -0.00559
  Beta virt. eigenvalues --   -0.00332   0.00032   0.00330   0.00528   0.00683

 Mulliken charges and spin densities:
               1          2
     1  Na  -2.450791   0.044970
     2  Na   0.131141   0.041733
     3  Na   0.004252   0.042646
     4  Na   0.662482   0.224781
     5  Na   0.377890   0.136520
     6  Na   1.184575   0.355626
     7  Na   0.090450   0.153724
 Sum of Mulliken charges =  -0.00000   1.00000

 Dipole moment (field-independent basis, Debye):
    X=              0.0240    Y=              0.2233    Z=             -0.6591  Tot=              0.6963
 Quadrupole moment (field-independent basis, Debye-Ang):
   XX=            -60.6849   YY=            -66.8212   ZZ=            -70.3814
   XY=             -1.5887   XZ=              2.5543   YZ=              0.4246

 Normal termination of Gaussian 16 at Wed Nov 29 15:38:33 2023.
