 Gaussian 16, Revision B.01,
 Gaussian 16:  ES64L-G16RevB.01 20-Dec-2017

 -------------------------
 #P B3LYP/6-311+g(d) force
 -------------------------

 -----
 DPGEN
 -----
 Symbolic Z-matrix:
 Charge =  0 Multiplicity = 2

                         Standard orientation:
 ---------------------------------------------------------------------
 Center     Atomic      Atomic             Coordinates (Angstroms)
 Number     Number       Type             X           Y           Z
 ---------------------------------------------------------------------
      1         11           0        2.046180    0.890883   -0.600391
      2         11           0        4.082775   -2.506218   -0.121821
      3         11           0        0.057152   -2.439063    0.188164
      4         11           0       -1.213987    1.507389   -0.678830
      5         11           0        2.233557    3.709890    0.807474
      6         11           0       -4.343322    0.834636   -0.167388
      7         11           0       -2.862354   -1.997518    0.572790
 ---------------------------------------------------------------------

 SCF Done:  E(UB3LYP) =  -1136.11529618     A.U. after   22 cycles

 The electronic state is 2-A.
 Alpha  occ. eigenvalues --  -38.45198 -38.44998 -38.44256 -38.43958 -38.43895
 Alpha  occ. eigenvalues --  -38.43869 -38.43422  -2.21015  -2.20779  -2.20147
 Alpha  occ. eigenvalues --   -2.19814  -2.19725  -2.19668  -2.19267  -1.14728
 Alpha  occ. eigenvalues --   -1.14703  -1.14609  -1.14467  -1.14438  -1.14400
 Alpha  occ. eigenvalues --   -1.13880  -1.13795  -1.13759  -1.13544  -1.13501
 Alpha  occ. eigenvalues --   -1.13387  -1.13383  -1.13365  -1.13353  -1.13323
 Alpha  occ. eigenvalues --   -1.13319  -1.13268  -1.12940  -1.12936  -1.12895
 Alpha  occ. eigenvalues --   -0.16937  -0.14042  -0.12722  -0.10613
 Alpha virt. eigenvalues --   -0.07286  -0.04981  -0.04091  -0.03849  -0.03215
 Alpha virt. eigenvalues --   -0.02299  -0.02127  -0.01429  -0.01043  -0.00741
 Alpha virt. eigenvalues --   -0.00487  -0.00129   0.00406   0.00524   0.00629

  Beta  occ. eigenvalues --  -38.45180 -38.44990 -38.44205 -38.43960 -38.43825
  Beta  occ. eigenvalues --  -38.43815 -38.43388  -2.20984  -2.20765  -2.20060
  Beta  occ. eigenvalues --   -2.19818  -2.19643  -2.19519  -2.19213  -1.14702
  Beta  occ. eigenvalues --   -1.14676  -1.14585  -1.14457  -1.14428  -1.14391
  Beta  occ. eigenvalues --   -1.13792  -1.13740  -1.13694  -1.13548  -1.13502
  Beta  occ. eigenvalues --   -1.13387  -1.13317  -1.13310  -1.13305  -1.13221
  Beta  occ. eigenvalues --   -1.13216  -1.13173  -1.12908  -1.12905  -1.12817
  Beta  occ. eigenvalues --   -0.16595  -0.13660  -0.11857
  Beta virt. eigenvalues --   -0.07245  -0.07038  -0.04833  -0.03913  -0.03364
  Beta virt. eigenvalues --   -0.03008  -0.01970  -0.01885  -0.01060  -0.00871
  Beta virt. eigenvalues --   -0.00483  -0.00248   0.00262   0.00463   0.00615

 Mulliken charges and spin densities:
               1          2
     1  Na  -0.441312   0.046870
     2  Na   0.423858   0.541749
     3  Na  -0.775924   0.562164
     4  Na  -0.606829   0.142264
     5  Na   0.589105  -0.031689
     6  Na   0.338244   0.242250
     7  Na   0.472857  -0.503609
 Sum of Mulliken charges =  -0.00000   1.00000

 Dipole moment (field-independent basis, Debye):
    X=             -0.4196    Y=              1.5028    Z=              0.6049  Tot=              1.6734
 Quadrupole moment (field-independent basis, Debye-Ang):
   XX=            -58.9535   YY=            -65.9878   ZZ=            -70.9570
   XY=              6.9494   XZ=              0.6857   YZ=              2.5608

 Normal termination of Gaussian 16 at Sun Dec  3 21:48:52 2023.
