 Gaussian 16, Revision B.01,
 Gaussian 16:  ES64L-G16RevB.01 20-Dec-2017

 -------------------------
 #P B3LYP/6-311+g(d) force
 -------------------------

 -----
 DPGEN
 -----
 Symbolic Z-matrix:
 Charge =  0 Multiplicity = 2

                         Standard orientation:
 ---------------------------------------------------------------------
 Center     Atomic      Atomic             Coordinates (Angstroms)
 Number     Number       Type             X           Y           Z
 ---------------------------------------------------------------------
      1         11           0        0.580314   -0.000786   -1.656714
      2         11           0       -1.186586    1.752814    0.034086
      3         11           0       -3.585586   -0.001586   -0.029114
      4         11           0       -1.182786   -1.754286    0.034486
      5         11           0        2.372714   -1.774785   -0.024714
      6         11           0        0.634014    0.000514    1.667486
      7         11           0        2.367914    1.778115   -0.025514
 ---------------------------------------------------------------------

 SCF Done:  E(UB3LYP) =  -1136.10870619     A.U. after   19 cycles

 The electronic state is 2-A.
 Alpha  occ. eigenvalues --  -38.45362 -38.43659 -38.43653 -38.43475 -38.43429
 Alpha  occ. eigenvalues --  -38.43080 -38.43080  -2.21244  -2.19635  -2.19615
 Alpha  occ. eigenvalues --   -2.19606  -2.19575  -2.19115  -2.19115  -1.14934
 Alpha  occ. eigenvalues --   -1.14933  -1.14864  -1.13503  -1.13402  -1.13402
 Alpha  occ. eigenvalues --   -1.13380  -1.13353  -1.13280  -1.13220  -1.13200
 Alpha  occ. eigenvalues --   -1.13162  -1.13146  -1.13132  -1.13109  -1.12817
 Alpha  occ. eigenvalues --   -1.12802  -1.12771  -1.12768  -1.12712  -1.12688
 Alpha  occ. eigenvalues --   -0.20301  -0.14399  -0.11872  -0.11076
 Alpha virt. eigenvalues --   -0.06716  -0.04921  -0.03635  -0.03319  -0.02335
 Alpha virt. eigenvalues --   -0.02244  -0.02209  -0.01081  -0.00084   0.00039
 Alpha virt. eigenvalues --    0.00315   0.00362   0.00821   0.00851   0.00938

  Beta  occ. eigenvalues --  -38.45369 -38.43648 -38.43642 -38.43392 -38.43343
  Beta  occ. eigenvalues --  -38.43065 -38.43065  -2.21259  -2.19602  -2.19596
  Beta  occ. eigenvalues --   -2.19473  -2.19423  -2.19094  -2.19094  -1.14947
  Beta  occ. eigenvalues --   -1.14942  -1.14861  -1.13461  -1.13364  -1.13313
  Beta  occ. eigenvalues --   -1.13305  -1.13284  -1.13213  -1.13193  -1.13178
  Beta  occ. eigenvalues --   -1.13085  -1.13065  -1.13045  -1.13030  -1.12797
  Beta  occ. eigenvalues --   -1.12784  -1.12706  -1.12702  -1.12699  -1.12681
  Beta  occ. eigenvalues --   -0.19541  -0.14164  -0.11551
  Beta virt. eigenvalues --   -0.06993  -0.06598  -0.04942  -0.03320  -0.02814
  Beta virt. eigenvalues --   -0.02184  -0.01517  -0.01163  -0.01058   0.00029
  Beta virt. eigenvalues --    0.00110   0.00326   0.00339   0.00853   0.00924

 Mulliken charges and spin densities:
               1          2
     1  Na  -0.457945   0.481238
     2  Na   0.221177   0.143526
     3  Na  -0.235767  -0.129077
     4  Na   0.221421   0.143738
     5  Na   0.331559  -0.041360
     6  Na  -0.411443   0.443292
     7  Na   0.330997  -0.041357
 Sum of Mulliken charges =  -0.00000   1.00000

 Dipole moment (field-independent basis, Debye):
    X=             -0.4980    Y=             -0.0011    Z=             -0.0104  Tot=              0.4982
 Quadrupole moment (field-independent basis, Debye-Ang):
   XX=            -45.8641   YY=            -72.4072   ZZ=            -73.6123
   XY=              0.0008   XZ=              0.0613   YZ=             -0.0029

 Normal termination of Gaussian 16 at Sat Dec  9 07:04:20 2023.
