 Gaussian 16, Revision B.01,
 Gaussian 16:  ES64L-G16RevB.01 20-Dec-2017

 -------------------------
 #P B3LYP/6-311+g(d) force
 -------------------------

 -----
 DPGEN
 -----
 Symbolic Z-matrix:
 Charge =  0 Multiplicity = 2

                         Standard orientation:
 ---------------------------------------------------------------------
 Center     Atomic      Atomic             Coordinates (Angstroms)
 Number     Number       Type             X           Y           Z
 ---------------------------------------------------------------------
      1         11           0        1.748449   -1.444988    0.990514
      2         11           0        5.091347   -1.639907   -0.553942
      3         11           0       -5.248592   -1.159968   -0.109962
      4         11           0       -3.197891    1.654662    0.357482
      5         11           0       -0.250599    2.727659   -0.609215
      6         11           0        3.349156    2.180847    0.287153
      7         11           0       -1.491870   -2.318304   -0.362031
 ---------------------------------------------------------------------

 SCF Done:  E(UB3LYP) =  -1136.10921727     A.U. after   29 cycles

 The electronic state is 2-A.
 Alpha  occ. eigenvalues --  -38.45853 -38.44742 -38.44626 -38.44500 -38.44408
 Alpha  occ. eigenvalues --  -38.44359 -38.43197  -2.21582  -2.20508  -2.20412
 Alpha  occ. eigenvalues --   -2.20274  -2.20177  -2.20137  -2.18976  -1.15274
 Alpha  occ. eigenvalues --   -1.15243  -1.15191  -1.14165  -1.14158  -1.14116
 Alpha  occ. eigenvalues --   -1.14105  -1.14096  -1.14037  -1.13939  -1.13923
 Alpha  occ. eigenvalues --   -1.13898  -1.13856  -1.13849  -1.13826  -1.13811
 Alpha  occ. eigenvalues --   -1.13785  -1.13743  -1.12655  -1.12650  -1.12619
 Alpha  occ. eigenvalues --   -0.15853  -0.13933  -0.12037  -0.10968
 Alpha virt. eigenvalues --   -0.07461  -0.05524  -0.04323  -0.03476  -0.03114
 Alpha virt. eigenvalues --   -0.02832  -0.01854  -0.01702  -0.01552  -0.00635
 Alpha virt. eigenvalues --   -0.00362  -0.00199  -0.00058   0.00295   0.00357

  Beta  occ. eigenvalues --  -38.45829 -38.44674 -38.44631 -38.44469 -38.44355
  Beta  occ. eigenvalues --  -38.44324 -38.43209  -2.21539  -2.20420  -2.20379
  Beta  occ. eigenvalues --   -2.20218  -2.20084  -2.20077  -2.18997  -1.15246
  Beta  occ. eigenvalues --   -1.15216  -1.15149  -1.14112  -1.14095  -1.14077
  Beta  occ. eigenvalues --   -1.14068  -1.14045  -1.14033  -1.13902  -1.13879
  Beta  occ. eigenvalues --   -1.13866  -1.13796  -1.13791  -1.13781  -1.13771
  Beta  occ. eigenvalues --   -1.13705  -1.13665  -1.12674  -1.12662  -1.12633
  Beta  occ. eigenvalues --   -0.15347  -0.13465  -0.11632
  Beta virt. eigenvalues --   -0.07513  -0.07310  -0.05128  -0.04020  -0.03281
  Beta virt. eigenvalues --   -0.02704  -0.02585  -0.01693  -0.01506  -0.01074
  Beta virt. eigenvalues --   -0.00290  -0.00208  -0.00104   0.00076   0.00290

 Mulliken charges and spin densities:
               1          2
     1  Na  -0.380962  -0.014751
     2  Na   0.195037   0.406146
     3  Na   0.516893   0.187463
     4  Na  -0.273390   0.047542
     5  Na  -0.169374   0.001587
     6  Na   0.252882   0.175640
     7  Na  -0.141086   0.196372
 Sum of Mulliken charges =  -0.00000   1.00000

 Dipole moment (field-independent basis, Debye):
    X=              0.4687    Y=             -0.2019    Z=             -0.0796  Tot=              0.5165
 Quadrupole moment (field-independent basis, Debye-Ang):
   XX=            -53.9856   YY=            -70.1550   ZZ=            -70.9967
   XY=              5.2012   XZ=             -0.8001   YZ=              2.9113

 Normal termination of Gaussian 16 at Sun Dec  3 20:03:08 2023.
