 Gaussian 16, Revision B.01,
 Gaussian 16:  ES64L-G16RevB.01 20-Dec-2017

 -------------------------
 #P B3LYP/6-311+g(d) force
 -------------------------

 -----
 DPGEN
 -----
 Symbolic Z-matrix:
 Charge =  0 Multiplicity = 2

                         Standard orientation:
 ---------------------------------------------------------------------
 Center     Atomic      Atomic             Coordinates (Angstroms)
 Number     Number       Type             X           Y           Z
 ---------------------------------------------------------------------
      1         11           0       -1.459786   -2.082931   -0.810385
      2         11           0        1.132115    2.067438   -0.540221
      3         11           0        0.079899   -0.354545    2.156229
      4         11           0        3.874297   -0.210065    0.629715
      5         11           0       -3.558629   -0.210538    0.547492
      6         11           0       -1.706481    1.968209   -0.602074
      7         11           0        1.638585   -1.177568   -1.380755
 ---------------------------------------------------------------------

 SCF Done:  E(UB3LYP) =  -1136.11605248     A.U. after   23 cycles

 The electronic state is 2-A.
 Alpha  occ. eigenvalues --  -38.45645 -38.45216 -38.45206 -38.43670 -38.43223
 Alpha  occ. eigenvalues --  -38.42954 -38.42944  -2.21442  -2.21075  -2.21006
 Alpha  occ. eigenvalues --   -2.19577  -2.19099  -2.18885  -2.18847  -1.15127
 Alpha  occ. eigenvalues --   -1.15093  -1.15073  -1.14767  -1.14736  -1.14707
 Alpha  occ. eigenvalues --   -1.14679  -1.14652  -1.14610  -1.13266  -1.13221
 Alpha  occ. eigenvalues --   -1.13215  -1.12804  -1.12774  -1.12750  -1.12740
 Alpha  occ. eigenvalues --   -1.12531  -1.12526  -1.12475  -1.12472  -1.12375
 Alpha  occ. eigenvalues --   -0.18470  -0.14202  -0.11522  -0.11031
 Alpha virt. eigenvalues --   -0.07480  -0.04854  -0.04558  -0.03456  -0.02965
 Alpha virt. eigenvalues --   -0.02491  -0.02470  -0.00929  -0.00852  -0.00098
 Alpha virt. eigenvalues --    0.00075   0.00190   0.00233   0.00812   0.00820

  Beta  occ. eigenvalues --  -38.45640 -38.45216 -38.45125 -38.43621 -38.43194
  Beta  occ. eigenvalues --  -38.42947 -38.42935  -2.21434  -2.21075  -2.20854
  Beta  occ. eigenvalues --   -2.19491  -2.19049  -2.18872  -2.18834  -1.15122
  Beta  occ. eigenvalues --   -1.15084  -1.15063  -1.14766  -1.14740  -1.14696
  Beta  occ. eigenvalues --   -1.14574  -1.14549  -1.14497  -1.13203  -1.13153
  Beta  occ. eigenvalues --   -1.13147  -1.12799  -1.12736  -1.12719  -1.12687
  Beta  occ. eigenvalues --   -1.12524  -1.12499  -1.12468  -1.12445  -1.12371
  Beta  occ. eigenvalues --   -0.17781  -0.14128  -0.11218
  Beta virt. eigenvalues --   -0.07357  -0.07075  -0.04864  -0.03961  -0.03204
  Beta virt. eigenvalues --   -0.02679  -0.01861  -0.01626  -0.00831  -0.00591
  Beta virt. eigenvalues --   -0.00077   0.00105   0.00214   0.00411   0.00823

 Mulliken charges and spin densities:
               1          2
     1  Na  -0.238403   0.075729
     2  Na  -0.179813   0.214663
     3  Na  -0.581078   0.446962
     4  Na   0.936372   0.102580
     5  Na   0.922522   0.121932
     6  Na  -0.581989  -0.076893
     7  Na  -0.277611   0.115026
 Sum of Mulliken charges =  -0.00000   1.00000

 Dipole moment (field-independent basis, Debye):
    X=              0.6181    Y=             -0.3028    Z=              0.8625  Tot=              1.1035
 Quadrupole moment (field-independent basis, Debye-Ang):
   XX=            -43.5837   YY=            -79.6179   ZZ=            -71.4668
   XY=              0.2900   XZ=              0.2888   YZ=              0.6722

 Normal termination of Gaussian 16 at Fri Dec  8 00:25:39 2023.
