 Gaussian 16, Revision B.01,
 Gaussian 16:  ES64L-G16RevB.01 20-Dec-2017

 -------------------------
 #P B3LYP/6-311+g(d) force
 -------------------------

 -----
 DPGEN
 -----
 Symbolic Z-matrix:
 Charge =  0 Multiplicity = 2

                         Standard orientation:
 ---------------------------------------------------------------------
 Center     Atomic      Atomic             Coordinates (Angstroms)
 Number     Number       Type             X           Y           Z
 ---------------------------------------------------------------------
      1         11           0        3.810118   -1.504044    0.337645
      2         11           0       -1.701949    1.917757   -0.638819
      3         11           0        0.108415   -0.330397    2.007416
      4         11           0       -2.006655   -1.805607   -0.949117
      5         11           0        1.007705   -0.297324   -1.572231
      6         11           0       -4.320234    0.075354    0.732940
      7         11           0        3.102599    1.944260    0.082167
 ---------------------------------------------------------------------

 SCF Done:  E(UB3LYP) =  -1136.10547890     A.U. after   47 cycles

 The electronic state is 2-A.
 Alpha  occ. eigenvalues --  -38.47321 -38.44963 -38.44500 -38.44290 -38.43884
 Alpha  occ. eigenvalues --  -38.43599 -38.43023  -2.23039  -2.20777  -2.20279
 Alpha  occ. eigenvalues --   -2.20077  -2.19736  -2.19515  -2.18846  -1.16733
 Alpha  occ. eigenvalues --   -1.16697  -1.16658  -1.14439  -1.14418  -1.14399
 Alpha  occ. eigenvalues --   -1.13964  -1.13939  -1.13916  -1.13768  -1.13732
 Alpha  occ. eigenvalues --   -1.13706  -1.13418  -1.13385  -1.13372  -1.13211
 Alpha  occ. eigenvalues --   -1.13158  -1.13119  -1.12537  -1.12521  -1.12466
 Alpha  occ. eigenvalues --   -0.17888  -0.14446  -0.11093  -0.10079
 Alpha virt. eigenvalues --   -0.07951  -0.05910  -0.04695  -0.03393  -0.02929
 Alpha virt. eigenvalues --   -0.02271  -0.02198  -0.01592  -0.01481  -0.00704
 Alpha virt. eigenvalues --   -0.00258   0.00070   0.00196   0.00415   0.00468

  Beta  occ. eigenvalues --  -38.47317 -38.44903 -38.44501 -38.44289 -38.43836
  Beta  occ. eigenvalues --  -38.43529 -38.43004  -2.23030  -2.20665  -2.20280
  Beta  occ. eigenvalues --   -2.20077  -2.19653  -2.19393  -2.18816  -1.16718
  Beta  occ. eigenvalues --   -1.16692  -1.16653  -1.14364  -1.14334  -1.14327
  Beta  occ. eigenvalues --   -1.13964  -1.13936  -1.13918  -1.13768  -1.13734
  Beta  occ. eigenvalues --   -1.13699  -1.13346  -1.13328  -1.13297  -1.13130
  Beta  occ. eigenvalues --   -1.13052  -1.13031  -1.12521  -1.12487  -1.12433
  Beta  occ. eigenvalues --   -0.17212  -0.14050  -0.09943
  Beta virt. eigenvalues --   -0.07708  -0.07321  -0.05817  -0.04156  -0.03166
  Beta virt. eigenvalues --   -0.02658  -0.01872  -0.01621  -0.01483  -0.01020
  Beta virt. eigenvalues --   -0.00559  -0.00147   0.00117   0.00328   0.00471

 Mulliken charges and spin densities:
               1          2
     1  Na   0.089966   0.050354
     2  Na  -0.330832   0.045762
     3  Na  -0.142115   0.060509
     4  Na   0.027096   0.123119
     5  Na   0.145114   0.269221
     6  Na   0.188673   0.413701
     7  Na   0.022097   0.037334
 Sum of Mulliken charges =  -0.00000   1.00000

 Dipole moment (field-independent basis, Debye):
    X=              0.1162    Y=             -0.1495    Z=              0.8666  Tot=              0.8870
 Quadrupole moment (field-independent basis, Debye-Ang):
   XX=            -51.8331   YY=            -80.0318   ZZ=            -67.0439
   XY=              1.1691   XZ=             -0.6645   YZ=              5.2617

 Normal termination of Gaussian 16 at Thu Dec  7 04:42:09 2023.
