 Gaussian 16, Revision B.01,
 Gaussian 16:  ES64L-G16RevB.01 20-Dec-2017

 -------------------------
 #P B3LYP/6-311+g(d) force
 -------------------------

 -----
 DPGEN
 -----
 Symbolic Z-matrix:
 Charge =  0 Multiplicity = 2

                         Standard orientation:
 ---------------------------------------------------------------------
 Center     Atomic      Atomic             Coordinates (Angstroms)
 Number     Number       Type             X           Y           Z
 ---------------------------------------------------------------------
      1         11           0        0.326287    0.244498    2.245949
      2         11           0        1.040718   -2.451754    0.574516
      3         11           0       -2.291211   -2.036445   -0.468482
      4         11           0        3.028446    0.179332   -0.773383
      5         11           0        0.321506    2.766013   -0.088837
      6         11           0       -2.438438    1.486246    0.005919
      7         11           0        0.012691   -0.187890   -1.495681
 ---------------------------------------------------------------------

 SCF Done:  E(UB3LYP) =  -1136.13470348     A.U. after   19 cycles

 The electronic state is 2-A.
 Alpha  occ. eigenvalues --  -38.44188 -38.43690 -38.43469 -38.43469 -38.43314
 Alpha  occ. eigenvalues --  -38.43308 -38.43045  -2.20078  -2.19543  -2.19367
 Alpha  occ. eigenvalues --   -2.19366  -2.19225  -2.19165  -2.19121  -1.13742
 Alpha  occ. eigenvalues --   -1.13710  -1.13693  -1.13265  -1.13177  -1.13172
 Alpha  occ. eigenvalues --   -1.13125  -1.13073  -1.13044  -1.13024  -1.13020
 Alpha  occ. eigenvalues --   -1.12975  -1.12920  -1.12896  -1.12879  -1.12823
 Alpha  occ. eigenvalues --   -1.12813  -1.12790  -1.12776  -1.12739  -1.12709
 Alpha  occ. eigenvalues --   -0.19032  -0.12920  -0.12597  -0.11441
 Alpha virt. eigenvalues --   -0.05013  -0.04887  -0.04700  -0.03404  -0.03080
 Alpha virt. eigenvalues --   -0.02943  -0.01262  -0.00987  -0.00208   0.00089
 Alpha virt. eigenvalues --    0.00108   0.00355   0.00872   0.00933   0.00950

  Beta  occ. eigenvalues --  -38.44083 -38.43668 -38.43467 -38.43452 -38.43309
  Beta  occ. eigenvalues --  -38.43303 -38.42991  -2.19886  -2.19506  -2.19364
  Beta  occ. eigenvalues --   -2.19341  -2.19219  -2.19159  -2.19024  -1.13614
  Beta  occ. eigenvalues --   -1.13571  -1.13560  -1.13228  -1.13150  -1.13145
  Beta  occ. eigenvalues --   -1.13126  -1.13057  -1.13021  -1.12999  -1.12990
  Beta  occ. eigenvalues --   -1.12965  -1.12901  -1.12881  -1.12856  -1.12818
  Beta  occ. eigenvalues --   -1.12802  -1.12785  -1.12715  -1.12676  -1.12645
  Beta  occ. eigenvalues --   -0.18306  -0.12673  -0.12323
  Beta virt. eigenvalues --   -0.07429  -0.04952  -0.04830  -0.04658  -0.02569
  Beta virt. eigenvalues --   -0.02374  -0.01893  -0.01149  -0.00928  -0.00082
  Beta virt. eigenvalues --    0.00055   0.00153   0.00389   0.00919   0.00943

 Mulliken charges and spin densities:
               1          2
     1  Na  -0.456880   0.490358
     2  Na   0.244234   0.189886
     3  Na   0.214836  -0.004952
     4  Na   0.221939   0.019978
     5  Na   0.252299   0.046879
     6  Na   0.085800   0.056491
     7  Na  -0.562228   0.201361
 Sum of Mulliken charges =  -0.00000   1.00000

 Dipole moment (field-independent basis, Debye):
    X=              0.1561    Y=              0.0410    Z=              0.3554  Tot=              0.3903
 Quadrupole moment (field-independent basis, Debye-Ang):
   XX=            -60.1682   YY=            -63.4279   ZZ=            -71.0975
   XY=              0.4748   XZ=             -0.8753   YZ=             -0.6486

 Normal termination of Gaussian 16 at Tue Dec  5 19:57:17 2023.
