 Gaussian 16, Revision B.01,
 Gaussian 16:  ES64L-G16RevB.01 20-Dec-2017

 -------------------------
 #P B3LYP/6-311+g(d) force
 -------------------------

 -----
 DPGEN
 -----
 Symbolic Z-matrix:
 Charge =  0 Multiplicity = 2

                         Standard orientation:
 ---------------------------------------------------------------------
 Center     Atomic      Atomic             Coordinates (Angstroms)
 Number     Number       Type             X           Y           Z
 ---------------------------------------------------------------------
      1         11           0       -0.004304   -2.500892    0.939815
      2         11           0        3.184036   -0.647477   -0.556432
      3         11           0       -0.425494    0.505501    1.799974
      4         11           0       -1.828419    2.513185   -0.443815
      5         11           0       -2.949778   -1.073847   -0.432239
      6         11           0        0.077099   -0.722207   -1.604627
      7         11           0        1.946860    1.925738    0.297324
 ---------------------------------------------------------------------

 SCF Done:  E(UB3LYP) =  -1136.13157438     A.U. after   19 cycles

 The electronic state is 2-A.
 Alpha  occ. eigenvalues --  -38.44234 -38.43935 -38.43593 -38.43532 -38.43439
 Alpha  occ. eigenvalues --  -38.43322 -38.43267  -2.20079  -2.19809  -2.19493
 Alpha  occ. eigenvalues --   -2.19414  -2.19347  -2.19252  -2.19236  -1.13774
 Alpha  occ. eigenvalues --   -1.13732  -1.13701  -1.13554  -1.13475  -1.13429
 Alpha  occ. eigenvalues --   -1.13210  -1.13149  -1.13137  -1.13103  -1.13057
 Alpha  occ. eigenvalues --   -1.13039  -1.13035  -1.13012  -1.12995  -1.12978
 Alpha  occ. eigenvalues --   -1.12898  -1.12869  -1.12863  -1.12829  -1.12819
 Alpha  occ. eigenvalues --   -0.18893  -0.13363  -0.12234  -0.11067
 Alpha virt. eigenvalues --   -0.05742  -0.05130  -0.04225  -0.03351  -0.03083
 Alpha virt. eigenvalues --   -0.02486  -0.01700  -0.00993  -0.00341   0.00005
 Alpha virt. eigenvalues --    0.00100   0.00353   0.00801   0.00878   0.00891

  Beta  occ. eigenvalues --  -38.44220 -38.43924 -38.43586 -38.43527 -38.43390
  Beta  occ. eigenvalues --  -38.43287 -38.43188  -2.20056  -2.19792  -2.19484
  Beta  occ. eigenvalues --   -2.19339  -2.19324  -2.19175  -2.19107  -1.13749
  Beta  occ. eigenvalues --   -1.13712  -1.13683  -1.13546  -1.13452  -1.13413
  Beta  occ. eigenvalues --   -1.13188  -1.13119  -1.13099  -1.13088  -1.13026
  Beta  occ. eigenvalues --   -1.13009  -1.12993  -1.12967  -1.12963  -1.12917
  Beta  occ. eigenvalues --   -1.12815  -1.12810  -1.12796  -1.12764  -1.12720
  Beta  occ. eigenvalues --   -0.18181  -0.13068  -0.12032
  Beta virt. eigenvalues --   -0.07140  -0.05659  -0.05013  -0.04156  -0.02674
  Beta virt. eigenvalues --   -0.02412  -0.01587  -0.01449  -0.00949  -0.00221
  Beta virt. eigenvalues --    0.00021   0.00155   0.00401   0.00842   0.00901

 Mulliken charges and spin densities:
               1          2
     1  Na   0.052212   0.081156
     2  Na   0.248262   0.029365
     3  Na   0.256864   0.364239
     4  Na  -0.291550   0.000913
     5  Na   0.155000   0.033652
     6  Na  -0.299368   0.555458
     7  Na  -0.121420  -0.064784
 Sum of Mulliken charges =  -0.00000   1.00000

 Dipole moment (field-independent basis, Debye):
    X=             -0.2834    Y=             -0.1733    Z=             -0.1715  Tot=              0.3739
 Quadrupole moment (field-independent basis, Debye-Ang):
   XX=            -55.5671   YY=            -65.9755   ZZ=            -72.4369
   XY=             -0.2802   XZ=              1.0053   YZ=             -2.0569

 Normal termination of Gaussian 16 at Tue Nov 28 19:52:26 2023.
