 Gaussian 16, Revision B.01,
 Gaussian 16:  ES64L-G16RevB.01 20-Dec-2017

 -------------------------
 #P B3LYP/6-311+g(d) force
 -------------------------

 -----
 DPGEN
 -----
 Symbolic Z-matrix:
 Charge =  0 Multiplicity = 2

                         Standard orientation:
 ---------------------------------------------------------------------
 Center     Atomic      Atomic             Coordinates (Angstroms)
 Number     Number       Type             X           Y           Z
 ---------------------------------------------------------------------
      1         11           0       -0.595937    1.895916    1.082598
      2         11           0        2.664605    3.310595   -0.644469
      3         11           0        2.593758    0.181467   -0.455895
      4         11           0        1.177910   -2.131158    0.948423
      5         11           0       -3.053737    0.194653    0.453217
      6         11           0        4.253762   -2.599330   -0.525160
      7         11           0       -7.040361   -0.852143   -0.858714
 ---------------------------------------------------------------------

 SCF Done:  E(UB3LYP) =  -1136.10975899     A.U. after   20 cycles

 The electronic state is 2-A.
 Alpha  occ. eigenvalues --  -38.45560 -38.45366 -38.45153 -38.43942 -38.43657
 Alpha  occ. eigenvalues --  -38.43443 -38.42822  -2.21377  -2.21141  -2.20965
 Alpha  occ. eigenvalues --   -2.19769  -2.19439  -2.19392  -2.18642  -1.15112
 Alpha  occ. eigenvalues --   -1.15048  -1.14947  -1.14767  -1.14767  -1.14741
 Alpha  occ. eigenvalues --   -1.14647  -1.14623  -1.14577  -1.13484  -1.13441
 Alpha  occ. eigenvalues --   -1.13397  -1.13127  -1.13117  -1.13110  -1.13069
 Alpha  occ. eigenvalues --   -1.13069  -1.12995  -1.12315  -1.12294  -1.12263
 Alpha  occ. eigenvalues --   -0.16702  -0.13630  -0.12473  -0.11291
 Alpha virt. eigenvalues --   -0.06761  -0.04989  -0.04687  -0.03837  -0.02885
 Alpha virt. eigenvalues --   -0.02398  -0.02001  -0.01660  -0.01420  -0.00999
 Alpha virt. eigenvalues --   -0.00576  -0.00232   0.00085   0.00237   0.00535

  Beta  occ. eigenvalues --  -38.45544 -38.45216 -38.45151 -38.43924 -38.43673
  Beta  occ. eigenvalues --  -38.43435 -38.42804  -2.21348  -2.20961  -2.20860
  Beta  occ. eigenvalues --   -2.19737  -2.19475  -2.19378  -2.18608  -1.15094
  Beta  occ. eigenvalues --   -1.15029  -1.14921  -1.14642  -1.14621  -1.14577
  Beta  occ. eigenvalues --   -1.14577  -1.14575  -1.14553  -1.13466  -1.13414
  Beta  occ. eigenvalues --   -1.13379  -1.13143  -1.13138  -1.13100  -1.13062
  Beta  occ. eigenvalues --   -1.13061  -1.12989  -1.12288  -1.12271  -1.12244
  Beta  occ. eigenvalues --   -0.16474  -0.13274  -0.11529
  Beta virt. eigenvalues --   -0.07793  -0.06368  -0.04821  -0.04375  -0.03713
  Beta virt. eigenvalues --   -0.02601  -0.02200  -0.01513  -0.01233  -0.00864
  Beta virt. eigenvalues --   -0.00693  -0.00320  -0.00036   0.00189   0.00374

 Mulliken charges and spin densities:
               1          2
     1  Na   0.516827  -0.147760
     2  Na   1.233189   0.054221
     3  Na  -2.010619   0.114051
     4  Na   0.100299   0.092774
     5  Na  -0.738634   0.113474
     6  Na   0.997911   0.000039
     7  Na  -0.098972   0.773200
 Sum of Mulliken charges =  -0.00000   1.00000

 Dipole moment (field-independent basis, Debye):
    X=              1.5987    Y=             -1.8546    Z=             -0.0229  Tot=              2.4487
 Quadrupole moment (field-independent basis, Debye-Ang):
   XX=            -58.5364   YY=            -63.7714   ZZ=            -71.3708
   XY=             -7.5047   XZ=             -1.1386   YZ=              1.1854

 Normal termination of Gaussian 16 at Wed Nov 29 01:38:45 2023.
