 Gaussian 16, Revision B.01,
 Gaussian 16:  ES64L-G16RevB.01 20-Dec-2017

 -------------------------
 #P B3LYP/6-311+g(d) force
 -------------------------

 -----
 DPGEN
 -----
 Symbolic Z-matrix:
 Charge =  0 Multiplicity = 2

                         Standard orientation:
 ---------------------------------------------------------------------
 Center     Atomic      Atomic             Coordinates (Angstroms)
 Number     Number       Type             X           Y           Z
 ---------------------------------------------------------------------
      1         11           0        1.780492   -0.764467    1.602298
      2         11           0       -2.488920   -0.368991   -1.453476
      3         11           0        0.303854    1.419911   -0.533906
      4         11           0       -2.551899    1.934139    0.828187
      5         11           0       -1.593633   -1.557823    1.221944
      6         11           0        3.874116    0.910674   -0.350799
      7         11           0        0.675991   -1.573443   -1.314247
 ---------------------------------------------------------------------

 SCF Done:  E(UB3LYP) =  -1136.12500391     A.U. after   24 cycles

 The electronic state is 2-A.
 Alpha  occ. eigenvalues --  -38.44790 -38.44239 -38.43852 -38.43483 -38.43287
 Alpha  occ. eigenvalues --  -38.43109 -38.43026  -2.20588  -2.20190  -2.19774
 Alpha  occ. eigenvalues --   -2.19441  -2.19216  -2.19072  -2.18905  -1.14267
 Alpha  occ. eigenvalues --   -1.14245  -1.14218  -1.13896  -1.13864  -1.13790
 Alpha  occ. eigenvalues --   -1.13479  -1.13437  -1.13370  -1.13180  -1.13141
 Alpha  occ. eigenvalues --   -1.13037  -1.12901  -1.12884  -1.12825  -1.12775
 Alpha  occ. eigenvalues --   -1.12711  -1.12653  -1.12569  -1.12554  -1.12541
 Alpha  occ. eigenvalues --   -0.19110  -0.14149  -0.11292  -0.11235
 Alpha virt. eigenvalues --   -0.06668  -0.04781  -0.04537  -0.03134  -0.02553
 Alpha virt. eigenvalues --   -0.02467  -0.02209  -0.00864  -0.00659   0.00009
 Alpha virt. eigenvalues --    0.00184   0.00339   0.00393   0.00736   0.00876

  Beta  occ. eigenvalues --  -38.44790 -38.44205 -38.43808 -38.43461 -38.43252
  Beta  occ. eigenvalues --  -38.43067 -38.43011  -2.20588  -2.20131  -2.19695
  Beta  occ. eigenvalues --   -2.19406  -2.19155  -2.18999  -2.18877  -1.14262
  Beta  occ. eigenvalues --   -1.14246  -1.14218  -1.13860  -1.13808  -1.13739
  Beta  occ. eigenvalues --   -1.13430  -1.13379  -1.13304  -1.13149  -1.13084
  Beta  occ. eigenvalues --   -1.13018  -1.12854  -1.12834  -1.12777  -1.12727
  Beta  occ. eigenvalues --   -1.12630  -1.12605  -1.12551  -1.12538  -1.12510
  Beta  occ. eigenvalues --   -0.18348  -0.13989  -0.11032
  Beta virt. eigenvalues --   -0.07249  -0.06541  -0.04618  -0.03988  -0.02893
  Beta virt. eigenvalues --   -0.02393  -0.01983  -0.01381  -0.00742  -0.00279
  Beta virt. eigenvalues --    0.00082   0.00228   0.00340   0.00521   0.00788

 Mulliken charges and spin densities:
               1          2
     1  Na  -0.200295   0.079194
     2  Na   0.553473   0.093527
     3  Na  -0.845471   0.374938
     4  Na   0.082891  -0.099959
     5  Na  -0.040422   0.466174
     6  Na   0.590121  -0.043873
     7  Na  -0.140297   0.129999
 Sum of Mulliken charges =  -0.00000   1.00000

 Dipole moment (field-independent basis, Debye):
    X=              0.8336    Y=             -0.3212    Z=             -0.1183  Tot=              0.9012
 Quadrupole moment (field-independent basis, Debye-Ang):
   XX=            -49.2408   YY=            -76.2300   ZZ=            -67.5854
   XY=              2.1705   XZ=             -0.4988   YZ=              0.9269

 Normal termination of Gaussian 16 at Tue Dec  5 13:20:33 2023.
