 Gaussian 16, Revision B.01,
 Gaussian 16:  ES64L-G16RevB.01 20-Dec-2017

 -------------------------
 #P B3LYP/6-311+g(d) force
 -------------------------

 -----
 DPGEN
 -----
 Symbolic Z-matrix:
 Charge =  0 Multiplicity = 2

                         Standard orientation:
 ---------------------------------------------------------------------
 Center     Atomic      Atomic             Coordinates (Angstroms)
 Number     Number       Type             X           Y           Z
 ---------------------------------------------------------------------
      1         11           0        2.223584    1.564387   -0.074351
      2         11           0       -1.515385    0.580409    1.153322
      3         11           0       -1.809180   -2.425484   -0.472548
      4         11           0        1.159187   -1.993615    0.439374
      5         11           0        4.841018   -0.797778   -0.293257
      6         11           0       -4.511708   -0.091260   -0.406589
      7         11           0       -0.387517    3.163341   -0.345951
 ---------------------------------------------------------------------

 SCF Done:  E(UB3LYP) =  -1136.12639620     A.U. after   19 cycles

 The electronic state is 2-A.
 Alpha  occ. eigenvalues --  -38.44347 -38.44284 -38.44033 -38.43982 -38.43836
 Alpha  occ. eigenvalues --  -38.43543 -38.43386  -2.20228  -2.20110  -2.19897
 Alpha  occ. eigenvalues --   -2.19780  -2.19688  -2.19393  -2.19247  -1.13933
 Alpha  occ. eigenvalues --   -1.13913  -1.13862  -1.13756  -1.13743  -1.13720
 Alpha  occ. eigenvalues --   -1.13594  -1.13561  -1.13526  -1.13435  -1.13431
 Alpha  occ. eigenvalues --   -1.13396  -1.13386  -1.13369  -1.13326  -1.13077
 Alpha  occ. eigenvalues --   -1.13067  -1.12998  -1.12905  -1.12897  -1.12880
 Alpha  occ. eigenvalues --   -0.17340  -0.13989  -0.12610  -0.10985
 Alpha virt. eigenvalues --   -0.06152  -0.05008  -0.04583  -0.04000  -0.02717
 Alpha virt. eigenvalues --   -0.02048  -0.01905  -0.01537  -0.00788  -0.00668
 Alpha virt. eigenvalues --   -0.00460  -0.00105   0.00570   0.00610   0.00688

  Beta  occ. eigenvalues --  -38.44341 -38.44196 -38.44014 -38.43912 -38.43833
  Beta  occ. eigenvalues --  -38.43508 -38.43388  -2.20221  -2.19945  -2.19868
  Beta  occ. eigenvalues --   -2.19684  -2.19648  -2.19335  -2.19251  -1.13932
  Beta  occ. eigenvalues --   -1.13886  -1.13848  -1.13644  -1.13630  -1.13619
  Beta  occ. eigenvalues --   -1.13557  -1.13543  -1.13485  -1.13391  -1.13367
  Beta  occ. eigenvalues --   -1.13348  -1.13341  -1.13320  -1.13288  -1.13042
  Beta  occ. eigenvalues --   -1.13028  -1.12933  -1.12911  -1.12897  -1.12881
  Beta  occ. eigenvalues --   -0.16837  -0.13259  -0.12194
  Beta virt. eigenvalues --   -0.07527  -0.06040  -0.04835  -0.04034  -0.03706
  Beta virt. eigenvalues --   -0.02423  -0.01888  -0.01396  -0.01024  -0.00634
  Beta virt. eigenvalues --   -0.00574  -0.00213   0.00141   0.00675   0.00706

 Mulliken charges and spin densities:
               1          2
     1  Na  -0.777088   0.078109
     2  Na  -0.046106   0.116541
     3  Na  -0.035819   0.012082
     4  Na  -0.253468   0.019201
     5  Na   0.710723   0.385069
     6  Na   0.145298   0.443245
     7  Na   0.256460  -0.054247
 Sum of Mulliken charges =  -0.00000   1.00000

 Dipole moment (field-independent basis, Debye):
    X=             -0.6262    Y=             -0.1230    Z=             -0.3761  Tot=              0.7407
 Quadrupole moment (field-independent basis, Debye-Ang):
   XX=            -62.8600   YY=            -66.9004   ZZ=            -68.6567
   XY=             -1.1003   XZ=              1.1465   YZ=             -0.0886

 Normal termination of Gaussian 16 at Wed Nov 29 02:44:08 2023.
