 Gaussian 16, Revision B.01,
 Gaussian 16:  ES64L-G16RevB.01 20-Dec-2017

 -------------------------
 #P B3LYP/6-311+g(d) force
 -------------------------

 -----
 DPGEN
 -----
 Symbolic Z-matrix:
 Charge =  0 Multiplicity = 2

                         Standard orientation:
 ---------------------------------------------------------------------
 Center     Atomic      Atomic             Coordinates (Angstroms)
 Number     Number       Type             X           Y           Z
 ---------------------------------------------------------------------
      1         11           0        4.148711   -0.794818    0.139938
      2         11           0       -3.403894    0.036677    1.604248
      3         11           0       -4.789206    0.142393   -0.959829
      4         11           0        1.462421   -2.822274    0.468749
      5         11           0       -0.337983   -1.017072   -1.481197
      6         11           0        0.155727    1.697150    0.587817
      7         11           0        2.764224    2.757944   -0.359725
 ---------------------------------------------------------------------

 SCF Done:  E(UB3LYP) =  -1136.10960293     A.U. after   20 cycles

 The electronic state is 2-A.
 Alpha  occ. eigenvalues --  -38.45204 -38.45051 -38.44591 -38.44405 -38.43520
 Alpha  occ. eigenvalues --  -38.43096 -38.43064  -2.21023  -2.20878  -2.20420
 Alpha  occ. eigenvalues --   -2.20208  -2.19383  -2.18923  -2.18887  -1.14834
 Alpha  occ. eigenvalues --   -1.14673  -1.14648  -1.14508  -1.14502  -1.14460
 Alpha  occ. eigenvalues --   -1.14089  -1.14071  -1.14035  -1.13872  -1.13838
 Alpha  occ. eigenvalues --   -1.13819  -1.13094  -1.13044  -1.13023  -1.12580
 Alpha  occ. eigenvalues --   -1.12573  -1.12556  -1.12556  -1.12551  -1.12544
 Alpha  occ. eigenvalues --   -0.16759  -0.14248  -0.11603  -0.10887
 Alpha virt. eigenvalues --   -0.06923  -0.04987  -0.04758  -0.03658  -0.03239
 Alpha virt. eigenvalues --   -0.02105  -0.01993  -0.01372  -0.01271  -0.00653
 Alpha virt. eigenvalues --   -0.00431   0.00109   0.00329   0.00499   0.00583

  Beta  occ. eigenvalues --  -38.45200 -38.45010 -38.44536 -38.44311 -38.43493
  Beta  occ. eigenvalues --  -38.43096 -38.43067  -2.21019  -2.20804  -2.20320
  Beta  occ. eigenvalues --   -2.20034  -2.19335  -2.18924  -2.18896  -1.14809
  Beta  occ. eigenvalues --   -1.14673  -1.14631  -1.14458  -1.14444  -1.14423
  Beta  occ. eigenvalues --   -1.14018  -1.13999  -1.13971  -1.13754  -1.13725
  Beta  occ. eigenvalues --   -1.13694  -1.13072  -1.13003  -1.12990  -1.12580
  Beta  occ. eigenvalues --   -1.12574  -1.12563  -1.12561  -1.12544  -1.12525
  Beta  occ. eigenvalues --   -0.16121  -0.13554  -0.11534
  Beta virt. eigenvalues --   -0.07427  -0.06719  -0.04443  -0.04360  -0.03400
  Beta virt. eigenvalues --   -0.02955  -0.01996  -0.01608  -0.01316  -0.00776
  Beta virt. eigenvalues --   -0.00341  -0.00260   0.00272   0.00409   0.00596

 Mulliken charges and spin densities:
               1          2
     1  Na  -0.088151   0.519196
     2  Na   0.336300   0.187862
     3  Na   0.231357   0.159186
     4  Na   0.300363   0.023128
     5  Na  -0.386436   0.188832
     6  Na  -1.105652  -0.075613
     7  Na   0.712219  -0.002591
 Sum of Mulliken charges =  -0.00000   1.00000

 Dipole moment (field-independent basis, Debye):
    X=             -1.8121    Y=             -0.3016    Z=             -0.3587  Tot=              1.8717
 Quadrupole moment (field-independent basis, Debye-Ang):
   XX=            -66.1425   YY=            -77.2757   ZZ=            -59.8837
   XY=              1.4148   XZ=              2.1415   YZ=             -2.8860

 Normal termination of Gaussian 16 at Sun Dec  3 20:52:01 2023.
