 Gaussian 16, Revision B.01,
 Gaussian 16:  ES64L-G16RevB.01 20-Dec-2017

 -------------------------
 #P B3LYP/6-311+g(d) force
 -------------------------

 -----
 DPGEN
 -----
 Symbolic Z-matrix:
 Charge =  0 Multiplicity = 2

                         Standard orientation:
 ---------------------------------------------------------------------
 Center     Atomic      Atomic             Coordinates (Angstroms)
 Number     Number       Type             X           Y           Z
 ---------------------------------------------------------------------
      1         11           0        1.124614    0.146464    1.865970
      2         11           0       -2.028046   -0.225676    2.316000
      3         11           0        0.353139   -1.436050   -0.732771
      4         11           0       -1.349171    1.926293   -0.398572
      5         11           0        3.374457   -1.718032   -0.313543
      6         11           0        1.536427    2.686323   -1.069734
      7         11           0       -3.011419   -1.379322   -1.667351
 ---------------------------------------------------------------------

 SCF Done:  E(UB3LYP) =  -1136.12373441     A.U. after   25 cycles

 The electronic state is 2-A.
 Alpha  occ. eigenvalues --  -38.44877 -38.44462 -38.44234 -38.43712 -38.43283
 Alpha  occ. eigenvalues --  -38.43187 -38.43151  -2.20724  -2.20374  -2.20025
 Alpha  occ. eigenvalues --   -2.19537  -2.19213  -2.19040  -2.19012  -1.14425
 Alpha  occ. eigenvalues --   -1.14368  -1.14315  -1.14102  -1.14004  -1.13967
 Alpha  occ. eigenvalues --   -1.13691  -1.13678  -1.13636  -1.13255  -1.13183
 Alpha  occ. eigenvalues --   -1.13171  -1.12931  -1.12870  -1.12818  -1.12804
 Alpha  occ. eigenvalues --   -1.12711  -1.12698  -1.12664  -1.12636  -1.12578
 Alpha  occ. eigenvalues --   -0.18189  -0.12914  -0.12236  -0.11715
 Alpha virt. eigenvalues --   -0.05565  -0.05196  -0.04605  -0.03396  -0.03071
 Alpha virt. eigenvalues --   -0.02669  -0.01737  -0.01113  -0.00839   0.00080
 Alpha virt. eigenvalues --    0.00180   0.00265   0.00373   0.00586   0.00739

  Beta  occ. eigenvalues --  -38.44799 -38.44406 -38.44184 -38.43713 -38.43267
  Beta  occ. eigenvalues --  -38.43170 -38.43139  -2.20584  -2.20277  -2.19934
  Beta  occ. eigenvalues --   -2.19539  -2.19186  -2.19021  -2.18983  -1.14311
  Beta  occ. eigenvalues --   -1.14277  -1.14216  -1.14043  -1.13916  -1.13891
  Beta  occ. eigenvalues --   -1.13621  -1.13614  -1.13581  -1.13254  -1.13182
  Beta  occ. eigenvalues --   -1.13172  -1.12903  -1.12848  -1.12797  -1.12785
  Beta  occ. eigenvalues --   -1.12694  -1.12674  -1.12640  -1.12617  -1.12566
  Beta  occ. eigenvalues --   -0.17451  -0.12719  -0.11397
  Beta virt. eigenvalues --   -0.08217  -0.05393  -0.04874  -0.04186  -0.03101
  Beta virt. eigenvalues --   -0.02501  -0.02078  -0.01599  -0.00847  -0.00550
  Beta virt. eigenvalues --    0.00208   0.00244   0.00402   0.00437   0.00726

 Mulliken charges and spin densities:
               1          2
     1  Na   0.157942   0.278785
     2  Na   0.187594   0.150716
     3  Na  -2.492389   0.334984
     4  Na  -0.111374   0.380268
     5  Na   1.125004   0.073136
     6  Na   0.003403  -0.089827
     7  Na   1.129821  -0.128062
 Sum of Mulliken charges =  -0.00000   1.00000

 Dipole moment (field-independent basis, Debye):
    X=             -0.1225    Y=             -0.2696    Z=              0.3856  Tot=              0.4862
 Quadrupole moment (field-independent basis, Debye-Ang):
   XX=            -54.3491   YY=            -75.7231   ZZ=            -64.3319
   XY=              0.6611   XZ=             -1.2352   YZ=              0.6553

 Normal termination of Gaussian 16 at Wed Nov 29 03:23:14 2023.
