 Gaussian 16, Revision B.01,
 Gaussian 16:  ES64L-G16RevB.01 20-Dec-2017

 -------------------------
 #P B3LYP/6-311+g(d) force
 -------------------------

 -----
 DPGEN
 -----
 Symbolic Z-matrix:
 Charge =  0 Multiplicity = 2

                         Standard orientation:
 ---------------------------------------------------------------------
 Center     Atomic      Atomic             Coordinates (Angstroms)
 Number     Number       Type             X           Y           Z
 ---------------------------------------------------------------------
      1         11           0       -2.231249   -2.395834   -0.236299
      2         11           0       -4.444402    0.463200    0.557173
      3         11           0        1.502419    3.584977    0.218919
      4         11           0        2.334119    0.770067   -0.963737
      5         11           0        1.112781   -2.416619   -0.668985
      6         11           0        3.261928   -1.623826    1.311584
      7         11           0       -1.535597    1.618035   -0.218655
 ---------------------------------------------------------------------

 SCF Done:  E(UB3LYP) =  -1136.12420859     A.U. after   19 cycles

 The electronic state is 2-A.
 Alpha  occ. eigenvalues --  -38.44361 -38.44329 -38.44011 -38.43985 -38.43750
 Alpha  occ. eigenvalues --  -38.43593 -38.43446  -2.20230  -2.20135  -2.19855
 Alpha  occ. eigenvalues --   -2.19826  -2.19568  -2.19427  -2.19350  -1.13945
 Alpha  occ. eigenvalues --   -1.13913  -1.13846  -1.13843  -1.13828  -1.13741
 Alpha  occ. eigenvalues --   -1.13547  -1.13502  -1.13496  -1.13487  -1.13476
 Alpha  occ. eigenvalues --   -1.13434  -1.13240  -1.13223  -1.13196  -1.13088
 Alpha  occ. eigenvalues --   -1.13072  -1.13038  -1.13038  -1.13012  -1.12969
 Alpha  occ. eigenvalues --   -0.16965  -0.13983  -0.13075  -0.10334
 Alpha virt. eigenvalues --   -0.06048  -0.05777  -0.04513  -0.03533  -0.02472
 Alpha virt. eigenvalues --   -0.02123  -0.01886  -0.01776  -0.01175  -0.00811
 Alpha virt. eigenvalues --   -0.00125   0.00181   0.00475   0.00587   0.00687

  Beta  occ. eigenvalues --  -38.44357 -38.44319 -38.43957 -38.43925 -38.43748
  Beta  occ. eigenvalues --  -38.43537 -38.43421  -2.20226  -2.20120  -2.19742
  Beta  occ. eigenvalues --   -2.19730  -2.19565  -2.19323  -2.19313  -1.13944
  Beta  occ. eigenvalues --   -1.13912  -1.13836  -1.13825  -1.13811  -1.13717
  Beta  occ. eigenvalues --   -1.13478  -1.13438  -1.13426  -1.13409  -1.13396
  Beta  occ. eigenvalues --   -1.13350  -1.13239  -1.13221  -1.13192  -1.13018
  Beta  occ. eigenvalues --   -1.13010  -1.13001  -1.12995  -1.12976  -1.12884
  Beta  occ. eigenvalues --   -0.16551  -0.13389  -0.12579
  Beta virt. eigenvalues --   -0.06795  -0.05873  -0.05680  -0.04233  -0.03146
  Beta virt. eigenvalues --   -0.02228  -0.01861  -0.01671  -0.01330  -0.00766
  Beta virt. eigenvalues --   -0.00746   0.00183   0.00390   0.00525   0.00670

 Mulliken charges and spin densities:
               1          2
     1  Na  -0.276950   0.217903
     2  Na   0.702522   0.249499
     3  Na   0.529009   0.015594
     4  Na  -0.230549   0.041114
     5  Na  -0.002877   0.039042
     6  Na   0.360270   0.331808
     7  Na  -1.081424   0.105042
 Sum of Mulliken charges =  -0.00000   1.00000

 Dipole moment (field-independent basis, Debye):
    X=              0.4272    Y=              0.3455    Z=              0.5869  Tot=              0.8040
 Quadrupole moment (field-independent basis, Debye-Ang):
   XX=            -63.8531   YY=            -66.7968   ZZ=            -67.9054
   XY=              4.6354   XZ=             -0.0113   YZ=              0.2842

 Normal termination of Gaussian 16 at Mon Dec  4 01:55:12 2023.
