 Gaussian 16, Revision B.01,
 Gaussian 16:  ES64L-G16RevB.01 20-Dec-2017

 -------------------------
 #P B3LYP/6-311+g(d) force
 -------------------------

 -----
 DPGEN
 -----
 Symbolic Z-matrix:
 Charge =  0 Multiplicity = 2

                         Standard orientation:
 ---------------------------------------------------------------------
 Center     Atomic      Atomic             Coordinates (Angstroms)
 Number     Number       Type             X           Y           Z
 ---------------------------------------------------------------------
      1         11           0        2.841666   -1.482254   -0.389268
      2         11           0        0.048202   -0.389200    1.991042
      3         11           0       -0.573701   -2.779729    0.040218
      4         11           0       -3.339619   -0.540015   -0.317597
      5         11           0        2.347765    2.052472    0.200474
      6         11           0       -1.485842    2.727415    0.152814
      7         11           0        0.161528    0.411310   -1.677682
 ---------------------------------------------------------------------

 SCF Done:  E(UB3LYP) =  -1136.13685576     A.U. after   19 cycles

 The electronic state is 2-A.
 Alpha  occ. eigenvalues --  -38.44302 -38.43958 -38.43956 -38.43759 -38.43457
 Alpha  occ. eigenvalues --  -38.43341 -38.43289  -2.20081  -2.19780  -2.19773
 Alpha  occ. eigenvalues --   -2.19560  -2.19351  -2.19267  -2.19150  -1.13758
 Alpha  occ. eigenvalues --   -1.13731  -1.13726  -1.13471  -1.13451  -1.13449
 Alpha  occ. eigenvalues --   -1.13429  -1.13418  -1.13394  -1.13249  -1.13228
 Alpha  occ. eigenvalues --   -1.13187  -1.13059  -1.12993  -1.12961  -1.12951
 Alpha  occ. eigenvalues --   -1.12907  -1.12885  -1.12821  -1.12809  -1.12764
 Alpha  occ. eigenvalues --   -0.18280  -0.12863  -0.12420  -0.10505
 Alpha virt. eigenvalues --   -0.05796  -0.05469  -0.04692  -0.03083  -0.02929
 Alpha virt. eigenvalues --   -0.02382  -0.01693  -0.01280  -0.00589  -0.00443
 Alpha virt. eigenvalues --   -0.00021   0.00339   0.00748   0.00814   0.00864

  Beta  occ. eigenvalues --  -38.44297 -38.43954 -38.43946 -38.43756 -38.43365
  Beta  occ. eigenvalues --  -38.43284 -38.43282  -2.20075  -2.19774  -2.19758
  Beta  occ. eigenvalues --   -2.19558  -2.19182  -2.19163  -2.19141  -1.13742
  Beta  occ. eigenvalues --   -1.13727  -1.13723  -1.13465  -1.13436  -1.13425
  Beta  occ. eigenvalues --   -1.13417  -1.13403  -1.13388  -1.13243  -1.13217
  Beta  occ. eigenvalues --   -1.13185  -1.12963  -1.12889  -1.12867  -1.12845
  Beta  occ. eigenvalues --   -1.12835  -1.12806  -1.12795  -1.12766  -1.12763
  Beta  occ. eigenvalues --   -0.17570  -0.12639  -0.12196
  Beta virt. eigenvalues --   -0.06668  -0.05740  -0.05450  -0.04605  -0.02367
  Beta virt. eigenvalues --   -0.02178  -0.01587  -0.01378  -0.01205  -0.00630
  Beta virt. eigenvalues --   -0.00475   0.00122   0.00373   0.00808   0.00818

 Mulliken charges and spin densities:
               1          2
     1  Na   0.135876  -0.032006
     2  Na  -0.276562   0.709595
     3  Na   0.204469  -0.041471
     4  Na  -0.034611  -0.059714
     5  Na   0.098134  -0.051189
     6  Na  -0.012218  -0.078056
     7  Na  -0.115087   0.552841
 Sum of Mulliken charges =  -0.00000   1.00000

 Dipole moment (field-independent basis, Debye):
    X=              0.0120    Y=              0.1615    Z=              0.0174  Tot=              0.1629
 Quadrupole moment (field-independent basis, Debye-Ang):
   XX=            -54.7385   YY=            -62.6685   ZZ=            -75.3185
   XY=             -0.1307   XZ=              0.3670   YZ=              2.1159

 Normal termination of Gaussian 16 at Fri Dec  8 02:23:03 2023.
