 Gaussian 16, Revision B.01,
 Gaussian 16:  ES64L-G16RevB.01 20-Dec-2017

 -------------------------
 #P B3LYP/6-311+g(d) force
 -------------------------

 -----
 DPGEN
 -----
 Symbolic Z-matrix:
 Charge =  0 Multiplicity = 2

                         Standard orientation:
 ---------------------------------------------------------------------
 Center     Atomic      Atomic             Coordinates (Angstroms)
 Number     Number       Type             X           Y           Z
 ---------------------------------------------------------------------
      1         11           0        1.965046   -2.728954    0.281307
      2         11           0        0.119780    0.017429    1.942888
      3         11           0       -3.295689   -1.783545    0.198335
      4         11           0       -2.047785    1.979174   -0.273528
      5         11           0        2.924475   -0.000155   -0.812433
      6         11           0       -0.780288   -0.386202   -1.674903
      7         11           0        1.114461    2.902254    0.338334
 ---------------------------------------------------------------------

 SCF Done:  E(UB3LYP) =  -1136.12863578     A.U. after   20 cycles

 The electronic state is 2-A.
 Alpha  occ. eigenvalues --  -38.44524 -38.44166 -38.44002 -38.43895 -38.43687
 Alpha  occ. eigenvalues --  -38.43621 -38.43238  -2.20284  -2.20040  -2.19819
 Alpha  occ. eigenvalues --   -2.19748  -2.19590  -2.19493  -2.19078  -1.13962
 Alpha  occ. eigenvalues --   -1.13943  -1.13922  -1.13799  -1.13699  -1.13639
 Alpha  occ. eigenvalues --   -1.13565  -1.13475  -1.13464  -1.13406  -1.13390
 Alpha  occ. eigenvalues --   -1.13349  -1.13274  -1.13238  -1.13186  -1.13165
 Alpha  occ. eigenvalues --   -1.13122  -1.13114  -1.12745  -1.12737  -1.12728
 Alpha  occ. eigenvalues --   -0.18126  -0.13211  -0.12150  -0.10564
 Alpha virt. eigenvalues --   -0.06181  -0.05421  -0.04484  -0.03417  -0.02849
 Alpha virt. eigenvalues --   -0.02486  -0.01833  -0.01316  -0.00604  -0.00280
 Alpha virt. eigenvalues --   -0.00010   0.00328   0.00684   0.00718   0.00796

  Beta  occ. eigenvalues --  -38.44528 -38.44154 -38.44001 -38.43874 -38.43633
  Beta  occ. eigenvalues --  -38.43532 -38.43234  -2.20293  -2.20024  -2.19819
  Beta  occ. eigenvalues --   -2.19711  -2.19492  -2.19329  -2.19074  -1.13966
  Beta  occ. eigenvalues --   -1.13941  -1.13929  -1.13777  -1.13666  -1.13633
  Beta  occ. eigenvalues --   -1.13560  -1.13466  -1.13458  -1.13374  -1.13358
  Beta  occ. eigenvalues --   -1.13333  -1.13211  -1.13161  -1.13113  -1.13055
  Beta  occ. eigenvalues --   -1.13007  -1.12994  -1.12741  -1.12730  -1.12709
  Beta  occ. eigenvalues --   -0.17407  -0.13006  -0.11983
  Beta virt. eigenvalues --   -0.06744  -0.06093  -0.05280  -0.04424  -0.02737
  Beta virt. eigenvalues --   -0.02189  -0.01749  -0.01499  -0.01202  -0.00604
  Beta virt. eigenvalues --   -0.00244   0.00110   0.00367   0.00728   0.00803

 Mulliken charges and spin densities:
               1          2
     1  Na  -0.052052  -0.037182
     2  Na  -0.173270   0.694157
     3  Na  -0.152353  -0.090307
     4  Na   0.110079  -0.047438
     5  Na   0.051473   0.119713
     6  Na   0.187709   0.320454
     7  Na   0.028414   0.040604
 Sum of Mulliken charges =  -0.00000   1.00000

 Dipole moment (field-independent basis, Debye):
    X=             -0.4711    Y=             -0.3735    Z=              0.0999  Tot=              0.6095
 Quadrupole moment (field-independent basis, Debye-Ang):
   XX=            -57.6582   YY=            -61.1865   ZZ=            -74.9936
   XY=              1.6077   XZ=             -2.0278   YZ=             -1.6352

 Normal termination of Gaussian 16 at Sun Dec  3 19:45:13 2023.
