 Gaussian 16, Revision B.01,
 Gaussian 16:  ES64L-G16RevB.01 20-Dec-2017

 -------------------------
 #P B3LYP/6-311+g(d) force
 -------------------------

 -----
 DPGEN
 -----
 Symbolic Z-matrix:
 Charge =  0 Multiplicity = 2

                         Standard orientation:
 ---------------------------------------------------------------------
 Center     Atomic      Atomic             Coordinates (Angstroms)
 Number     Number       Type             X           Y           Z
 ---------------------------------------------------------------------
      1         11           0        3.173009    0.299788    0.239315
      2         11           0        0.143166   -0.012282   -1.770653
      3         11           0       -2.729095    1.289750   -0.205117
      4         11           0        0.558816    2.675234   -0.070716
      5         11           0       -0.372677    0.084833    1.885728
      6         11           0       -2.222302   -2.013456    0.057067
      7         11           0        1.449084   -2.323867   -0.135623
 ---------------------------------------------------------------------

 SCF Done:  E(UB3LYP) =  -1136.13810864     A.U. after   19 cycles

 The electronic state is 2-A.
 Alpha  occ. eigenvalues --  -38.44180 -38.43934 -38.43506 -38.43420 -38.43261
 Alpha  occ. eigenvalues --  -38.43204 -38.42978  -2.20027  -2.19805  -2.19370
 Alpha  occ. eigenvalues --   -2.19368  -2.19254  -2.19108  -2.18867  -1.13711
 Alpha  occ. eigenvalues --   -1.13685  -1.13668  -1.13485  -1.13476  -1.13440
 Alpha  occ. eigenvalues --   -1.13085  -1.13043  -1.13030  -1.13009  -1.12991
 Alpha  occ. eigenvalues --   -1.12971  -1.12967  -1.12928  -1.12862  -1.12764
 Alpha  occ. eigenvalues --   -1.12758  -1.12726  -1.12551  -1.12534  -1.12482
 Alpha  occ. eigenvalues --   -0.19082  -0.13371  -0.12339  -0.10848
 Alpha virt. eigenvalues --   -0.05769  -0.05121  -0.04291  -0.03369  -0.02801
 Alpha virt. eigenvalues --   -0.02529  -0.01631  -0.01001  -0.00194  -0.00103
 Alpha virt. eigenvalues --   -0.00004   0.00363   0.00805   0.00918   0.00939

  Beta  occ. eigenvalues --  -38.44177 -38.43928 -38.43501 -38.43338 -38.43197
  Beta  occ. eigenvalues --  -38.43181 -38.42971  -2.20024  -2.19797  -2.19365
  Beta  occ. eigenvalues --   -2.19217  -2.19110  -2.19097  -2.18858  -1.13712
  Beta  occ. eigenvalues --   -1.13670  -1.13661  -1.13481  -1.13447  -1.13433
  Beta  occ. eigenvalues --   -1.13057  -1.13015  -1.13002  -1.12946  -1.12899
  Beta  occ. eigenvalues --   -1.12885  -1.12871  -1.12831  -1.12767  -1.12743
  Beta  occ. eigenvalues --   -1.12722  -1.12703  -1.12543  -1.12498  -1.12478
  Beta  occ. eigenvalues --   -0.18335  -0.13135  -0.12064
  Beta virt. eigenvalues --   -0.06923  -0.05710  -0.05132  -0.04289  -0.02555
  Beta virt. eigenvalues --   -0.01997  -0.01536  -0.01464  -0.00944  -0.00246
  Beta virt. eigenvalues --   -0.00148   0.00123   0.00381   0.00866   0.00906

 Mulliken charges and spin densities:
               1          2
     1  Na   0.005162  -0.029088
     2  Na  -0.348618   0.626197
     3  Na   0.243936  -0.081050
     4  Na   0.167522  -0.096164
     5  Na  -0.501424   0.742053
     6  Na   0.175336  -0.088671
     7  Na   0.258086  -0.073277
 Sum of Mulliken charges =  -0.00000   1.00000

 Dipole moment (field-independent basis, Debye):
    X=             -0.0460    Y=              0.0736    Z=              0.1001  Tot=              0.1325
 Quadrupole moment (field-independent basis, Debye-Ang):
   XX=            -54.4027   YY=            -65.3452   ZZ=            -73.7392
   XY=              0.4048   XZ=              1.4028   YZ=             -0.2027

 Normal termination of Gaussian 16 at Thu Dec  7 13:02:52 2023.
