 Gaussian 16, Revision B.01,
 Gaussian 16:  ES64L-G16RevB.01 20-Dec-2017

 -------------------------
 #P B3LYP/6-311+g(d) force
 -------------------------

 -----
 DPGEN
 -----
 Symbolic Z-matrix:
 Charge =  0 Multiplicity = 2

                         Standard orientation:
 ---------------------------------------------------------------------
 Center     Atomic      Atomic             Coordinates (Angstroms)
 Number     Number       Type             X           Y           Z
 ---------------------------------------------------------------------
      1         11           0       -2.516866   -2.141155    0.618116
      2         11           0       -1.008469    0.823544   -0.464128
      3         11           0        2.329830    1.353261   -0.140797
      4         11           0        1.274841   -1.964503    0.405326
      5         11           0        4.664486   -1.331317   -0.381865
      6         11           0       -0.125147    3.574175    0.558776
      7         11           0       -4.618674   -0.314004   -0.595429
 ---------------------------------------------------------------------

 SCF Done:  E(UB3LYP) =  -1136.12967999     A.U. after   18 cycles

 The electronic state is 2-A.
 Alpha  occ. eigenvalues --  -38.44103 -38.43922 -38.43829 -38.43819 -38.43750
 Alpha  occ. eigenvalues --  -38.43659 -38.43444  -2.19970  -2.19784  -2.19748
 Alpha  occ. eigenvalues --   -2.19665  -2.19605  -2.19471  -2.19292  -1.13696
 Alpha  occ. eigenvalues --   -1.13675  -1.13558  -1.13514  -1.13500  -1.13461
 Alpha  occ. eigenvalues --   -1.13447  -1.13428  -1.13397  -1.13311  -1.13305
 Alpha  occ. eigenvalues --   -1.13244  -1.13237  -1.13233  -1.13200  -1.13128
 Alpha  occ. eigenvalues --   -1.13126  -1.13086  -1.12984  -1.12977  -1.12880
 Alpha  occ. eigenvalues --   -0.17323  -0.14121  -0.12754  -0.10530
 Alpha virt. eigenvalues --   -0.05723  -0.05517  -0.04398  -0.04011  -0.02494
 Alpha virt. eigenvalues --   -0.02141  -0.01996  -0.01495  -0.01052  -0.00642
 Alpha virt. eigenvalues --   -0.00032  -0.00016   0.00451   0.00653   0.00716

  Beta  occ. eigenvalues --  -38.44097 -38.43908 -38.43823 -38.43817 -38.43681
  Beta  occ. eigenvalues --  -38.43609 -38.43399  -2.19960  -2.19766  -2.19730
  Beta  occ. eigenvalues --   -2.19672  -2.19475  -2.19377  -2.19213  -1.13683
  Beta  occ. eigenvalues --   -1.13665  -1.13547  -1.13493  -1.13480  -1.13451
  Beta  occ. eigenvalues --   -1.13414  -1.13385  -1.13385  -1.13315  -1.13309
  Beta  occ. eigenvalues --   -1.13242  -1.13148  -1.13145  -1.13124  -1.13061
  Beta  occ. eigenvalues --   -1.13059  -1.13029  -1.12932  -1.12929  -1.12792
  Beta  occ. eigenvalues --   -0.16787  -0.13599  -0.12456
  Beta virt. eigenvalues --   -0.06940  -0.05534  -0.05368  -0.03911  -0.03656
  Beta virt. eigenvalues --   -0.02327  -0.01889  -0.01694  -0.01092  -0.00915
  Beta virt. eigenvalues --   -0.00307   0.00101   0.00318   0.00611   0.00701

 Mulliken charges and spin densities:
               1          2
     1  Na   0.136757  -0.150532
     2  Na  -1.951565  -0.049545
     3  Na  -0.344580   0.201513
     4  Na  -0.505357   0.193269
     5  Na   1.118185   0.420143
     6  Na   1.044945   0.033456
     7  Na   0.501614   0.351696
 Sum of Mulliken charges =  -0.00000   1.00000

 Dipole moment (field-independent basis, Debye):
    X=             -0.0153    Y=              0.4808    Z=              0.3509  Tot=              0.5954
 Quadrupole moment (field-independent basis, Debye-Ang):
   XX=            -65.1968   YY=            -61.0883   ZZ=            -70.3243
   XY=             -1.3105   XZ=             -0.6724   YZ=              0.4177

 Normal termination of Gaussian 16 at Wed Nov 29 01:11:41 2023.
