 Gaussian 16, Revision B.01,
 Gaussian 16:  ES64L-G16RevB.01 20-Dec-2017

 -------------------------
 #P B3LYP/6-311+g(d) force
 -------------------------

 -----
 DPGEN
 -----
 Symbolic Z-matrix:
 Charge =  0 Multiplicity = 2

                         Standard orientation:
 ---------------------------------------------------------------------
 Center     Atomic      Atomic             Coordinates (Angstroms)
 Number     Number       Type             X           Y           Z
 ---------------------------------------------------------------------
      1         11           0       -0.423345   -0.995178   -1.249637
      2         11           0        0.414436    2.930037   -0.613570
      3         11           0        2.326965   -2.568916    0.778478
      4         11           0       -2.396480    0.800610    0.813347
      5         11           0        0.799205    0.912152    1.696410
      6         11           0        3.173558    0.188312   -0.996391
      7         11           0       -3.894339   -1.267016   -0.428637
 ---------------------------------------------------------------------

 SCF Done:  E(UB3LYP) =  -1136.12479319     A.U. after   21 cycles

 The electronic state is 2-A.
 Alpha  occ. eigenvalues --  -38.44613 -38.44481 -38.44274 -38.43777 -38.43612
 Alpha  occ. eigenvalues --  -38.43200 -38.43137  -2.20450  -2.20309  -2.20133
 Alpha  occ. eigenvalues --   -2.19726  -2.19423  -2.19075  -2.19046  -1.14169
 Alpha  occ. eigenvalues --   -1.14125  -1.14052  -1.13989  -1.13961  -1.13941
 Alpha  occ. eigenvalues --   -1.13928  -1.13763  -1.13749  -1.13408  -1.13371
 Alpha  occ. eigenvalues --   -1.13312  -1.13089  -1.13075  -1.13058  -1.12827
 Alpha  occ. eigenvalues --   -1.12765  -1.12710  -1.12695  -1.12676  -1.12617
 Alpha  occ. eigenvalues --   -0.18150  -0.13956  -0.11979  -0.10389
 Alpha virt. eigenvalues --   -0.06557  -0.05040  -0.04772  -0.03266  -0.02877
 Alpha virt. eigenvalues --   -0.02426  -0.01943  -0.01176  -0.00768  -0.00301
 Alpha virt. eigenvalues --    0.00055   0.00222   0.00415   0.00720   0.00793

  Beta  occ. eigenvalues --  -38.44589 -38.44449 -38.44272 -38.43759 -38.43589
  Beta  occ. eigenvalues --  -38.43189 -38.43082  -2.20407  -2.20250  -2.20131
  Beta  occ. eigenvalues --   -2.19696  -2.19381  -2.19029  -2.18975  -1.14133
  Beta  occ. eigenvalues --   -1.14085  -1.14023  -1.13943  -1.13938  -1.13924
  Beta  occ. eigenvalues --   -1.13877  -1.13759  -1.13743  -1.13386  -1.13339
  Beta  occ. eigenvalues --   -1.13288  -1.13062  -1.13035  -1.13031  -1.12792
  Beta  occ. eigenvalues --   -1.12708  -1.12681  -1.12648  -1.12621  -1.12562
  Beta  occ. eigenvalues --   -0.17519  -0.13736  -0.11764
  Beta virt. eigenvalues --   -0.06701  -0.06385  -0.04872  -0.04392  -0.02913
  Beta virt. eigenvalues --   -0.02364  -0.02241  -0.01252  -0.01042  -0.00616
  Beta virt. eigenvalues --   -0.00042   0.00134   0.00279   0.00525   0.00827

 Mulliken charges and spin densities:
               1          2
     1  Na  -0.806026   0.288624
     2  Na  -0.062181   0.180136
     3  Na   0.175893  -0.004510
     4  Na  -0.216506  -0.114005
     5  Na  -0.070021   0.404776
     6  Na   0.394446   0.215983
     7  Na   0.584396   0.028997
 Sum of Mulliken charges =  -0.00000   1.00000

 Dipole moment (field-independent basis, Debye):
    X=             -0.2099    Y=             -0.2798    Z=             -0.2703  Tot=              0.4421
 Quadrupole moment (field-independent basis, Debye-Ang):
   XX=            -54.7428   YY=            -66.8278   ZZ=            -72.8510
   XY=              1.4114   XZ=             -0.0446   YZ=             -1.7723

 Normal termination of Gaussian 16 at Thu Dec  7 12:07:56 2023.
