 Gaussian 16, Revision B.01,
 Gaussian 16:  ES64L-G16RevB.01 20-Dec-2017

 -------------------------
 #P B3LYP/6-311+g(d) force
 -------------------------

 -----
 DPGEN
 -----
 Symbolic Z-matrix:
 Charge =  0 Multiplicity = 2

                         Standard orientation:
 ---------------------------------------------------------------------
 Center     Atomic      Atomic             Coordinates (Angstroms)
 Number     Number       Type             X           Y           Z
 ---------------------------------------------------------------------
      1         11           0        1.077832   -2.681067    0.223739
      2         11           0       -0.162453    0.072430   -1.665122
      3         11           0        3.297327    0.153772   -0.069935
      4         11           0        0.636578    2.863285   -0.407586
      5         11           0       -2.565167    1.594134    0.600742
      6         11           0        0.118243   -0.059459    1.859119
      7         11           0       -2.402360   -1.943095   -0.540958
 ---------------------------------------------------------------------

 SCF Done:  E(UB3LYP) =  -1136.13864215     A.U. after   18 cycles

 The electronic state is 2-A.
 Alpha  occ. eigenvalues --  -38.44091 -38.43724 -38.43583 -38.43472 -38.43463
 Alpha  occ. eigenvalues --  -38.43446 -38.43188  -2.19884  -2.19565  -2.19424
 Alpha  occ. eigenvalues --   -2.19396  -2.19331  -2.19298  -2.19168  -1.13565
 Alpha  occ. eigenvalues --   -1.13537  -1.13527  -1.13256  -1.13219  -1.13201
 Alpha  occ. eigenvalues --   -1.13136  -1.13115  -1.13067  -1.13060  -1.13056
 Alpha  occ. eigenvalues --   -1.13033  -1.13008  -1.12999  -1.12971  -1.12950
 Alpha  occ. eigenvalues --   -1.12938  -1.12912  -1.12839  -1.12785  -1.12778
 Alpha  occ. eigenvalues --   -0.18631  -0.12801  -0.12579  -0.10790
 Alpha virt. eigenvalues --   -0.05573  -0.05002  -0.04801  -0.03144  -0.02963
 Alpha virt. eigenvalues --   -0.02459  -0.01563  -0.01184  -0.00380  -0.00264
 Alpha virt. eigenvalues --    0.00030   0.00345   0.00830   0.00875   0.00886

  Beta  occ. eigenvalues --  -38.44092 -38.43706 -38.43569 -38.43466 -38.43436
  Beta  occ. eigenvalues --  -38.43382 -38.43120  -2.19889  -2.19536  -2.19401
  Beta  occ. eigenvalues --   -2.19323  -2.19283  -2.19248  -2.19045  -1.13561
  Beta  occ. eigenvalues --   -1.13541  -1.13524  -1.13224  -1.13188  -1.13183
  Beta  occ. eigenvalues --   -1.13106  -1.13065  -1.13042  -1.13039  -1.13011
  Beta  occ. eigenvalues --   -1.12984  -1.12964  -1.12935  -1.12934  -1.12908
  Beta  occ. eigenvalues --   -1.12899  -1.12883  -1.12755  -1.12702  -1.12690
  Beta  occ. eigenvalues --   -0.17929  -0.12552  -0.12283
  Beta virt. eigenvalues --   -0.06922  -0.05542  -0.04947  -0.04748  -0.02404
  Beta virt. eigenvalues --   -0.02229  -0.01509  -0.01402  -0.01077  -0.00384
  Beta virt. eigenvalues --   -0.00290   0.00131   0.00373   0.00855   0.00887

 Mulliken charges and spin densities:
               1          2
     1  Na   0.086783  -0.058858
     2  Na  -0.066309   0.554765
     3  Na  -0.120552  -0.106582
     4  Na   0.037976  -0.057599
     5  Na   0.057558   0.067865
     6  Na  -0.077312   0.603611
     7  Na   0.081857  -0.003201
 Sum of Mulliken charges =  -0.00000   1.00000

 Dipole moment (field-independent basis, Debye):
    X=              0.1502    Y=              0.0221    Z=              0.0955  Tot=              0.1793
 Quadrupole moment (field-independent basis, Debye-Ang):
   XX=            -56.2960   YY=            -61.9789   ZZ=            -74.3903
   XY=              0.1359   XZ=             -0.7278   YZ=              0.4435

 Normal termination of Gaussian 16 at Wed Dec  6 01:08:43 2023.
