 Gaussian 16, Revision B.01,
 Gaussian 16:  ES64L-G16RevB.01 20-Dec-2017

 -------------------------
 #P B3LYP/6-311+g(d) force
 -------------------------

 -----
 DPGEN
 -----
 Symbolic Z-matrix:
 Charge =  0 Multiplicity = 2

                         Standard orientation:
 ---------------------------------------------------------------------
 Center     Atomic      Atomic             Coordinates (Angstroms)
 Number     Number       Type             X           Y           Z
 ---------------------------------------------------------------------
      1         11           0        1.338370   -2.117059   -0.888010
      2         11           0        3.594256    0.259389    0.106463
      3         11           0       -1.280002   -0.105121   -1.382358
      4         11           0       -2.572074    2.664090   -0.059428
      5         11           0       -2.138700   -2.761525    0.321880
      6         11           0        1.155568    2.325174   -0.193779
      7         11           0       -0.097418   -0.264949    2.095232
 ---------------------------------------------------------------------

 SCF Done:  E(UB3LYP) =  -1136.13205204     A.U. after   19 cycles

 The electronic state is 2-A.
 Alpha  occ. eigenvalues --  -38.44236 -38.43930 -38.43910 -38.43869 -38.43860
 Alpha  occ. eigenvalues --  -38.43834 -38.43144  -2.20048  -2.19750  -2.19719
 Alpha  occ. eigenvalues --   -2.19717  -2.19706  -2.19657  -2.19082  -1.13733
 Alpha  occ. eigenvalues --   -1.13702  -1.13682  -1.13454  -1.13437  -1.13423
 Alpha  occ. eigenvalues --   -1.13415  -1.13396  -1.13393  -1.13376  -1.13368
 Alpha  occ. eigenvalues --   -1.13348  -1.13345  -1.13336  -1.13315  -1.13306
 Alpha  occ. eigenvalues --   -1.13285  -1.13269  -1.12779  -1.12748  -1.12679
 Alpha  occ. eigenvalues --   -0.18088  -0.12950  -0.12526  -0.10523
 Alpha virt. eigenvalues --   -0.05903  -0.05723  -0.04561  -0.03149  -0.02769
 Alpha virt. eigenvalues --   -0.02491  -0.01744  -0.01697  -0.00475  -0.00330
 Alpha virt. eigenvalues --   -0.00035   0.00257   0.00726   0.00760   0.00818

  Beta  occ. eigenvalues --  -38.44232 -38.43930 -38.43905 -38.43838 -38.43836
  Beta  occ. eigenvalues --  -38.43759 -38.43104  -2.20044  -2.19743  -2.19719
  Beta  occ. eigenvalues --   -2.19664  -2.19661  -2.19520  -2.19010  -1.13732
  Beta  occ. eigenvalues --   -1.13684  -1.13675  -1.13451  -1.13417  -1.13409
  Beta  occ. eigenvalues --   -1.13396  -1.13383  -1.13371  -1.13352  -1.13348
  Beta  occ. eigenvalues --   -1.13321  -1.13302  -1.13276  -1.13258  -1.13246
  Beta  occ. eigenvalues --   -1.13209  -1.13180  -1.12731  -1.12687  -1.12626
  Beta  occ. eigenvalues --   -0.17395  -0.12787  -0.12321
  Beta virt. eigenvalues --   -0.06650  -0.05793  -0.05584  -0.04512  -0.02458
  Beta virt. eigenvalues --   -0.02183  -0.01704  -0.01627  -0.01423  -0.00419
  Beta virt. eigenvalues --   -0.00304   0.00132   0.00315   0.00739   0.00838

 Mulliken charges and spin densities:
               1          2
     1  Na  -0.247717   0.137948
     2  Na   0.263010  -0.005469
     3  Na   0.395708   0.210969
     4  Na   0.129414  -0.010649
     5  Na  -0.006408  -0.002631
     6  Na  -0.290485   0.011034
     7  Na  -0.243521   0.658798
 Sum of Mulliken charges =  -0.00000   1.00000

 Dipole moment (field-independent basis, Debye):
    X=             -0.2881    Y=             -0.2029    Z=              0.2855  Tot=              0.4536
 Quadrupole moment (field-independent basis, Debye-Ang):
   XX=            -56.2924   YY=            -61.1513   ZZ=            -75.5077
   XY=              0.9847   XZ=             -1.1666   YZ=              0.3890

 Normal termination of Gaussian 16 at Thu Dec  7 15:10:30 2023.
