 Gaussian 16, Revision B.01,
 Gaussian 16:  ES64L-G16RevB.01 20-Dec-2017

 -------------------------
 #P B3LYP/6-311+g(d) force
 -------------------------

 -----
 DPGEN
 -----
 Symbolic Z-matrix:
 Charge =  0 Multiplicity = 2

                         Standard orientation:
 ---------------------------------------------------------------------
 Center     Atomic      Atomic             Coordinates (Angstroms)
 Number     Number       Type             X           Y           Z
 ---------------------------------------------------------------------
      1         11           0       -0.088443   -0.850598   -1.186972
      2         11           0       -2.284257    2.286783   -0.253915
      3         11           0        2.350431   -1.789396    0.912851
      4         11           0       -1.136041   -0.610359    1.949510
      5         11           0        3.565252    0.267319   -1.270969
      6         11           0        1.189485    2.133718    0.705024
      7         11           0       -3.596427   -1.437467   -0.855530
 ---------------------------------------------------------------------

 SCF Done:  E(UB3LYP) =  -1136.12735040     A.U. after   22 cycles

 The electronic state is 2-A.
 Alpha  occ. eigenvalues --  -38.44388 -38.44253 -38.44161 -38.44074 -38.44015
 Alpha  occ. eigenvalues --  -38.43842 -38.42861  -2.20228  -2.20128  -2.20022
 Alpha  occ. eigenvalues --   -2.19928  -2.19805  -2.19625  -2.18683  -1.13899
 Alpha  occ. eigenvalues --   -1.13880  -1.13871  -1.13862  -1.13793  -1.13746
 Alpha  occ. eigenvalues --   -1.13703  -1.13643  -1.13634  -1.13594  -1.13579
 Alpha  occ. eigenvalues --   -1.13559  -1.13475  -1.13455  -1.13428  -1.13316
 Alpha  occ. eigenvalues --   -1.13279  -1.13252  -1.12372  -1.12363  -1.12302
 Alpha  occ. eigenvalues --   -0.18061  -0.13909  -0.11143  -0.10936
 Alpha virt. eigenvalues --   -0.06301  -0.05662  -0.04822  -0.03105  -0.02628
 Alpha virt. eigenvalues --   -0.02384  -0.02257  -0.01150  -0.00952  -0.00377
 Alpha virt. eigenvalues --    0.00129   0.00227   0.00323   0.00562   0.00573

  Beta  occ. eigenvalues --  -38.44345 -38.44243 -38.44091 -38.44053 -38.43985
  Beta  occ. eigenvalues --  -38.43839 -38.42856  -2.20147  -2.20113  -2.19896
  Beta  occ. eigenvalues --   -2.19891  -2.19751  -2.19620  -2.18676  -1.13847
  Beta  occ. eigenvalues --   -1.13839  -1.13817  -1.13807  -1.13783  -1.13734
  Beta  occ. eigenvalues --   -1.13622  -1.13575  -1.13556  -1.13547  -1.13538
  Beta  occ. eigenvalues --   -1.13502  -1.13434  -1.13415  -1.13396  -1.13309
  Beta  occ. eigenvalues --   -1.13278  -1.13243  -1.12371  -1.12338  -1.12298
  Beta  occ. eigenvalues --   -0.17396  -0.13556  -0.10933
  Beta virt. eigenvalues --   -0.07286  -0.06043  -0.05541  -0.04249  -0.02975
  Beta virt. eigenvalues --   -0.02281  -0.01914  -0.01568  -0.01115  -0.00544
  Beta virt. eigenvalues --   -0.00241   0.00184   0.00268   0.00444   0.00653

 Mulliken charges and spin densities:
               1          2
     1  Na  -0.931150   0.121305
     2  Na  -0.052032  -0.003433
     3  Na   0.229652   0.170893
     4  Na   0.127387   0.324435
     5  Na   0.686745   0.128918
     6  Na  -0.431201   0.039602
     7  Na   0.370598   0.218278
 Sum of Mulliken charges =  -0.00000   1.00000

 Dipole moment (field-independent basis, Debye):
    X=              0.0826    Y=             -0.2635    Z=              0.1041  Tot=              0.2951
 Quadrupole moment (field-independent basis, Debye-Ang):
   XX=            -51.5421   YY=            -75.5643   ZZ=            -67.6360
   XY=             -1.2248   XZ=             -0.6234   YZ=             -2.5898

 Normal termination of Gaussian 16 at Thu Dec  7 05:13:39 2023.
