 Gaussian 16, Revision B.01,
 Gaussian 16:  ES64L-G16RevB.01 20-Dec-2017

 -------------------------
 #P B3LYP/6-311+g(d) force
 -------------------------

 -----
 DPGEN
 -----
 Symbolic Z-matrix:
 Charge =  0 Multiplicity = 2

                         Standard orientation:
 ---------------------------------------------------------------------
 Center     Atomic      Atomic             Coordinates (Angstroms)
 Number     Number       Type             X           Y           Z
 ---------------------------------------------------------------------
      1         11           0       -0.137800   -1.323822   -0.645058
      2         11           0       -0.038631   -0.490799    2.165843
      3         11           0       -2.922804   -1.140229   -0.444725
      4         11           0       -1.522740    1.475123    0.520289
      5         11           0        0.087606    1.400002   -1.747581
      6         11           0        1.629605    1.287724    0.626583
      7         11           0        2.904763   -1.207999   -0.475351
 ---------------------------------------------------------------------

 SCF Done:  E(UB3LYP) =  -1136.09687408     A.U. after   22 cycles

 The electronic state is 2-A.
 Alpha  occ. eigenvalues --  -38.44922 -38.44117 -38.43993 -38.43726 -38.43276
 Alpha  occ. eigenvalues --  -38.43082 -38.43025  -2.20966  -2.20040  -2.19894
 Alpha  occ. eigenvalues --   -2.19806  -2.19426  -2.19243  -2.19220  -1.14734
 Alpha  occ. eigenvalues --   -1.14585  -1.14554  -1.13843  -1.13696  -1.13673
 Alpha  occ. eigenvalues --   -1.13634  -1.13609  -1.13587  -1.13503  -1.13483
 Alpha  occ. eigenvalues --   -1.13464  -1.13148  -1.13033  -1.12981  -1.12937
 Alpha  occ. eigenvalues --   -1.12899  -1.12866  -1.12849  -1.12819  -1.12764
 Alpha  occ. eigenvalues --   -0.20761  -0.13789  -0.12691  -0.11630
 Alpha virt. eigenvalues --   -0.05667  -0.04495  -0.03791  -0.03659  -0.02970
 Alpha virt. eigenvalues --   -0.02724  -0.01613  -0.00602  -0.00302   0.00298
 Alpha virt. eigenvalues --    0.00559   0.00640   0.00934   0.00969   0.00992

  Beta  occ. eigenvalues --  -38.44817 -38.44110 -38.43986 -38.43675 -38.43250
  Beta  occ. eigenvalues --  -38.43059 -38.42988  -2.20778  -2.20029  -2.19882
  Beta  occ. eigenvalues --   -2.19714  -2.19387  -2.19187  -2.19180  -1.14608
  Beta  occ. eigenvalues --   -1.14440  -1.14421  -1.13829  -1.13690  -1.13630
  Beta  occ. eigenvalues --   -1.13614  -1.13601  -1.13572  -1.13484  -1.13420
  Beta  occ. eigenvalues --   -1.13384  -1.13094  -1.12973  -1.12959  -1.12895
  Beta  occ. eigenvalues --   -1.12845  -1.12795  -1.12790  -1.12783  -1.12747
  Beta  occ. eigenvalues --   -0.19845  -0.13519  -0.11463
  Beta virt. eigenvalues --   -0.08331  -0.05591  -0.04260  -0.03248  -0.03028
  Beta virt. eigenvalues --   -0.02413  -0.01885  -0.01535  -0.00501  -0.00129
  Beta virt. eigenvalues --    0.00325   0.00597   0.00674   0.01008   0.01022

 Mulliken charges and spin densities:
               1          2
     1  Na  -0.247790   0.212629
     2  Na  -0.562874   0.541537
     3  Na   0.152241  -0.037743
     4  Na   0.516530  -0.040650
     5  Na  -0.386112   0.455428
     6  Na   0.519758  -0.087311
     7  Na   0.008246  -0.043889
 Sum of Mulliken charges =  -0.00000   1.00000

 Dipole moment (field-independent basis, Debye):
    X=              0.0186    Y=             -0.1741    Z=              0.0250  Tot=              0.1768
 Quadrupole moment (field-independent basis, Debye-Ang):
   XX=            -55.2434   YY=            -75.9506   ZZ=            -63.8240
   XY=             -0.4313   XZ=             -0.3503   YZ=              1.5804

 Normal termination of Gaussian 16 at Thu Dec  7 08:56:10 2023.
