 Gaussian 16, Revision B.01,
 Gaussian 16:  ES64L-G16RevB.01 20-Dec-2017

 -------------------------
 #P B3LYP/6-311+g(d) force
 -------------------------

 -----
 DPGEN
 -----
 Symbolic Z-matrix:
 Charge =  0 Multiplicity = 2

                         Standard orientation:
 ---------------------------------------------------------------------
 Center     Atomic      Atomic             Coordinates (Angstroms)
 Number     Number       Type             X           Y           Z
 ---------------------------------------------------------------------
      1         11           0       -0.368462   -1.506412    0.226535
      2         11           0        1.178107    1.828821   -1.024416
      3         11           0       -4.077151   -1.323535   -0.182881
      4         11           0        2.961105   -1.068686   -1.602781
      5         11           0        2.349446   -0.780655    1.460578
      6         11           0        0.189021    1.344510    1.803196
      7         11           0       -2.232066    1.505958   -0.680231
 ---------------------------------------------------------------------

 SCF Done:  E(UB3LYP) =  -1136.12299168     A.U. after   23 cycles

 The electronic state is 2-A.
 Alpha  occ. eigenvalues --  -38.44101 -38.44077 -38.44071 -38.43830 -38.43744
 Alpha  occ. eigenvalues --  -38.43388 -38.43371  -2.20065  -2.20000  -2.19939
 Alpha  occ. eigenvalues --   -2.19612  -2.19610  -2.19384  -2.19307  -1.13849
 Alpha  occ. eigenvalues --   -1.13753  -1.13715  -1.13686  -1.13681  -1.13592
 Alpha  occ. eigenvalues --   -1.13580  -1.13557  -1.13530  -1.13315  -1.13300
 Alpha  occ. eigenvalues --   -1.13289  -1.13277  -1.13251  -1.13188  -1.13133
 Alpha  occ. eigenvalues --   -1.13040  -1.13012  -1.12973  -1.12924  -1.12873
 Alpha  occ. eigenvalues --   -0.19032  -0.13779  -0.11957  -0.11431
 Alpha virt. eigenvalues --   -0.06349  -0.05122  -0.04324  -0.03305  -0.02875
 Alpha virt. eigenvalues --   -0.02526  -0.02161  -0.01017  -0.00706   0.00001
 Alpha virt. eigenvalues --    0.00171   0.00311   0.00354   0.00682   0.00828

  Beta  occ. eigenvalues --  -38.44078 -38.44033 -38.44019 -38.43836 -38.43732
  Beta  occ. eigenvalues --  -38.43340 -38.43326  -2.19991  -2.19961  -2.19842
  Beta  occ. eigenvalues --   -2.19621  -2.19589  -2.19301  -2.19224  -1.13791
  Beta  occ. eigenvalues --   -1.13677  -1.13671  -1.13655  -1.13627  -1.13533
  Beta  occ. eigenvalues --   -1.13517  -1.13506  -1.13467  -1.13300  -1.13294
  Beta  occ. eigenvalues --   -1.13286  -1.13278  -1.13255  -1.13176  -1.13085
  Beta  occ. eigenvalues --   -1.12978  -1.12933  -1.12914  -1.12867  -1.12801
  Beta  occ. eigenvalues --   -0.18230  -0.13571  -0.11341
  Beta virt. eigenvalues --   -0.07751  -0.06123  -0.04952  -0.03792  -0.03044
  Beta virt. eigenvalues --   -0.02223  -0.02130  -0.01776  -0.00914  -0.00297
  Beta virt. eigenvalues --    0.00054   0.00222   0.00340   0.00544   0.00775

 Mulliken charges and spin densities:
               1          2
     1  Na  -1.273981   0.311274
     2  Na  -0.810400   0.436582
     3  Na  -0.001366  -0.009386
     4  Na   0.391366   0.156635
     5  Na   0.928524  -0.028186
     6  Na   0.563487   0.165424
     7  Na   0.202370  -0.032344
 Sum of Mulliken charges =  -0.00000   1.00000

 Dipole moment (field-independent basis, Debye):
    X=              0.1717    Y=              0.2343    Z=              0.0168  Tot=              0.2909
 Quadrupole moment (field-independent basis, Debye-Ang):
   XX=            -56.5758   YY=            -73.4009   ZZ=            -66.2559
   XY=             -0.8044   XZ=             -0.0467   YZ=             -0.4959

 Normal termination of Gaussian 16 at Tue Dec  5 12:40:19 2023.
