 Gaussian 16, Revision B.01,
 Gaussian 16:  ES64L-G16RevB.01 20-Dec-2017

 -------------------------
 #P B3LYP/6-311+g(d) force
 -------------------------

 -----
 DPGEN
 -----
 Symbolic Z-matrix:
 Charge =  0 Multiplicity = 2

                         Standard orientation:
 ---------------------------------------------------------------------
 Center     Atomic      Atomic             Coordinates (Angstroms)
 Number     Number       Type             X           Y           Z
 ---------------------------------------------------------------------
      1         11           0       -0.267610   -0.167523   -1.381827
      2         11           0       -3.364719    0.408984   -1.379012
      3         11           0       -1.797738   -2.089879    0.761238
      4         11           0       -1.690213    1.417522    1.410378
      5         11           0        3.321426   -1.145879   -1.199657
      6         11           0        1.596828   -0.502314    2.002687
      7         11           0        2.202026    2.079090   -0.213807
 ---------------------------------------------------------------------

 SCF Done:  E(UB3LYP) =  -1136.12324629     A.U. after   27 cycles

 The electronic state is 2-A.
 Alpha  occ. eigenvalues --  -38.44836 -38.44437 -38.44297 -38.43851 -38.43742
 Alpha  occ. eigenvalues --  -38.43341 -38.43058  -2.20665  -2.20293  -2.20097
 Alpha  occ. eigenvalues --   -2.19704  -2.19604  -2.19277  -2.18883  -1.14348
 Alpha  occ. eigenvalues --   -1.14315  -1.14271  -1.13995  -1.13927  -1.13885
 Alpha  occ. eigenvalues --   -1.13763  -1.13755  -1.13721  -1.13399  -1.13361
 Alpha  occ. eigenvalues --   -1.13334  -1.13291  -1.13254  -1.13233  -1.13002
 Alpha  occ. eigenvalues --   -1.12946  -1.12876  -1.12566  -1.12562  -1.12508
 Alpha  occ. eigenvalues --   -0.18332  -0.14159  -0.11290  -0.10558
 Alpha virt. eigenvalues --   -0.06353  -0.05594  -0.05074  -0.03123  -0.02576
 Alpha virt. eigenvalues --   -0.02287  -0.02087  -0.01127  -0.00909  -0.00280
 Alpha virt. eigenvalues --    0.00163   0.00231   0.00332   0.00435   0.00622

  Beta  occ. eigenvalues --  -38.44794 -38.44375 -38.44277 -38.43822 -38.43736
  Beta  occ. eigenvalues --  -38.43325 -38.43054  -2.20587  -2.20178  -2.20060
  Beta  occ. eigenvalues --   -2.19651  -2.19594  -2.19255  -2.18879  -1.14291
  Beta  occ. eigenvalues --   -1.14266  -1.14208  -1.13911  -1.13850  -1.13804
  Beta  occ. eigenvalues --   -1.13731  -1.13729  -1.13699  -1.13365  -1.13319
  Beta  occ. eigenvalues --   -1.13295  -1.13284  -1.13229  -1.13226  -1.12941
  Beta  occ. eigenvalues --   -1.12933  -1.12867  -1.12566  -1.12534  -1.12510
  Beta  occ. eigenvalues --   -0.17622  -0.13947  -0.10387
  Beta virt. eigenvalues --   -0.07609  -0.05930  -0.05074  -0.04881  -0.02763
  Beta virt. eigenvalues --   -0.02201  -0.01852  -0.01781  -0.00861  -0.00522
  Beta virt. eigenvalues --   -0.00106   0.00269   0.00352   0.00429   0.00512

 Mulliken charges and spin densities:
               1          2
     1  Na  -0.957496   0.642588
     2  Na   0.886222  -0.102017
     3  Na  -0.204919   0.002723
     4  Na  -0.117918   0.235982
     5  Na   0.234259  -0.004989
     6  Na   0.056673   0.241209
     7  Na   0.103179  -0.015495
 Sum of Mulliken charges =  -0.00000   1.00000

 Dipole moment (field-independent basis, Debye):
    X=              0.0744    Y=              0.0890    Z=              0.2707  Tot=              0.2945
 Quadrupole moment (field-independent basis, Debye-Ang):
   XX=            -51.7096   YY=            -62.7337   ZZ=            -79.8289
   XY=             -0.2619   XZ=             -0.4336   YZ=              0.0311

 Normal termination of Gaussian 16 at Tue Dec  5 21:13:07 2023.
