 Gaussian 16, Revision B.01,
 Gaussian 16:  ES64L-G16RevB.01 20-Dec-2017

 -------------------------
 #P B3LYP/6-311+g(d) force
 -------------------------

 -----
 DPGEN
 -----
 Symbolic Z-matrix:
 Charge =  0 Multiplicity = 2

                         Standard orientation:
 ---------------------------------------------------------------------
 Center     Atomic      Atomic             Coordinates (Angstroms)
 Number     Number       Type             X           Y           Z
 ---------------------------------------------------------------------
      1         11           0        1.470201   -2.669238   -0.265196
      2         11           0        0.096272    0.126085    0.169448
      3         11           0        3.795601   -0.280841    0.637598
      4         11           0        2.188529    2.404626   -0.587330
      5         11           0       -1.702860    2.857756    0.009404
      6         11           0       -3.886487    0.104090    0.350260
      7         11           0       -1.961256   -2.542478   -0.314184
 ---------------------------------------------------------------------

 SCF Done:  E(UB3LYP) =  -1136.12775989     A.U. after   24 cycles

 The electronic state is 2-A.
 Alpha  occ. eigenvalues --  -38.44673 -38.44237 -38.44081 -38.43889 -38.43427
 Alpha  occ. eigenvalues --  -38.43281 -38.43279  -2.20500  -2.20049  -2.19927
 Alpha  occ. eigenvalues --   -2.19759  -2.19290  -2.19277  -2.19127  -1.14203
 Alpha  occ. eigenvalues --   -1.14176  -1.14116  -1.13738  -1.13722  -1.13669
 Alpha  occ. eigenvalues --   -1.13610  -1.13603  -1.13574  -1.13465  -1.13421
 Alpha  occ. eigenvalues --   -1.13374  -1.12987  -1.12940  -1.12937  -1.12924
 Alpha  occ. eigenvalues --   -1.12912  -1.12898  -1.12779  -1.12777  -1.12744
 Alpha  occ. eigenvalues --   -0.17653  -0.14126  -0.13121  -0.09848
 Alpha virt. eigenvalues --   -0.06749  -0.05254  -0.04443  -0.03511  -0.02720
 Alpha virt. eigenvalues --   -0.02247  -0.01846  -0.01518  -0.01016  -0.00448
 Alpha virt. eigenvalues --    0.00081   0.00261   0.00563   0.00658   0.00703

  Beta  occ. eigenvalues --  -38.44666 -38.44227 -38.44070 -38.43870 -38.43358
  Beta  occ. eigenvalues --  -38.43266 -38.43206  -2.20492  -2.20035  -2.19913
  Beta  occ. eigenvalues --   -2.19730  -2.19249  -2.19159  -2.18991  -1.14203
  Beta  occ. eigenvalues --   -1.14175  -1.14070  -1.13732  -1.13716  -1.13634
  Beta  occ. eigenvalues --   -1.13608  -1.13599  -1.13514  -1.13447  -1.13404
  Beta  occ. eigenvalues --   -1.13327  -1.12964  -1.12917  -1.12884  -1.12850
  Beta  occ. eigenvalues --   -1.12846  -1.12825  -1.12686  -1.12684  -1.12655
  Beta  occ. eigenvalues --   -0.17259  -0.13417  -0.12598
  Beta virt. eigenvalues --   -0.06740  -0.06490  -0.05143  -0.04249  -0.02728
  Beta virt. eigenvalues --   -0.02188  -0.01991  -0.01706  -0.01366  -0.00888
  Beta virt. eigenvalues --   -0.00137   0.00279   0.00493   0.00602   0.00759

 Mulliken charges and spin densities:
               1          2
     1  Na   1.524053   0.074629
     2  Na  -5.552035  -0.345559
     3  Na   1.105252   0.556816
     4  Na   1.232751   0.116971
     5  Na   0.934967   0.054954
     6  Na   0.248348   0.481659
     7  Na   0.506663   0.060531
 Sum of Mulliken charges =  -0.00000   1.00000

 Dipole moment (field-independent basis, Debye):
    X=              0.3772    Y=              0.3142    Z=             -0.4920  Tot=              0.6950
 Quadrupole moment (field-independent basis, Debye-Ang):
   XX=            -70.6283   YY=            -57.3542   ZZ=            -71.0048
   XY=             -0.9661   XZ=             -0.7847   YZ=             -0.4619

 Normal termination of Gaussian 16 at Fri Dec  8 18:38:21 2023.
