 Gaussian 16, Revision B.01,
 Gaussian 16:  ES64L-G16RevB.01 20-Dec-2017

 -------------------------
 #P B3LYP/6-311+g(d) force
 -------------------------

 -----
 DPGEN
 -----
 Symbolic Z-matrix:
 Charge =  0 Multiplicity = 2

                         Standard orientation:
 ---------------------------------------------------------------------
 Center     Atomic      Atomic             Coordinates (Angstroms)
 Number     Number       Type             X           Y           Z
 ---------------------------------------------------------------------
      1         11           0       -2.723341    1.819683    0.015279
      2         11           0       -0.043591   -0.354385   -1.672826
      3         11           0        0.767776   -3.029879    0.105663
      4         11           0       -2.527091   -1.551225   -0.061769
      5         11           0        1.369911    2.976530   -0.422134
      6         11           0        2.964344   -0.273404   -0.029253
      7         11           0        0.191992    0.412680    2.065040
 ---------------------------------------------------------------------

 SCF Done:  E(UB3LYP) =  -1136.13714373     A.U. after   19 cycles

 The electronic state is 2-A.
 Alpha  occ. eigenvalues --  -38.44042 -38.43985 -38.43845 -38.43659 -38.43597
 Alpha  occ. eigenvalues --  -38.43533 -38.43300  -2.19833  -2.19766  -2.19691
 Alpha  occ. eigenvalues --   -2.19519  -2.19453  -2.19373  -2.19247  -1.13504
 Alpha  occ. eigenvalues --   -1.13499  -1.13480  -1.13438  -1.13420  -1.13415
 Alpha  occ. eigenvalues --   -1.13375  -1.13367  -1.13311  -1.13238  -1.13179
 Alpha  occ. eigenvalues --   -1.13141  -1.13120  -1.13077  -1.13075  -1.13062
 Alpha  occ. eigenvalues --   -1.13030  -1.13012  -1.12923  -1.12881  -1.12855
 Alpha  occ. eigenvalues --   -0.18292  -0.12895  -0.12439  -0.10536
 Alpha virt. eigenvalues --   -0.05679  -0.05172  -0.05089  -0.03118  -0.02957
 Alpha virt. eigenvalues --   -0.02430  -0.01402  -0.01369  -0.00625  -0.00482
 Alpha virt. eigenvalues --   -0.00018   0.00361   0.00790   0.00810   0.00850

  Beta  occ. eigenvalues --  -38.44042 -38.43976 -38.43839 -38.43654 -38.43530
  Beta  occ. eigenvalues --  -38.43505 -38.43239  -2.19836  -2.19753  -2.19683
  Beta  occ. eigenvalues --   -2.19514  -2.19370  -2.19285  -2.19135  -1.13503
  Beta  occ. eigenvalues --   -1.13489  -1.13484  -1.13415  -1.13413  -1.13407
  Beta  occ. eigenvalues --   -1.13371  -1.13334  -1.13309  -1.13225  -1.13158
  Beta  occ. eigenvalues --   -1.13141  -1.13053  -1.13020  -1.13009  -1.13003
  Beta  occ. eigenvalues --   -1.12959  -1.12952  -1.12847  -1.12800  -1.12776
  Beta  occ. eigenvalues --   -0.17579  -0.12676  -0.12237
  Beta virt. eigenvalues --   -0.06673  -0.05674  -0.05121  -0.04992  -0.02353
  Beta virt. eigenvalues --   -0.02222  -0.01441  -0.01301  -0.01275  -0.00676
  Beta virt. eigenvalues --   -0.00530   0.00133   0.00389   0.00811   0.00830

 Mulliken charges and spin densities:
               1          2
     1  Na   0.002441  -0.099427
     2  Na  -0.087010   0.513800
     3  Na   0.141334  -0.030271
     4  Na   0.194462  -0.046035
     5  Na  -0.038827  -0.065642
     6  Na   0.244851  -0.006669
     7  Na  -0.457252   0.734242
 Sum of Mulliken charges =  -0.00000   1.00000

 Dipole moment (field-independent basis, Debye):
    X=             -0.0071    Y=              0.1850    Z=              0.0679  Tot=              0.1972
 Quadrupole moment (field-independent basis, Debye-Ang):
   XX=            -59.3623   YY=            -58.6686   ZZ=            -75.2831
   XY=             -0.8101   XZ=             -0.4502   YZ=             -1.7638

 Normal termination of Gaussian 16 at Thu Dec  7 16:28:57 2023.
