 Gaussian 16, Revision B.01,
 Gaussian 16:  ES64L-G16RevB.01 20-Dec-2017

 -------------------------
 #P B3LYP/6-311+g(d) force
 -------------------------

 -----
 DPGEN
 -----
 Symbolic Z-matrix:
 Charge =  0 Multiplicity = 2

                         Standard orientation:
 ---------------------------------------------------------------------
 Center     Atomic      Atomic             Coordinates (Angstroms)
 Number     Number       Type             X           Y           Z
 ---------------------------------------------------------------------
      1         11           0        3.818318   -1.464827   -1.121315
      2         11           0        1.850611   -1.437623    0.841591
      3         11           0       -1.300198   -0.423577    1.237450
      4         11           0       -4.363041   -2.051044   -0.512808
      5         11           0        3.507519    1.422800    0.195908
      6         11           0       -3.650308    1.789744   -0.395075
      7         11           0        0.137099    2.164527   -0.245751
 ---------------------------------------------------------------------

 SCF Done:  E(UB3LYP) =  -1136.10877902     A.U. after   25 cycles

 The electronic state is 2-A.
 Alpha  occ. eigenvalues --  -38.45290 -38.44913 -38.44401 -38.44373 -38.43948
 Alpha  occ. eigenvalues --  -38.43760 -38.42548  -2.21061  -2.20777  -2.20276
 Alpha  occ. eigenvalues --   -2.20142  -2.19912  -2.19649  -2.18378  -1.14747
 Alpha  occ. eigenvalues --   -1.14710  -1.14666  -1.14458  -1.14449  -1.14396
 Alpha  occ. eigenvalues --   -1.14133  -1.13896  -1.13893  -1.13817  -1.13808
 Alpha  occ. eigenvalues --   -1.13765  -1.13564  -1.13527  -1.13510  -1.13338
 Alpha  occ. eigenvalues --   -1.13298  -1.13261  -1.12061  -1.12053  -1.12016
 Alpha  occ. eigenvalues --   -0.17503  -0.14630  -0.11110  -0.11003
 Alpha virt. eigenvalues --   -0.07270  -0.05204  -0.04629  -0.03415  -0.02929
 Alpha virt. eigenvalues --   -0.02642  -0.01788  -0.01656  -0.01001  -0.00265
 Alpha virt. eigenvalues --   -0.00042  -0.00018   0.00187   0.00346   0.00463

  Beta  occ. eigenvalues --  -38.45254 -38.44880 -38.44387 -38.44368 -38.43897
  Beta  occ. eigenvalues --  -38.43694 -38.42548  -2.20993  -2.20717  -2.20269
  Beta  occ. eigenvalues --   -2.20116  -2.19823  -2.19535  -2.18378  -1.14701
  Beta  occ. eigenvalues --   -1.14667  -1.14612  -1.14413  -1.14410  -1.14352
  Beta  occ. eigenvalues --   -1.14119  -1.13892  -1.13872  -1.13800  -1.13787
  Beta  occ. eigenvalues --   -1.13748  -1.13509  -1.13472  -1.13419  -1.13264
  Beta  occ. eigenvalues --   -1.13214  -1.13153  -1.12059  -1.12044  -1.12019
  Beta  occ. eigenvalues --   -0.16817  -0.14245  -0.10931
  Beta virt. eigenvalues --   -0.07242  -0.07041  -0.04965  -0.04181  -0.03270
  Beta virt. eigenvalues --   -0.02503  -0.02229  -0.01477  -0.01289  -0.00814
  Beta virt. eigenvalues --   -0.00072  -0.00007   0.00167   0.00309   0.00456

 Mulliken charges and spin densities:
               1          2
     1  Na   0.568336   0.285408
     2  Na  -0.481533  -0.052828
     3  Na  -0.554351   0.124899
     4  Na   0.301663   0.104825
     5  Na  -0.020544   0.355642
     6  Na   0.577434   0.283211
     7  Na  -0.391005  -0.101158
 Sum of Mulliken charges =  -0.00000   1.00000

 Dipole moment (field-independent basis, Debye):
    X=              0.2451    Y=              0.3097    Z=             -0.5625  Tot=              0.6874
 Quadrupole moment (field-independent basis, Debye-Ang):
   XX=            -59.4260   YY=            -68.3900   ZZ=            -68.9057
   XY=             -0.8631   XZ=              0.5752   YZ=              2.1042

 Normal termination of Gaussian 16 at Mon Dec  4 04:04:38 2023.
