 Gaussian 16, Revision B.01,
 Gaussian 16:  ES64L-G16RevB.01 20-Dec-2017

 -------------------------
 #P B3LYP/6-311+g(d) force
 -------------------------

 -----
 DPGEN
 -----
 Symbolic Z-matrix:
 Charge =  0 Multiplicity = 2

                         Standard orientation:
 ---------------------------------------------------------------------
 Center     Atomic      Atomic             Coordinates (Angstroms)
 Number     Number       Type             X           Y           Z
 ---------------------------------------------------------------------
      1         11           0        2.196959   -1.222383   -0.777805
      2         11           0        4.899928   -0.665713    1.532054
      3         11           0        4.342180    1.545426   -0.169112
      4         11           0        0.526065    1.600548   -1.188516
      5         11           0       -1.179828   -1.518949    0.115866
      6         11           0       -4.550315   -1.050268   -0.749261
      7         11           0       -6.234990    1.311340    1.236773
 ---------------------------------------------------------------------

 SCF Done:  E(UB3LYP) =  -1136.11079092     A.U. after   21 cycles

 The electronic state is 2-A.
 Alpha  occ. eigenvalues --  -38.44620 -38.44599 -38.44508 -38.44187 -38.44040
 Alpha  occ. eigenvalues --  -38.43909 -38.43659  -2.20476  -2.20384  -2.20350
 Alpha  occ. eigenvalues --   -2.19951  -2.19870  -2.19784  -2.19476  -1.14186
 Alpha  occ. eigenvalues --   -1.14173  -1.14152  -1.14082  -1.14039  -1.14012
 Alpha  occ. eigenvalues --   -1.14010  -1.14007  -1.13969  -1.13634  -1.13629
 Alpha  occ. eigenvalues --   -1.13584  -1.13537  -1.13525  -1.13470  -1.13431
 Alpha  occ. eigenvalues --   -1.13410  -1.13403  -1.13150  -1.13138  -1.13086
 Alpha  occ. eigenvalues --   -0.16838  -0.13995  -0.11957  -0.10626
 Alpha virt. eigenvalues --   -0.07103  -0.05239  -0.04678  -0.03639  -0.02767
 Alpha virt. eigenvalues --   -0.02761  -0.02042  -0.01490  -0.01069  -0.00769
 Alpha virt. eigenvalues --   -0.00316  -0.00141  -0.00072   0.00291   0.00424

  Beta  occ. eigenvalues --  -38.44614 -38.44563 -38.44500 -38.44199 -38.43972
  Beta  occ. eigenvalues --  -38.43881 -38.43622  -2.20470  -2.20371  -2.20283
  Beta  occ. eigenvalues --   -2.19974  -2.19745  -2.19731  -2.19405  -1.14174
  Beta  occ. eigenvalues --   -1.14145  -1.14129  -1.14081  -1.14033  -1.13988
  Beta  occ. eigenvalues --   -1.13966  -1.13964  -1.13927  -1.13650  -1.13644
  Beta  occ. eigenvalues --   -1.13586  -1.13453  -1.13442  -1.13401  -1.13373
  Beta  occ. eigenvalues --   -1.13372  -1.13363  -1.13100  -1.13085  -1.13049
  Beta  occ. eigenvalues --   -0.16271  -0.13774  -0.11670
  Beta virt. eigenvalues --   -0.07270  -0.06522  -0.05056  -0.04149  -0.03491
  Beta virt. eigenvalues --   -0.02684  -0.02212  -0.01712  -0.01333  -0.01015
  Beta virt. eigenvalues --   -0.00354  -0.00114   0.00061   0.00129   0.00354

 Mulliken charges and spin densities:
               1          2
     1  Na   0.012855   0.069433
     2  Na   0.205870   0.159276
     3  Na   0.151010  -0.029570
     4  Na  -0.161940   0.464724
     5  Na  -0.319861   0.201698
     6  Na   0.070515  -0.050449
     7  Na   0.041551   0.184889
 Sum of Mulliken charges =   0.00000   1.00000

 Dipole moment (field-independent basis, Debye):
    X=              0.7105    Y=              0.5215    Z=              0.2694  Tot=              0.9216
 Quadrupole moment (field-independent basis, Debye-Ang):
   XX=            -67.4459   YY=            -65.7897   ZZ=            -67.5197
   XY=             -3.0915   XZ=             -1.1023   YZ=              2.6364

 Normal termination of Gaussian 16 at Tue Nov 28 21:23:00 2023.
