 Gaussian 16, Revision B.01,
 Gaussian 16:  ES64L-G16RevB.01 20-Dec-2017

 -------------------------
 #P B3LYP/6-311+g(d) force
 -------------------------

 -----
 DPGEN
 -----
 Symbolic Z-matrix:
 Charge =  0 Multiplicity = 2

                         Standard orientation:
 ---------------------------------------------------------------------
 Center     Atomic      Atomic             Coordinates (Angstroms)
 Number     Number       Type             X           Y           Z
 ---------------------------------------------------------------------
      1         11           0       -0.201120    0.926007    1.868096
      2         11           0       -2.989691   -1.381334   -0.078572
      3         11           0       -2.974421    1.368245   -0.434808
      4         11           0        1.675708    2.438187   -0.172309
      5         11           0        0.439699   -0.439739   -1.898582
      6         11           0        0.425722   -2.121376    0.820552
      7         11           0        3.624105   -0.789990   -0.104379
 ---------------------------------------------------------------------

 SCF Done:  E(UB3LYP) =  -1136.11976989     A.U. after   22 cycles

 The electronic state is 2-A.
 Alpha  occ. eigenvalues --  -38.45549 -38.44639 -38.44572 -38.44338 -38.43264
 Alpha  occ. eigenvalues --  -38.43040 -38.42808  -2.21319  -2.20506  -2.20433
 Alpha  occ. eigenvalues --   -2.20214  -2.19177  -2.18877  -2.18716  -1.14997
 Alpha  occ. eigenvalues --   -1.14967  -1.14955  -1.14396  -1.14140  -1.14137
 Alpha  occ. eigenvalues --   -1.14112  -1.14076  -1.14037  -1.13842  -1.13825
 Alpha  occ. eigenvalues --   -1.13818  -1.12865  -1.12833  -1.12798  -1.12547
 Alpha  occ. eigenvalues --   -1.12546  -1.12501  -1.12416  -1.12374  -1.12317
 Alpha  occ. eigenvalues --   -0.18415  -0.13855  -0.11394  -0.10982
 Alpha virt. eigenvalues --   -0.07003  -0.05246  -0.03795  -0.03349  -0.02894
 Alpha virt. eigenvalues --   -0.02689  -0.02477  -0.01113  -0.00395  -0.00232
 Alpha virt. eigenvalues --    0.00051   0.00213   0.00428   0.00717   0.00774

  Beta  occ. eigenvalues --  -38.45548 -38.44624 -38.44521 -38.44333 -38.43185
  Beta  occ. eigenvalues --  -38.43038 -38.42768  -2.21318  -2.20480  -2.20338
  Beta  occ. eigenvalues --   -2.20209  -2.19033  -2.18875  -2.18646  -1.14983
  Beta  occ. eigenvalues --   -1.14969  -1.14955  -1.14383  -1.14110  -1.14092
  Beta  occ. eigenvalues --   -1.14070  -1.14010  -1.13967  -1.13830  -1.13819
  Beta  occ. eigenvalues --   -1.13801  -1.12776  -1.12727  -1.12696  -1.12541
  Beta  occ. eigenvalues --   -1.12526  -1.12493  -1.12373  -1.12300  -1.12269
  Beta  occ. eigenvalues --   -0.17689  -0.13581  -0.11220
  Beta virt. eigenvalues --   -0.07159  -0.06782  -0.05236  -0.03366  -0.03006
  Beta virt. eigenvalues --   -0.02528  -0.02190  -0.01532  -0.01082  -0.00379
  Beta virt. eigenvalues --   -0.00023   0.00059   0.00260   0.00588   0.00779

 Mulliken charges and spin densities:
               1          2
     1  Na   0.012388   0.302074
     2  Na   0.036413   0.027642
     3  Na   0.163358   0.034308
     4  Na  -0.154915  -0.113883
     5  Na  -0.206295   0.515857
     6  Na  -0.029902   0.249868
     7  Na   0.178952  -0.015865
 Sum of Mulliken charges =  -0.00000   1.00000

 Dipole moment (field-independent basis, Debye):
    X=              0.6446    Y=             -0.1884    Z=             -0.3178  Tot=              0.7429
 Quadrupole moment (field-independent basis, Debye-Ang):
   XX=            -49.1175   YY=            -73.3922   ZZ=            -71.9288
   XY=             -0.9534   XZ=              0.7018   YZ=             -2.3812

 Normal termination of Gaussian 16 at Tue Dec  5 14:01:35 2023.
