 Gaussian 16, Revision B.01,
 Gaussian 16:  ES64L-G16RevB.01 20-Dec-2017

 -------------------------
 #P B3LYP/6-311+g(d) force
 -------------------------

 -----
 DPGEN
 -----
 Symbolic Z-matrix:
 Charge =  0 Multiplicity = 2

                         Standard orientation:
 ---------------------------------------------------------------------
 Center     Atomic      Atomic             Coordinates (Angstroms)
 Number     Number       Type             X           Y           Z
 ---------------------------------------------------------------------
      1         11           0        0.945828   -2.909186    0.199088
      2         11           0       -2.718865   -1.535757   -0.571139
      3         11           0        0.374418    0.042124   -1.576502
      4         11           0        0.784977    3.094635   -0.039073
      5         11           0       -2.668744    1.457194    0.146171
      6         11           0        3.272784    0.006556   -0.229163
      7         11           0        0.009602   -0.155566    2.070617
 ---------------------------------------------------------------------

 SCF Done:  E(UB3LYP) =  -1136.13540959     A.U. after   20 cycles

 The electronic state is 2-A.
 Alpha  occ. eigenvalues --  -38.44506 -38.43785 -38.43717 -38.43614 -38.43614
 Alpha  occ. eigenvalues --  -38.43603 -38.43275  -2.20317  -2.19634  -2.19561
 Alpha  occ. eigenvalues --   -2.19486  -2.19425  -2.19407  -2.19225  -1.14019
 Alpha  occ. eigenvalues --   -1.13973  -1.13935  -1.13392  -1.13300  -1.13278
 Alpha  occ. eigenvalues --   -1.13219  -1.13190  -1.13169  -1.13162  -1.13126
 Alpha  occ. eigenvalues --   -1.13111  -1.13098  -1.13093  -1.13073  -1.13066
 Alpha  occ. eigenvalues --   -1.13055  -1.13043  -1.12911  -1.12865  -1.12844
 Alpha  occ. eigenvalues --   -0.18300  -0.13101  -0.12232  -0.10629
 Alpha virt. eigenvalues --   -0.05891  -0.04997  -0.04980  -0.03194  -0.02818
 Alpha virt. eigenvalues --   -0.02498  -0.01677  -0.01237  -0.00545  -0.00470
 Alpha virt. eigenvalues --   -0.00018   0.00341   0.00772   0.00831   0.00879

  Beta  occ. eigenvalues --  -38.44498 -38.43782 -38.43703 -38.43614 -38.43597
  Beta  occ. eigenvalues --  -38.43515 -38.43222  -2.20306  -2.19631  -2.19536
  Beta  occ. eigenvalues --   -2.19416  -2.19410  -2.19304  -2.19130  -1.14001
  Beta  occ. eigenvalues --   -1.13957  -1.13929  -1.13388  -1.13280  -1.13274
  Beta  occ. eigenvalues --   -1.13190  -1.13171  -1.13157  -1.13106  -1.13090
  Beta  occ. eigenvalues --   -1.13071  -1.13068  -1.13054  -1.13043  -1.13025
  Beta  occ. eigenvalues --   -1.12986  -1.12961  -1.12842  -1.12794  -1.12777
  Beta  occ. eigenvalues --   -0.17601  -0.12847  -0.12014
  Beta virt. eigenvalues --   -0.06773  -0.05842  -0.04954  -0.04900  -0.02459
  Beta virt. eigenvalues --   -0.02094  -0.01575  -0.01475  -0.01157  -0.00574
  Beta virt. eigenvalues --   -0.00500   0.00125   0.00381   0.00789   0.00872

 Mulliken charges and spin densities:
               1          2
     1  Na   0.095380  -0.016499
     2  Na   0.077015   0.048898
     3  Na  -0.078365   0.406172
     4  Na  -0.042917  -0.084124
     5  Na   0.106078   0.001824
     6  Na   0.160063  -0.084486
     7  Na  -0.317255   0.728214
 Sum of Mulliken charges =  -0.00000   1.00000

 Dipole moment (field-independent basis, Debye):
    X=              0.4561    Y=             -0.0285    Z=              0.1110  Tot=              0.4702
 Quadrupole moment (field-independent basis, Debye-Ang):
   XX=            -56.8042   YY=            -61.4235   ZZ=            -75.1088
   XY=             -0.0871   XZ=              0.6823   YZ=              0.9154

 Normal termination of Gaussian 16 at Thu Dec  7 10:27:16 2023.
