 Gaussian 16, Revision B.01,
 Gaussian 16:  ES64L-G16RevB.01 20-Dec-2017

 -------------------------
 #P B3LYP/6-311+g(d) force
 -------------------------

 -----
 DPGEN
 -----
 Symbolic Z-matrix:
 Charge =  0 Multiplicity = 2

                         Standard orientation:
 ---------------------------------------------------------------------
 Center     Atomic      Atomic             Coordinates (Angstroms)
 Number     Number       Type             X           Y           Z
 ---------------------------------------------------------------------
      1         11           0        0.325000    0.272520    2.137793
      2         11           0        2.792410    1.289628   -0.697843
      3         11           0        2.746976   -2.106175    0.324230
      4         11           0       -0.624738    2.862352   -0.363888
      5         11           0       -2.268579   -2.505854   -0.516227
      6         11           0       -2.951964    0.612730    0.358727
      7         11           0       -0.019105   -0.425201   -1.242792
 ---------------------------------------------------------------------

 SCF Done:  E(UB3LYP) =  -1136.13261571     A.U. after   21 cycles

 The electronic state is 2-A.
 Alpha  occ. eigenvalues --  -38.44343 -38.44189 -38.44028 -38.43920 -38.43443
 Alpha  occ. eigenvalues --  -38.43047 -38.43012  -2.20131  -2.20024  -2.19898
 Alpha  occ. eigenvalues --   -2.19777  -2.19282  -2.19043  -2.18864  -1.13796
 Alpha  occ. eigenvalues --   -1.13790  -1.13779  -1.13713  -1.13678  -1.13636
 Alpha  occ. eigenvalues --   -1.13579  -1.13570  -1.13535  -1.13453  -1.13411
 Alpha  occ. eigenvalues --   -1.13373  -1.12992  -1.12927  -1.12917  -1.12746
 Alpha  occ. eigenvalues --   -1.12688  -1.12663  -1.12543  -1.12515  -1.12508
 Alpha  occ. eigenvalues --   -0.18350  -0.13419  -0.11997  -0.10631
 Alpha virt. eigenvalues --   -0.05901  -0.05577  -0.04494  -0.03263  -0.02582
 Alpha virt. eigenvalues --   -0.02425  -0.01812  -0.01359  -0.00605  -0.00299
 Alpha virt. eigenvalues --   -0.00051   0.00299   0.00687   0.00759   0.00831

  Beta  occ. eigenvalues --  -38.44337 -38.44165 -38.44023 -38.43823 -38.43436
  Beta  occ. eigenvalues --  -38.43009 -38.43008  -2.20122  -2.19982  -2.19892
  Beta  occ. eigenvalues --   -2.19597  -2.19270  -2.18976  -2.18860  -1.13787
  Beta  occ. eigenvalues --   -1.13778  -1.13769  -1.13675  -1.13647  -1.13604
  Beta  occ. eigenvalues --   -1.13575  -1.13561  -1.13519  -1.13333  -1.13288
  Beta  occ. eigenvalues --   -1.13240  -1.12976  -1.12919  -1.12905  -1.12689
  Beta  occ. eigenvalues --   -1.12639  -1.12616  -1.12540  -1.12511  -1.12485
  Beta  occ. eigenvalues --   -0.17673  -0.13202  -0.11750
  Beta virt. eigenvalues --   -0.06806  -0.05771  -0.05465  -0.04377  -0.02618
  Beta virt. eigenvalues --   -0.01998  -0.01687  -0.01473  -0.01169  -0.00586
  Beta virt. eigenvalues --   -0.00301   0.00118   0.00352   0.00758   0.00784

 Mulliken charges and spin densities:
               1          2
     1  Na  -0.453889   0.629675
     2  Na   0.301600   0.027110
     3  Na  -0.025449   0.100000
     4  Na  -0.050530   0.027669
     5  Na   0.239454   0.071429
     6  Na   0.278614   0.090298
     7  Na  -0.289799   0.053820
 Sum of Mulliken charges =  -0.00000   1.00000

 Dipole moment (field-independent basis, Debye):
    X=              0.4647    Y=             -0.1420    Z=              0.3058  Tot=              0.5741
 Quadrupole moment (field-independent basis, Debye-Ang):
   XX=            -54.8196   YY=            -63.1160   ZZ=            -74.8590
   XY=             -1.3760   XZ=             -1.2037   YZ=             -1.3208

 Normal termination of Gaussian 16 at Thu Dec  7 16:54:05 2023.
