 Gaussian 16, Revision B.01,
 Gaussian 16:  ES64L-G16RevB.01 20-Dec-2017

 -------------------------
 #P B3LYP/6-311+g(d) force
 -------------------------

 -----
 DPGEN
 -----
 Symbolic Z-matrix:
 Charge =  0 Multiplicity = 2

                         Standard orientation:
 ---------------------------------------------------------------------
 Center     Atomic      Atomic             Coordinates (Angstroms)
 Number     Number       Type             X           Y           Z
 ---------------------------------------------------------------------
      1         11           0        2.748089    1.584173   -0.904047
      2         11           0       -2.937267    1.419646    1.151538
      3         11           0        0.101617    1.505069   -0.135116
      4         11           0        1.170019   -1.388135   -1.487086
      5         11           0       -0.687999   -1.542178    1.231571
      6         11           0        2.452802   -0.805273    1.674566
      7         11           0       -2.847260   -0.773303   -1.531426
 ---------------------------------------------------------------------

 SCF Done:  E(UB3LYP) =  -1136.12289958     A.U. after   25 cycles

 The electronic state is 2-A.
 Alpha  occ. eigenvalues --  -38.45013 -38.44164 -38.44087 -38.43958 -38.43269
 Alpha  occ. eigenvalues --  -38.43071 -38.42730  -2.20821  -2.20043  -2.19928
 Alpha  occ. eigenvalues --   -2.19874  -2.19201  -2.19070  -2.18659  -1.14490
 Alpha  occ. eigenvalues --   -1.14464  -1.14449  -1.13724  -1.13689  -1.13663
 Alpha  occ. eigenvalues --   -1.13603  -1.13584  -1.13576  -1.13552  -1.13497
 Alpha  occ. eigenvalues --   -1.13496  -1.13143  -1.12832  -1.12814  -1.12726
 Alpha  occ. eigenvalues --   -1.12714  -1.12583  -1.12373  -1.12326  -1.12262
 Alpha  occ. eigenvalues --   -0.18851  -0.14086  -0.11405  -0.11202
 Alpha virt. eigenvalues --   -0.06213  -0.05381  -0.04548  -0.03244  -0.02658
 Alpha virt. eigenvalues --   -0.02301  -0.02060  -0.01056  -0.00633   0.00028
 Alpha virt. eigenvalues --    0.00217   0.00370   0.00470   0.00573   0.00720

  Beta  occ. eigenvalues --  -38.44975 -38.44124 -38.44058 -38.43914 -38.43267
  Beta  occ. eigenvalues --  -38.43055 -38.42711  -2.20751  -2.19969  -2.19875
  Beta  occ. eigenvalues --   -2.19793  -2.19198  -2.19048  -2.18628  -1.14440
  Beta  occ. eigenvalues --   -1.14417  -1.14394  -1.13663  -1.13643  -1.13614
  Beta  occ. eigenvalues --   -1.13560  -1.13536  -1.13532  -1.13521  -1.13436
  Beta  occ. eigenvalues --   -1.13428  -1.13136  -1.12816  -1.12811  -1.12715
  Beta  occ. eigenvalues --   -1.12667  -1.12572  -1.12358  -1.12267  -1.12242
  Beta  occ. eigenvalues --   -0.18160  -0.13860  -0.10948
  Beta virt. eigenvalues --   -0.07609  -0.05957  -0.04875  -0.04300  -0.02993
  Beta virt. eigenvalues --   -0.02129  -0.01892  -0.01646  -0.00558  -0.00546
  Beta virt. eigenvalues --    0.00218   0.00262   0.00467   0.00529   0.00624

 Mulliken charges and spin densities:
               1          2
     1  Na   1.112725  -0.192968
     2  Na   1.229798  -0.187263
     3  Na  -2.196169   0.481423
     4  Na  -0.153391   0.351733
     5  Na  -0.017816   0.378741
     6  Na  -0.016715   0.004703
     7  Na   0.041568   0.163632
 Sum of Mulliken charges =  -0.00000   1.00000

 Dipole moment (field-independent basis, Debye):
    X=             -0.5184    Y=             -0.5362    Z=             -0.0985  Tot=              0.7523
 Quadrupole moment (field-independent basis, Debye-Ang):
   XX=            -49.9188   YY=            -77.9937   ZZ=            -65.6501
   XY=             -0.5988   XZ=              1.8879   YZ=              4.2159

 Normal termination of Gaussian 16 at Tue Dec  5 13:29:33 2023.
