 Gaussian 16, Revision B.01,
 Gaussian 16:  ES64L-G16RevB.01 20-Dec-2017

 -------------------------
 #P B3LYP/6-311+g(d) force
 -------------------------

 -----
 DPGEN
 -----
 Symbolic Z-matrix:
 Charge =  0 Multiplicity = 2

                         Standard orientation:
 ---------------------------------------------------------------------
 Center     Atomic      Atomic             Coordinates (Angstroms)
 Number     Number       Type             X           Y           Z
 ---------------------------------------------------------------------
      1         11           0        0.449332   -2.684632    0.067816
      2         11           0        3.066255   -0.728338   -0.446724
      3         11           0        1.586402    2.584128    0.207473
      4         11           0        0.143946    0.156972    1.793148
      5         11           0       -2.286160    1.985961   -0.371168
      6         11           0       -0.145156    0.059586   -1.354695
      7         11           0       -2.814618   -1.373677    0.104151
 ---------------------------------------------------------------------

 SCF Done:  E(UB3LYP) =  -1136.13516110     A.U. after   19 cycles

 The electronic state is 2-A.
 Alpha  occ. eigenvalues --  -38.43962 -38.43893 -38.43794 -38.43577 -38.43056
 Alpha  occ. eigenvalues --  -38.43015 -38.42844  -2.19814  -2.19747  -2.19663
 Alpha  occ. eigenvalues --   -2.19426  -2.19000  -2.18976  -2.18939  -1.13487
 Alpha  occ. eigenvalues --   -1.13474  -1.13449  -1.13433  -1.13415  -1.13396
 Alpha  occ. eigenvalues --   -1.13382  -1.13307  -1.13268  -1.13124  -1.13092
 Alpha  occ. eigenvalues --   -1.13049  -1.12790  -1.12705  -1.12662  -1.12605
 Alpha  occ. eigenvalues --   -1.12592  -1.12588  -1.12583  -1.12548  -1.12532
 Alpha  occ. eigenvalues --   -0.19096  -0.13275  -0.12577  -0.10373
 Alpha virt. eigenvalues --   -0.05581  -0.05392  -0.04555  -0.03014  -0.02687
 Alpha virt. eigenvalues --   -0.01992  -0.01696  -0.01264  -0.00400  -0.00201
 Alpha virt. eigenvalues --    0.00043   0.00330   0.00779   0.00857   0.00903

  Beta  occ. eigenvalues --  -38.43947 -38.43890 -38.43781 -38.43569 -38.43048
  Beta  occ. eigenvalues --  -38.42926 -38.42793  -2.19789  -2.19745  -2.19642
  Beta  occ. eigenvalues --   -2.19415  -2.18966  -2.18850  -2.18836  -1.13466
  Beta  occ. eigenvalues --   -1.13452  -1.13428  -1.13426  -1.13412  -1.13376
  Beta  occ. eigenvalues --   -1.13363  -1.13282  -1.13254  -1.13109  -1.13065
  Beta  occ. eigenvalues --   -1.13046  -1.12738  -1.12645  -1.12618  -1.12576
  Beta  occ. eigenvalues --   -1.12505  -1.12492  -1.12486  -1.12480  -1.12469
  Beta  occ. eigenvalues --   -0.18407  -0.12978  -0.12293
  Beta virt. eigenvalues --   -0.06531  -0.05502  -0.05354  -0.04543  -0.02282
  Beta virt. eigenvalues --   -0.01934  -0.01575  -0.01188  -0.01007  -0.00416
  Beta virt. eigenvalues --   -0.00240   0.00171   0.00379   0.00830   0.00871

 Mulliken charges and spin densities:
               1          2
     1  Na   0.255696   0.041923
     2  Na   0.162230   0.055901
     3  Na   0.131757  -0.028820
     4  Na  -0.289128   0.652821
     5  Na   0.294904  -0.003270
     6  Na  -0.752920   0.284749
     7  Na   0.197461  -0.003303
 Sum of Mulliken charges =  -0.00000   1.00000

 Dipole moment (field-independent basis, Debye):
    X=             -0.0460    Y=              0.1487    Z=              0.1616  Tot=              0.2244
 Quadrupole moment (field-independent basis, Debye-Ang):
   XX=            -53.5897   YY=            -61.3507   ZZ=            -76.2138
   XY=              0.8462   XZ=             -1.0037   YZ=             -0.4088

 Normal termination of Gaussian 16 at Wed Nov 29 03:20:55 2023.
