 Gaussian 16, Revision B.01,
 Gaussian 16:  ES64L-G16RevB.01 20-Dec-2017

 -------------------------
 #P B3LYP/6-311+g(d) force
 -------------------------

 -----
 DPGEN
 -----
 Symbolic Z-matrix:
 Charge =  0 Multiplicity = 2

                         Standard orientation:
 ---------------------------------------------------------------------
 Center     Atomic      Atomic             Coordinates (Angstroms)
 Number     Number       Type             X           Y           Z
 ---------------------------------------------------------------------
      1         11           0        0.149857   -0.109445    2.191034
      2         11           0       -0.742545   -2.858301    0.058864
      3         11           0        2.154041    2.150468   -0.325180
      4         11           0       -3.393978   -0.296656   -0.453594
      5         11           0        0.314583   -0.134616   -1.562645
      6         11           0       -1.315182    2.709505    0.214875
      7         11           0        2.833224   -1.460956   -0.123354
 ---------------------------------------------------------------------

 SCF Done:  E(UB3LYP) =  -1136.13643131     A.U. after   18 cycles

 The electronic state is 2-A.
 Alpha  occ. eigenvalues --  -38.44137 -38.44034 -38.43772 -38.43656 -38.43611
 Alpha  occ. eigenvalues --  -38.43531 -38.43290  -2.19909  -2.19868  -2.19630
 Alpha  occ. eigenvalues --   -2.19504  -2.19439  -2.19340  -2.19265  -1.13585
 Alpha  occ. eigenvalues --   -1.13570  -1.13559  -1.13553  -1.13528  -1.13493
 Alpha  occ. eigenvalues --   -1.13289  -1.13259  -1.13247  -1.13225  -1.13158
 Alpha  occ. eigenvalues --   -1.13137  -1.13129  -1.13111  -1.13055  -1.13015
 Alpha  occ. eigenvalues --   -1.13008  -1.12973  -1.12942  -1.12895  -1.12882
 Alpha  occ. eigenvalues --   -0.18300  -0.12752  -0.12456  -0.10746
 Alpha virt. eigenvalues --   -0.05716  -0.05266  -0.04812  -0.03031  -0.02962
 Alpha virt. eigenvalues --   -0.02646  -0.01601  -0.01197  -0.00579  -0.00418
 Alpha virt. eigenvalues --   -0.00041   0.00328   0.00781   0.00830   0.00864

  Beta  occ. eigenvalues --  -38.44130 -38.44029 -38.43665 -38.43649 -38.43607
  Beta  occ. eigenvalues --  -38.43528 -38.43238  -2.19897  -2.19863  -2.19495
  Beta  occ. eigenvalues --   -2.19435  -2.19431  -2.19337  -2.19171  -1.13568
  Beta  occ. eigenvalues --   -1.13559  -1.13552  -1.13546  -1.13515  -1.13485
  Beta  occ. eigenvalues --   -1.13211  -1.13163  -1.13144  -1.13130  -1.13123
  Beta  occ. eigenvalues --   -1.13119  -1.13107  -1.13081  -1.13051  -1.13007
  Beta  occ. eigenvalues --   -1.12994  -1.12973  -1.12877  -1.12832  -1.12810
  Beta  occ. eigenvalues --   -0.17592  -0.12508  -0.12251
  Beta virt. eigenvalues --   -0.06837  -0.05665  -0.05248  -0.04725  -0.02328
  Beta virt. eigenvalues --   -0.02183  -0.01590  -0.01513  -0.01136  -0.00611
  Beta virt. eigenvalues --   -0.00452   0.00116   0.00369   0.00826   0.00851

 Mulliken charges and spin densities:
               1          2
     1  Na  -0.415440   0.737791
     2  Na   0.121415  -0.007732
     3  Na   0.182994  -0.030679
     4  Na  -0.056886  -0.000844
     5  Na  -0.120993   0.339620
     6  Na   0.013423   0.005947
     7  Na   0.275486  -0.044103
 Sum of Mulliken charges =  -0.00000   1.00000

 Dipole moment (field-independent basis, Debye):
    X=              0.1446    Y=             -0.1475    Z=              0.1285  Tot=              0.2432
 Quadrupole moment (field-independent basis, Debye-Ang):
   XX=            -56.4390   YY=            -62.3477   ZZ=            -74.6111
   XY=             -0.4439   XZ=              0.5602   YZ=             -0.0319

 Normal termination of Gaussian 16 at Fri Dec  8 00:44:07 2023.
