 Gaussian 16, Revision B.01,
 Gaussian 16:  ES64L-G16RevB.01 20-Dec-2017

 -------------------------
 #P B3LYP/6-311+g(d) force
 -------------------------

 -----
 DPGEN
 -----
 Symbolic Z-matrix:
 Charge =  0 Multiplicity = 2

                         Standard orientation:
 ---------------------------------------------------------------------
 Center     Atomic      Atomic             Coordinates (Angstroms)
 Number     Number       Type             X           Y           Z
 ---------------------------------------------------------------------
      1         11           0       -2.565026   -1.288670   -0.313162
      2         11           0        0.007093   -0.457370    1.856546
      3         11           0        0.433924   -2.641487    0.238453
      4         11           0        0.368593   -0.306446   -1.776571
      5         11           0        3.318165    0.093727   -0.182562
      6         11           0        0.674046    2.726268    0.253285
      7         11           0       -2.236796    1.873977   -0.075988
 ---------------------------------------------------------------------

 SCF Done:  E(UB3LYP) =  -1136.12997920     A.U. after   20 cycles

 The electronic state is 2-A.
 Alpha  occ. eigenvalues --  -38.44205 -38.43710 -38.43668 -38.43603 -38.43476
 Alpha  occ. eigenvalues --  -38.43430 -38.43362  -2.20005  -2.19717  -2.19636
 Alpha  occ. eigenvalues --   -2.19513  -2.19405  -2.19341  -2.19254  -1.13706
 Alpha  occ. eigenvalues --   -1.13687  -1.13653  -1.13647  -1.13381  -1.13308
 Alpha  occ. eigenvalues --   -1.13300  -1.13219  -1.13205  -1.13169  -1.13159
 Alpha  occ. eigenvalues --   -1.13136  -1.13104  -1.13066  -1.13034  -1.13006
 Alpha  occ. eigenvalues --   -1.13003  -1.12974  -1.12896  -1.12895  -1.12859
 Alpha  occ. eigenvalues --   -0.19171  -0.12967  -0.12865  -0.11003
 Alpha virt. eigenvalues --   -0.05706  -0.04805  -0.04722  -0.03148  -0.03117
 Alpha virt. eigenvalues --   -0.02602  -0.01612  -0.00905  -0.00148  -0.00072
 Alpha virt. eigenvalues --    0.00003   0.00339   0.00854   0.00912   0.00974

  Beta  occ. eigenvalues --  -38.44202 -38.43650 -38.43621 -38.43592 -38.43471
  Beta  occ. eigenvalues --  -38.43360 -38.43356  -2.20002  -2.19632  -2.19534
  Beta  occ. eigenvalues --   -2.19496  -2.19334  -2.19270  -2.19253  -1.13670
  Beta  occ. eigenvalues --   -1.13652  -1.13648  -1.13628  -1.13317  -1.13245
  Beta  occ. eigenvalues --   -1.13216  -1.13195  -1.13156  -1.13133  -1.13116
  Beta  occ. eigenvalues --   -1.13102  -1.13076  -1.12989  -1.12981  -1.12974
  Beta  occ. eigenvalues --   -1.12934  -1.12903  -1.12897  -1.12877  -1.12855
  Beta  occ. eigenvalues --   -0.18435  -0.12713  -0.12596
  Beta virt. eigenvalues --   -0.07053  -0.05669  -0.04751  -0.04704  -0.02395
  Beta virt. eigenvalues --   -0.02292  -0.01613  -0.01448  -0.00846  -0.00177
  Beta virt. eigenvalues --   -0.00104   0.00125   0.00373   0.00870   0.00920

 Mulliken charges and spin densities:
               1          2
     1  Na   0.345018   0.060694
     2  Na  -0.501051   0.585656
     3  Na   0.733107  -0.055706
     4  Na  -0.465959   0.644238
     5  Na   0.042185  -0.127169
     6  Na  -0.015668  -0.052105
     7  Na  -0.137633  -0.055608
 Sum of Mulliken charges =  -0.00000   1.00000

 Dipole moment (field-independent basis, Debye):
    X=              0.4075    Y=             -0.0620    Z=             -0.0591  Tot=              0.4164
 Quadrupole moment (field-independent basis, Debye-Ang):
   XX=            -56.8853   YY=            -64.4962   ZZ=            -73.3802
   XY=              0.7634   XZ=              0.8751   YZ=              0.5976

 Normal termination of Gaussian 16 at Tue Dec  5 18:12:49 2023.
