 Gaussian 16, Revision B.01,
 Gaussian 16:  ES64L-G16RevB.01 20-Dec-2017

 -------------------------
 #P B3LYP/6-311+g(d) force
 -------------------------

 -----
 DPGEN
 -----
 Symbolic Z-matrix:
 Charge =  0 Multiplicity = 2

                         Standard orientation:
 ---------------------------------------------------------------------
 Center     Atomic      Atomic             Coordinates (Angstroms)
 Number     Number       Type             X           Y           Z
 ---------------------------------------------------------------------
      1         11           0        0.208030   -1.725696   -1.382943
      2         11           0       -3.151579    0.434827   -0.539932
      3         11           0        4.385726   -0.041130   -0.080796
      4         11           0       -1.845697    2.840407    0.497252
      5         11           0        1.421058    1.629848   -0.971339
      6         11           0        0.949497   -0.458371    2.095758
      7         11           0       -1.967034   -2.679884    0.381999
 ---------------------------------------------------------------------

 SCF Done:  E(UB3LYP) =  -1136.11723276     A.U. after   22 cycles

 The electronic state is 2-A.
 Alpha  occ. eigenvalues --  -38.45831 -38.44513 -38.44329 -38.44077 -38.43864
 Alpha  occ. eigenvalues --  -38.43583 -38.43140  -2.21567  -2.20360  -2.20143
 Alpha  occ. eigenvalues --   -2.19944  -2.19681  -2.19442  -2.18977  -1.15244
 Alpha  occ. eigenvalues --   -1.15234  -1.15193  -1.14074  -1.14026  -1.13987
 Alpha  occ. eigenvalues --   -1.13849  -1.13822  -1.13737  -1.13659  -1.13616
 Alpha  occ. eigenvalues --   -1.13571  -1.13339  -1.13317  -1.13286  -1.13110
 Alpha  occ. eigenvalues --   -1.13090  -1.13069  -1.12678  -1.12612  -1.12606
 Alpha  occ. eigenvalues --   -0.17547  -0.13478  -0.12153  -0.10347
 Alpha virt. eigenvalues --   -0.07232  -0.05062  -0.04573  -0.03492  -0.02957
 Alpha virt. eigenvalues --   -0.02598  -0.02386  -0.01306  -0.00512  -0.00425
 Alpha virt. eigenvalues --   -0.00105   0.00044   0.00413   0.00595   0.00734

  Beta  occ. eigenvalues --  -38.45835 -38.44508 -38.44306 -38.44046 -38.43756
  Beta  occ. eigenvalues --  -38.43584 -38.43138  -2.21577  -2.20351  -2.20101
  Beta  occ. eigenvalues --   -2.19889  -2.19480  -2.19446  -2.18975  -1.15252
  Beta  occ. eigenvalues --   -1.15227  -1.15201  -1.14067  -1.14015  -1.13981
  Beta  occ. eigenvalues --   -1.13822  -1.13773  -1.13710  -1.13615  -1.13580
  Beta  occ. eigenvalues --   -1.13525  -1.13202  -1.13177  -1.13146  -1.13111
  Beta  occ. eigenvalues --   -1.13093  -1.13051  -1.12678  -1.12607  -1.12601
  Beta  occ. eigenvalues --   -0.16909  -0.13316  -0.12030
  Beta virt. eigenvalues --   -0.07117  -0.06466  -0.04940  -0.04463  -0.02914
  Beta virt. eigenvalues --   -0.02707  -0.02138  -0.01459  -0.01268  -0.00509
  Beta virt. eigenvalues --   -0.00180  -0.00010   0.00117   0.00558   0.00684

 Mulliken charges and spin densities:
               1          2
     1  Na  -0.076543   0.196049
     2  Na  -0.395526  -0.037622
     3  Na   0.306465  -0.068440
     4  Na   0.319061   0.024291
     5  Na  -0.174613   0.189283
     6  Na  -0.588764   0.627641
     7  Na   0.609919   0.068799
 Sum of Mulliken charges =  -0.00000   1.00000

 Dipole moment (field-independent basis, Debye):
    X=              1.4129    Y=             -0.4233    Z=             -0.0929  Tot=              1.4779
 Quadrupole moment (field-independent basis, Debye-Ang):
   XX=            -48.6013   YY=            -70.2966   ZZ=            -75.4038
   XY=              1.7158   XZ=             -0.7797   YZ=             -0.1401

 Normal termination of Gaussian 16 at Thu Dec  7 17:34:11 2023.
