 Gaussian 16, Revision B.01,
 Gaussian 16:  ES64L-G16RevB.01 20-Dec-2017

 -------------------------
 #P B3LYP/6-311+g(d) force
 -------------------------

 -----
 DPGEN
 -----
 Symbolic Z-matrix:
 Charge =  0 Multiplicity = 2

                         Standard orientation:
 ---------------------------------------------------------------------
 Center     Atomic      Atomic             Coordinates (Angstroms)
 Number     Number       Type             X           Y           Z
 ---------------------------------------------------------------------
      1         11           0        2.745614    1.951842    0.177595
      2         11           0       -2.296323    2.154567    0.024311
      3         11           0       -3.248295   -0.851713    0.114568
      4         11           0        0.435349   -0.149573    2.060506
      5         11           0        0.223071    0.710383   -1.735417
      6         11           0        2.815020   -1.674960   -0.287220
      7         11           0       -0.674435   -2.140545   -0.354343
 ---------------------------------------------------------------------

 SCF Done:  E(UB3LYP) =  -1136.12446251     A.U. after   22 cycles

 The electronic state is 2-A.
 Alpha  occ. eigenvalues --  -38.44725 -38.44589 -38.44284 -38.43974 -38.43913
 Alpha  occ. eigenvalues --  -38.43517 -38.42681  -2.20603  -2.20397  -2.20086
 Alpha  occ. eigenvalues --   -2.19843  -2.19739  -2.19428  -2.18634  -1.14331
 Alpha  occ. eigenvalues --   -1.14252  -1.14232  -1.14069  -1.14052  -1.14041
 Alpha  occ. eigenvalues --   -1.13759  -1.13746  -1.13730  -1.13522  -1.13469
 Alpha  occ. eigenvalues --   -1.13455  -1.13411  -1.13401  -1.13385  -1.13119
 Alpha  occ. eigenvalues --   -1.13068  -1.13040  -1.12316  -1.12292  -1.12276
 Alpha  occ. eigenvalues --   -0.18571  -0.13796  -0.11605  -0.10793
 Alpha virt. eigenvalues --   -0.06389  -0.06036  -0.03658  -0.03508  -0.02755
 Alpha virt. eigenvalues --   -0.02483  -0.02116  -0.01485  -0.00562  -0.00100
 Alpha virt. eigenvalues --    0.00058   0.00270   0.00616   0.00689   0.00740

  Beta  occ. eigenvalues --  -38.44726 -38.44583 -38.44279 -38.43912 -38.43885
  Beta  occ. eigenvalues --  -38.43451 -38.42666  -2.20606  -2.20390  -2.20080
  Beta  occ. eigenvalues --   -2.19741  -2.19678  -2.19307  -2.18611  -1.14336
  Beta  occ. eigenvalues --   -1.14256  -1.14219  -1.14049  -1.14041  -1.14039
  Beta  occ. eigenvalues --   -1.13747  -1.13733  -1.13725  -1.13413  -1.13408
  Beta  occ. eigenvalues --   -1.13397  -1.13380  -1.13352  -1.13338  -1.13039
  Beta  occ. eigenvalues --   -1.12976  -1.12953  -1.12305  -1.12276  -1.12224
  Beta  occ. eigenvalues --   -0.17832  -0.13607  -0.11391
  Beta virt. eigenvalues --   -0.06883  -0.06242  -0.06049  -0.03521  -0.02875
  Beta virt. eigenvalues --   -0.02064  -0.01928  -0.01537  -0.01337  -0.00624
  Beta virt. eigenvalues --    0.00041   0.00080   0.00294   0.00694   0.00728

 Mulliken charges and spin densities:
               1          2
     1  Na   0.036075  -0.054223
     2  Na   0.305775   0.024976
     3  Na  -0.122582  -0.044022
     4  Na  -0.417390   0.575306
     5  Na  -0.183743   0.256412
     6  Na   0.228439   0.019868
     7  Na   0.153427   0.221683
 Sum of Mulliken charges =  -0.00000   1.00000

 Dipole moment (field-independent basis, Debye):
    X=              0.4480    Y=              0.1421    Z=              0.1918  Tot=              0.5076
 Quadrupole moment (field-independent basis, Debye-Ang):
   XX=            -49.4757   YY=            -70.1296   ZZ=            -74.0841
   XY=             -0.5636   XZ=             -1.0100   YZ=              1.7440

 Normal termination of Gaussian 16 at Wed Nov 29 15:49:52 2023.
