 Gaussian 16, Revision B.01,
 Gaussian 16:  ES64L-G16RevB.01 20-Dec-2017

 -------------------------
 #P B3LYP/6-311+g(d) force
 -------------------------

 -----
 DPGEN
 -----
 Symbolic Z-matrix:
 Charge =  0 Multiplicity = 2

                         Standard orientation:
 ---------------------------------------------------------------------
 Center     Atomic      Atomic             Coordinates (Angstroms)
 Number     Number       Type             X           Y           Z
 ---------------------------------------------------------------------
      1         11           0       -2.573727    1.538084   -0.126570
      2         11           0        0.293286    1.640661    1.433849
      3         11           0       -1.451457   -1.619687   -0.061414
      4         11           0       -5.188543   -0.938237   -0.415483
      5         11           0        1.684701    1.494132   -1.021929
      6         11           0        4.838317   -0.486828   -0.708245
      7         11           0        2.397422   -1.628125    0.899792
 ---------------------------------------------------------------------

 SCF Done:  E(UB3LYP) =  -1136.11807435     A.U. after   21 cycles

 The electronic state is 2-A.
 Alpha  occ. eigenvalues --  -38.44884 -38.44438 -38.44410 -38.43811 -38.43781
 Alpha  occ. eigenvalues --  -38.43696 -38.43603  -2.20760  -2.20260  -2.20254
 Alpha  occ. eigenvalues --   -2.19662  -2.19615  -2.19557  -2.19430  -1.14544
 Alpha  occ. eigenvalues --   -1.14421  -1.14331  -1.13996  -1.13969  -1.13950
 Alpha  occ. eigenvalues --   -1.13908  -1.13845  -1.13823  -1.13348  -1.13330
 Alpha  occ. eigenvalues --   -1.13324  -1.13316  -1.13240  -1.13226  -1.13223
 Alpha  occ. eigenvalues --   -1.13223  -1.13173  -1.13082  -1.13074  -1.13053
 Alpha  occ. eigenvalues --   -0.17656  -0.14170  -0.11663  -0.10806
 Alpha virt. eigenvalues --   -0.06353  -0.05889  -0.04540  -0.03268  -0.02903
 Alpha virt. eigenvalues --   -0.02518  -0.01758  -0.01699  -0.01022  -0.00477
 Alpha virt. eigenvalues --   -0.00200   0.00150   0.00364   0.00464   0.00537

  Beta  occ. eigenvalues --  -38.44857 -38.44397 -38.44387 -38.43780 -38.43762
  Beta  occ. eigenvalues --  -38.43692 -38.43576  -2.20711  -2.20235  -2.20163
  Beta  occ. eigenvalues --   -2.19611  -2.19605  -2.19522  -2.19378  -1.14513
  Beta  occ. eigenvalues --   -1.14379  -1.14294  -1.13968  -1.13951  -1.13893
  Beta  occ. eigenvalues --   -1.13859  -1.13816  -1.13741  -1.13323  -1.13314
  Beta  occ. eigenvalues --   -1.13292  -1.13256  -1.13240  -1.13202  -1.13195
  Beta  occ. eigenvalues --   -1.13192  -1.13153  -1.13046  -1.13035  -1.13016
  Beta  occ. eigenvalues --   -0.17028  -0.13919  -0.11402
  Beta virt. eigenvalues --   -0.07098  -0.06088  -0.05693  -0.04089  -0.02944
  Beta virt. eigenvalues --   -0.02714  -0.02075  -0.01608  -0.01294  -0.00654
  Beta virt. eigenvalues --   -0.00319  -0.00053   0.00246   0.00468   0.00595

 Mulliken charges and spin densities:
               1          2
     1  Na  -0.206492   0.075462
     2  Na   0.262929   0.336825
     3  Na  -0.569819   0.324645
     4  Na   0.588314   0.192688
     5  Na  -0.099562   0.052580
     6  Na   0.250556   0.218535
     7  Na  -0.225925  -0.200734
 Sum of Mulliken charges =  -0.00000   1.00000

 Dipole moment (field-independent basis, Debye):
    X=             -0.2018    Y=              0.4403    Z=              0.0333  Tot=              0.4854
 Quadrupole moment (field-independent basis, Debye-Ang):
   XX=            -62.6723   YY=            -72.2063   ZZ=            -65.9920
   XY=              0.3473   XZ=             -0.1694   YZ=             -0.2434

 Normal termination of Gaussian 16 at Wed Dec  6 01:19:18 2023.
