 Gaussian 16, Revision B.01,
 Gaussian 16:  ES64L-G16RevB.01 20-Dec-2017

 -------------------------
 #P B3LYP/6-311+g(d) force
 -------------------------

 -----
 DPGEN
 -----
 Symbolic Z-matrix:
 Charge =  0 Multiplicity = 2

                         Standard orientation:
 ---------------------------------------------------------------------
 Center     Atomic      Atomic             Coordinates (Angstroms)
 Number     Number       Type             X           Y           Z
 ---------------------------------------------------------------------
      1         11           0       -1.853320   -2.020556    0.150559
      2         11           0       -0.293754    2.736773   -0.002972
      3         11           0        0.049688   -0.354528   -1.830054
      4         11           0       -3.256179    0.755508    0.008734
      5         11           0        2.073484   -2.182381   -0.185110
      6         11           0        0.410879   -0.409136    1.851686
      7         11           0        2.869201    1.474320    0.007158
 ---------------------------------------------------------------------

 SCF Done:  E(UB3LYP) =  -1136.13467290     A.U. after   19 cycles

 The electronic state is 2-A.
 Alpha  occ. eigenvalues --  -38.44207 -38.44140 -38.43702 -38.43566 -38.43429
 Alpha  occ. eigenvalues --  -38.43424 -38.43160  -2.20034  -2.19959  -2.19582
 Alpha  occ. eigenvalues --   -2.19482  -2.19378  -2.19374  -2.18996  -1.13733
 Alpha  occ. eigenvalues --   -1.13689  -1.13676  -1.13631  -1.13619  -1.13602
 Alpha  occ. eigenvalues --   -1.13301  -1.13279  -1.13208  -1.13192  -1.13172
 Alpha  occ. eigenvalues --   -1.13099  -1.13039  -1.13025  -1.12994  -1.12990
 Alpha  occ. eigenvalues --   -1.12985  -1.12981  -1.12675  -1.12669  -1.12626
 Alpha  occ. eigenvalues --   -0.18802  -0.13304  -0.12347  -0.10755
 Alpha virt. eigenvalues --   -0.05863  -0.05456  -0.04304  -0.03297  -0.02779
 Alpha virt. eigenvalues --   -0.02541  -0.01689  -0.01238  -0.00318  -0.00159
 Alpha virt. eigenvalues --   -0.00023   0.00336   0.00772   0.00852   0.00918

  Beta  occ. eigenvalues --  -38.44209 -38.44139 -38.43692 -38.43555 -38.43348
  Beta  occ. eigenvalues --  -38.43342 -38.43157  -2.20039  -2.19958  -2.19569
  Beta  occ. eigenvalues --   -2.19467  -2.19228  -2.19224  -2.18992  -1.13739
  Beta  occ. eigenvalues --   -1.13682  -1.13676  -1.13621  -1.13610  -1.13605
  Beta  occ. eigenvalues --   -1.13289  -1.13227  -1.13197  -1.13182  -1.13117
  Beta  occ. eigenvalues --   -1.13093  -1.12948  -1.12927  -1.12894  -1.12886
  Beta  occ. eigenvalues --   -1.12879  -1.12875  -1.12674  -1.12647  -1.12627
  Beta  occ. eigenvalues --   -0.18066  -0.13089  -0.12102
  Beta virt. eigenvalues --   -0.06817  -0.05811  -0.05454  -0.04264  -0.02512
  Beta virt. eigenvalues --   -0.02012  -0.01613  -0.01463  -0.01201  -0.00370
  Beta virt. eigenvalues --   -0.00189   0.00127   0.00366   0.00834   0.00851

 Mulliken charges and spin densities:
               1          2
     1  Na   0.632279   0.000731
     2  Na   0.001265  -0.093060
     3  Na  -0.472956   0.719600
     4  Na  -0.255762  -0.088612
     5  Na   0.480229  -0.121799
     6  Na  -0.392121   0.688216
     7  Na   0.007067  -0.105075
 Sum of Mulliken charges =  -0.00000   1.00000

 Dipole moment (field-independent basis, Debye):
    X=              0.1772    Y=             -0.0122    Z=             -0.0018  Tot=              0.1776
 Quadrupole moment (field-independent basis, Debye-Ang):
   XX=            -53.4933   YY=            -65.8621   ZZ=            -74.4943
   XY=             -0.8714   XZ=             -0.5964   YZ=              0.1086

 Normal termination of Gaussian 16 at Tue Dec  5 21:36:11 2023.
