 Gaussian 16, Revision B.01,
 Gaussian 16:  ES64L-G16RevB.01 20-Dec-2017

 -------------------------
 #P B3LYP/6-311+g(d) force
 -------------------------

 -----
 DPGEN
 -----
 Symbolic Z-matrix:
 Charge =  0 Multiplicity = 2

                         Standard orientation:
 ---------------------------------------------------------------------
 Center     Atomic      Atomic             Coordinates (Angstroms)
 Number     Number       Type             X           Y           Z
 ---------------------------------------------------------------------
      1         11           0        0.176747   -0.121605    2.115740
      2         11           0        1.101246   -1.507526   -0.950569
      3         11           0       -1.319538    1.586570   -0.636761
      4         11           0        1.589102    1.859857   -0.800704
      5         11           0       -2.029187   -1.674163   -0.796438
      6         11           0       -3.582179    0.261031    0.634871
      7         11           0        4.063809   -0.404164    0.433861
 ---------------------------------------------------------------------

 SCF Done:  E(UB3LYP) =  -1136.10677761     A.U. after   31 cycles

 The electronic state is 2-A.
 Alpha  occ. eigenvalues --  -38.45959 -38.45764 -38.45605 -38.43270 -38.43190
 Alpha  occ. eigenvalues --  -38.42830 -38.42583  -2.21738  -2.21571  -2.21525
 Alpha  occ. eigenvalues --   -2.19227  -2.19111  -2.18752  -2.18597  -1.15405
 Alpha  occ. eigenvalues --   -1.15395  -1.15361  -1.15267  -1.15257  -1.15207
 Alpha  occ. eigenvalues --   -1.15189  -1.15177  -1.15125  -1.12968  -1.12897
 Alpha  occ. eigenvalues --   -1.12842  -1.12796  -1.12757  -1.12721  -1.12580
 Alpha  occ. eigenvalues --   -1.12392  -1.12377  -1.12245  -1.12230  -1.12199
 Alpha  occ. eigenvalues --   -0.19040  -0.14594  -0.11089  -0.10969
 Alpha virt. eigenvalues --   -0.07986  -0.04762  -0.04540  -0.03409  -0.03207
 Alpha virt. eigenvalues --   -0.02204  -0.02182  -0.01125  -0.01008  -0.00105
 Alpha virt. eigenvalues --   -0.00079   0.00264   0.00287   0.00743   0.00778

  Beta  occ. eigenvalues --  -38.45942 -38.45701 -38.45590 -38.43245 -38.43155
  Beta  occ. eigenvalues --  -38.42808 -38.42565  -2.21706  -2.21499  -2.21453
  Beta  occ. eigenvalues --   -2.19185  -2.19051  -2.18717  -2.18569  -1.15377
  Beta  occ. eigenvalues --   -1.15376  -1.15339  -1.15243  -1.15184  -1.15175
  Beta  occ. eigenvalues --   -1.15129  -1.15097  -1.15084  -1.12922  -1.12873
  Beta  occ. eigenvalues --   -1.12800  -1.12762  -1.12706  -1.12661  -1.12545
  Beta  occ. eigenvalues --   -1.12364  -1.12346  -1.12228  -1.12193  -1.12162
  Beta  occ. eigenvalues --   -0.18330  -0.14402  -0.10710
  Beta virt. eigenvalues --   -0.07760  -0.07201  -0.04818  -0.03908  -0.03078
  Beta virt. eigenvalues --   -0.02937  -0.01612  -0.01453  -0.00973  -0.00714
  Beta virt. eigenvalues --   -0.00061  -0.00023   0.00291   0.00450   0.00803

 Mulliken charges and spin densities:
               1          2
     1  Na  -0.698595   0.358487
     2  Na  -0.530086   0.197624
     3  Na  -1.191720   0.093202
     4  Na  -0.436559  -0.101670
     5  Na  -0.580912  -0.102090
     6  Na   2.228446   0.376222
     7  Na   1.209424   0.178224
 Sum of Mulliken charges =  -0.00000   1.00000

 Dipole moment (field-independent basis, Debye):
    X=              0.8408    Y=             -0.0141    Z=              0.9624  Tot=              1.2780
 Quadrupole moment (field-independent basis, Debye-Ang):
   XX=            -40.5902   YY=            -81.9427   ZZ=            -70.4916
   XY=             -0.1756   XZ=             -0.6881   YZ=             -0.0310

 Normal termination of Gaussian 16 at Fri Dec  8 05:30:29 2023.
