 Gaussian 16, Revision B.01,
 Gaussian 16:  ES64L-G16RevB.01 20-Dec-2017

 -------------------------
 #P B3LYP/6-311+g(d) force
 -------------------------

 -----
 DPGEN
 -----
 Symbolic Z-matrix:
 Charge =  0 Multiplicity = 2

                         Standard orientation:
 ---------------------------------------------------------------------
 Center     Atomic      Atomic             Coordinates (Angstroms)
 Number     Number       Type             X           Y           Z
 ---------------------------------------------------------------------
      1         11           0        0.313331   -0.633363    1.578143
      2         11           0       -0.510993    0.121534   -1.595950
      3         11           0        0.274398    2.653493    0.795053
      4         11           0       -2.722367   -2.018916    0.241365
      5         11           0        3.265276    0.926253   -0.451975
      6         11           0       -2.859518    1.301847   -0.367483
      7         11           0        2.239874   -2.350849   -0.199153
 ---------------------------------------------------------------------

 SCF Done:  E(UB3LYP) =  -1136.12715100     A.U. after   21 cycles

 The electronic state is 2-A.
 Alpha  occ. eigenvalues --  -38.44754 -38.44257 -38.44210 -38.43886 -38.43879
 Alpha  occ. eigenvalues --  -38.42996 -38.42680  -2.20551  -2.20106  -2.20067
 Alpha  occ. eigenvalues --   -2.19834  -2.19720  -2.18954  -2.18541  -1.14225
 Alpha  occ. eigenvalues --   -1.14197  -1.14193  -1.13923  -1.13769  -1.13736
 Alpha  occ. eigenvalues --   -1.13730  -1.13717  -1.13677  -1.13519  -1.13452
 Alpha  occ. eigenvalues --   -1.13425  -1.13422  -1.13372  -1.13350  -1.12647
 Alpha  occ. eigenvalues --   -1.12599  -1.12557  -1.12222  -1.12189  -1.12175
 Alpha  occ. eigenvalues --   -0.18481  -0.13744  -0.11899  -0.10330
 Alpha virt. eigenvalues --   -0.06321  -0.05703  -0.04097  -0.03444  -0.02684
 Alpha virt. eigenvalues --   -0.02127  -0.01935  -0.01365  -0.00609  -0.00275
 Alpha virt. eigenvalues --    0.00039   0.00278   0.00668   0.00705   0.00798

  Beta  occ. eigenvalues --  -38.44739 -38.44253 -38.44195 -38.43883 -38.43830
  Beta  occ. eigenvalues --  -38.42923 -38.42655  -2.20524  -2.20082  -2.20064
  Beta  occ. eigenvalues --   -2.19745  -2.19716  -2.18822  -2.18498  -1.14199
  Beta  occ. eigenvalues --   -1.14181  -1.14169  -1.13892  -1.13763  -1.13726
  Beta  occ. eigenvalues --   -1.13706  -1.13697  -1.13667  -1.13448  -1.13418
  Beta  occ. eigenvalues --   -1.13393  -1.13367  -1.13361  -1.13337  -1.12558
  Beta  occ. eigenvalues --   -1.12501  -1.12460  -1.12189  -1.12153  -1.12141
  Beta  occ. eigenvalues --   -0.17834  -0.13428  -0.11663
  Beta virt. eigenvalues --   -0.06617  -0.06218  -0.05597  -0.04022  -0.02721
  Beta virt. eigenvalues --   -0.02025  -0.01966  -0.01328  -0.01054  -0.00626
  Beta virt. eigenvalues --   -0.00192   0.00144   0.00345   0.00717   0.00773

 Mulliken charges and spin densities:
               1          2
     1  Na   0.140504   0.323334
     2  Na  -0.135592   0.277455
     3  Na  -0.228855   0.090329
     4  Na  -0.113086  -0.027790
     5  Na  -0.035208   0.128158
     6  Na   0.407329   0.145433
     7  Na  -0.035092   0.063083
 Sum of Mulliken charges =  -0.00000   1.00000

 Dipole moment (field-independent basis, Debye):
    X=             -0.0008    Y=             -0.2303    Z=             -0.1064  Tot=              0.2536
 Quadrupole moment (field-independent basis, Debye-Ang):
   XX=            -51.6813   YY=            -65.1046   ZZ=            -75.6549
   XY=              1.3426   XZ=             -2.1165   YZ=              1.0718

 Normal termination of Gaussian 16 at Tue Dec  5 19:40:06 2023.
