 Gaussian 16, Revision B.01,
 Gaussian 16:  ES64L-G16RevB.01 20-Dec-2017

 -------------------------
 #P B3LYP/6-311+g(d) force
 -------------------------

 -----
 DPGEN
 -----
 Symbolic Z-matrix:
 Charge =  0 Multiplicity = 2

                         Standard orientation:
 ---------------------------------------------------------------------
 Center     Atomic      Atomic             Coordinates (Angstroms)
 Number     Number       Type             X           Y           Z
 ---------------------------------------------------------------------
      1         11           0        2.973910   -1.232045    0.748668
      2         11           0        3.421411    1.969439   -0.717368
      3         11           0        0.468838    0.804780   -0.178796
      4         11           0       -1.304342   -0.829610    2.066617
      5         11           0       -2.757412   -0.394039   -1.820913
      6         11           0       -2.774415    2.049617    0.734196
      7         11           0       -0.027990   -2.368143   -0.832405
 ---------------------------------------------------------------------

 SCF Done:  E(UB3LYP) =  -1136.12674500     A.U. after   22 cycles

 The electronic state is 2-A.
 Alpha  occ. eigenvalues --  -38.44815 -38.44408 -38.44302 -38.43651 -38.43465
 Alpha  occ. eigenvalues --  -38.43325 -38.42649  -2.20628  -2.20245  -2.20172
 Alpha  occ. eigenvalues --   -2.19474  -2.19303  -2.19280  -2.18531  -1.14318
 Alpha  occ. eigenvalues --   -1.14305  -1.14232  -1.13911  -1.13880  -1.13870
 Alpha  occ. eigenvalues --   -1.13859  -1.13809  -1.13763  -1.13141  -1.13133
 Alpha  occ. eigenvalues --   -1.13118  -1.13039  -1.13011  -1.12962  -1.12934
 Alpha  occ. eigenvalues --   -1.12920  -1.12864  -1.12233  -1.12187  -1.12154
 Alpha  occ. eigenvalues --   -0.18160  -0.13783  -0.11522  -0.11058
 Alpha virt. eigenvalues --   -0.06108  -0.05649  -0.04385  -0.03104  -0.02778
 Alpha virt. eigenvalues --   -0.02502  -0.02109  -0.01097  -0.00818  -0.00184
 Alpha virt. eigenvalues --    0.00018   0.00210   0.00412   0.00509   0.00747

  Beta  occ. eigenvalues --  -38.44814 -38.44329 -38.44225 -38.43641 -38.43460
  Beta  occ. eigenvalues --  -38.43314 -38.42638  -2.20627  -2.20100  -2.20031
  Beta  occ. eigenvalues --   -2.19458  -2.19287  -2.19271  -2.18513  -1.14313
  Beta  occ. eigenvalues --   -1.14305  -1.14230  -1.13807  -1.13783  -1.13771
  Beta  occ. eigenvalues --   -1.13756  -1.13714  -1.13656  -1.13132  -1.13113
  Beta  occ. eigenvalues --   -1.13097  -1.13019  -1.12977  -1.12955  -1.12927
  Beta  occ. eigenvalues --   -1.12915  -1.12860  -1.12224  -1.12179  -1.12112
  Beta  occ. eigenvalues --   -0.17502  -0.13524  -0.11174
  Beta virt. eigenvalues --   -0.07322  -0.05975  -0.05336  -0.04010  -0.02843
  Beta virt. eigenvalues --   -0.02144  -0.02081  -0.01742  -0.00946  -0.00422
  Beta virt. eigenvalues --   -0.00112   0.00111   0.00270   0.00520   0.00640

 Mulliken charges and spin densities:
               1          2
     1  Na   0.415237   0.009968
     2  Na   0.233785  -0.120479
     3  Na  -1.931525   0.573582
     4  Na   0.087884   0.245149
     5  Na   0.040722   0.220418
     6  Na   0.828562   0.009305
     7  Na   0.325335   0.062058
 Sum of Mulliken charges =  -0.00000   1.00000

 Dipole moment (field-independent basis, Debye):
    X=              0.1174    Y=             -0.5168    Z=              0.4689  Tot=              0.7076
 Quadrupole moment (field-independent basis, Debye-Ang):
   XX=            -54.7035   YY=            -70.0160   ZZ=            -68.5067
   XY=             -3.1937   XZ=              1.3575   YZ=             -1.7587

 Normal termination of Gaussian 16 at Tue Dec  5 16:36:00 2023.
