 Gaussian 16, Revision B.01,
 Gaussian 16:  ES64L-G16RevB.01 20-Dec-2017

 -------------------------
 #P B3LYP/6-311+g(d) force
 -------------------------

 -----
 DPGEN
 -----
 Symbolic Z-matrix:
 Charge =  0 Multiplicity = 2

                         Standard orientation:
 ---------------------------------------------------------------------
 Center     Atomic      Atomic             Coordinates (Angstroms)
 Number     Number       Type             X           Y           Z
 ---------------------------------------------------------------------
      1         11           0       -0.952321    0.383322    1.280927
      2         11           0        2.265997    1.070427    0.741209
      3         11           0        0.614106   -2.700817   -0.162934
      4         11           0       -3.480860    0.978449   -0.531073
      5         11           0       -3.214977   -2.225373   -0.152287
      6         11           0        5.004662   -0.679327   -0.567814
      7         11           0       -0.236606    3.173318   -0.608029
 ---------------------------------------------------------------------

 SCF Done:  E(UB3LYP) =  -1136.12259007     A.U. after   19 cycles

 The electronic state is 2-A.
 Alpha  occ. eigenvalues --  -38.44344 -38.44191 -38.44190 -38.44169 -38.44044
 Alpha  occ. eigenvalues --  -38.43801 -38.43662  -2.20115  -2.20100  -2.19987
 Alpha  occ. eigenvalues --   -2.19979  -2.19841  -2.19672  -2.19496  -1.13835
 Alpha  occ. eigenvalues --   -1.13811  -1.13783  -1.13760  -1.13720  -1.13710
 Alpha  occ. eigenvalues --   -1.13667  -1.13665  -1.13650  -1.13635  -1.13622
 Alpha  occ. eigenvalues --   -1.13609  -1.13480  -1.13480  -1.13452  -1.13344
 Alpha  occ. eigenvalues --   -1.13323  -1.13269  -1.13200  -1.13177  -1.13111
 Alpha  occ. eigenvalues --   -0.17253  -0.13741  -0.12367  -0.10668
 Alpha virt. eigenvalues --   -0.06284  -0.05807  -0.04475  -0.03688  -0.02491
 Alpha virt. eigenvalues --   -0.02349  -0.01953  -0.01310  -0.01209  -0.00758
 Alpha virt. eigenvalues --   -0.00299   0.00097   0.00470   0.00520   0.00576

  Beta  occ. eigenvalues --  -38.44312 -38.44195 -38.44166 -38.44163 -38.43938
  Beta  occ. eigenvalues --  -38.43756 -38.43658  -2.20074  -2.20042  -2.19996
  Beta  occ. eigenvalues --   -2.19971  -2.19643  -2.19588  -2.19494  -1.13803
  Beta  occ. eigenvalues --   -1.13770  -1.13744  -1.13718  -1.13694  -1.13673
  Beta  occ. eigenvalues --   -1.13673  -1.13660  -1.13645  -1.13640  -1.13619
  Beta  occ. eigenvalues --   -1.13584  -1.13346  -1.13344  -1.13324  -1.13292
  Beta  occ. eigenvalues --   -1.13268  -1.13208  -1.13196  -1.13168  -1.13086
  Beta  occ. eigenvalues --   -0.16828  -0.12985  -0.11972
  Beta virt. eigenvalues --   -0.07213  -0.06137  -0.05735  -0.03977  -0.03364
  Beta virt. eigenvalues --   -0.02251  -0.02038  -0.01593  -0.01069  -0.00833
  Beta virt. eigenvalues --   -0.00673  -0.00098   0.00357   0.00517   0.00624

 Mulliken charges and spin densities:
               1          2
     1  Na   0.442867   0.020298
     2  Na  -0.524789  -0.008211
     3  Na  -0.230694   0.078108
     4  Na  -0.005497   0.346490
     5  Na   0.118115   0.034607
     6  Na   0.232133   0.580921
     7  Na  -0.032135  -0.052213
 Sum of Mulliken charges =  -0.00000   1.00000

 Dipole moment (field-independent basis, Debye):
    X=             -0.9968    Y=              0.0322    Z=             -0.5306  Tot=              1.1297
 Quadrupole moment (field-independent basis, Debye-Ang):
   XX=            -70.7215   YY=            -61.9611   ZZ=            -68.2700
   XY=              1.3460   XZ=             -0.3704   YZ=             -0.3307

 Normal termination of Gaussian 16 at Tue Nov 28 21:19:09 2023.
