 Gaussian 16, Revision B.01,
 Gaussian 16:  ES64L-G16RevB.01 20-Dec-2017

 -------------------------
 #P B3LYP/6-311+g(d) force
 -------------------------

 -----
 DPGEN
 -----
 Symbolic Z-matrix:
 Charge =  0 Multiplicity = 2

                         Standard orientation:
 ---------------------------------------------------------------------
 Center     Atomic      Atomic             Coordinates (Angstroms)
 Number     Number       Type             X           Y           Z
 ---------------------------------------------------------------------
      1         11           0        0.001938   -0.025861   -1.726340
      2         11           0        0.035373   -2.019685   -0.066387
      3         11           0        2.585152   -0.854659    0.051676
      4         11           0       -0.005245    0.037501    1.854313
      5         11           0       -2.509524   -0.853198   -0.006621
      6         11           0       -1.488276    1.739408   -0.004336
      7         11           0        1.380582    1.976494   -0.102305
 ---------------------------------------------------------------------

 SCF Done:  E(UB3LYP) =  -1136.08554984     A.U. after   19 cycles

 The electronic state is 2-A.
 Alpha  occ. eigenvalues --  -38.44284 -38.44079 -38.43828 -38.43739 -38.43621
 Alpha  occ. eigenvalues --  -38.43447 -38.43185  -2.20562  -2.20262  -2.19924
 Alpha  occ. eigenvalues --   -2.19853  -2.19758  -2.19604  -2.19267  -1.14535
 Alpha  occ. eigenvalues --   -1.14281  -1.14160  -1.14065  -1.13969  -1.13884
 Alpha  occ. eigenvalues --   -1.13802  -1.13714  -1.13593  -1.13508  -1.13427
 Alpha  occ. eigenvalues --   -1.13412  -1.13370  -1.13363  -1.13330  -1.13212
 Alpha  occ. eigenvalues --   -1.13208  -1.13160  -1.12935  -1.12898  -1.12835
 Alpha  occ. eigenvalues --   -0.21553  -0.13906  -0.12867  -0.12208
 Alpha virt. eigenvalues --   -0.05198  -0.04338  -0.04010  -0.03658  -0.03179
 Alpha virt. eigenvalues --   -0.02846  -0.01205  -0.00485  -0.00080   0.00347
 Alpha virt. eigenvalues --    0.00707   0.00814   0.01005   0.01129   0.01182

  Beta  occ. eigenvalues --  -38.44190 -38.43981 -38.43819 -38.43732 -38.43600
  Beta  occ. eigenvalues --  -38.43432 -38.43174  -2.20394  -2.20086  -2.19911
  Beta  occ. eigenvalues --   -2.19827  -2.19750  -2.19584  -2.19253  -1.14435
  Beta  occ. eigenvalues --   -1.14171  -1.14046  -1.13961  -1.13853  -1.13819
  Beta  occ. eigenvalues --   -1.13756  -1.13676  -1.13577  -1.13449  -1.13425
  Beta  occ. eigenvalues --   -1.13348  -1.13342  -1.13321  -1.13292  -1.13202
  Beta  occ. eigenvalues --   -1.13155  -1.13134  -1.12925  -1.12843  -1.12833
  Beta  occ. eigenvalues --   -0.20719  -0.13540  -0.12490
  Beta virt. eigenvalues --   -0.08017  -0.05233  -0.04326  -0.03977  -0.02696
  Beta virt. eigenvalues --   -0.02237  -0.01767  -0.01129  -0.00445   0.00064
  Beta virt. eigenvalues --    0.00374   0.00685   0.00793   0.01033   0.01145

 Mulliken charges and spin densities:
               1          2
     1  Na  -0.247678   0.431533
     2  Na   0.179991   0.087644
     3  Na  -0.030918  -0.071161
     4  Na  -0.306986   0.534527
     5  Na   0.036973  -0.048740
     6  Na   0.253717   0.066123
     7  Na   0.114901   0.000074
 Sum of Mulliken charges =  -0.00000   1.00000

 Dipole moment (field-independent basis, Debye):
    X=              0.1974    Y=              0.1098    Z=              0.2297  Tot=              0.3222
 Quadrupole moment (field-independent basis, Debye-Ang):
   XX=            -58.4437   YY=            -70.1653   ZZ=            -68.7166
   XY=              0.3756   XZ=              0.0662   YZ=             -0.1947

 Normal termination of Gaussian 16 at Sat Dec  9 06:29:52 2023.
