 Gaussian 16, Revision B.01,
 Gaussian 16:  ES64L-G16RevB.01 20-Dec-2017

 -------------------------
 #P B3LYP/6-311+g(d) force
 -------------------------

 -----
 DPGEN
 -----
 Symbolic Z-matrix:
 Charge =  0 Multiplicity = 2

                         Standard orientation:
 ---------------------------------------------------------------------
 Center     Atomic      Atomic             Coordinates (Angstroms)
 Number     Number       Type             X           Y           Z
 ---------------------------------------------------------------------
      1         11           0        3.480782    1.826780   -0.198361
      2         11           0       -3.785072   -0.049886   -0.543869
      3         11           0       -2.749964   -2.875629    0.399475
      4         11           0        0.892741    3.322709   -0.137973
      5         11           0        4.291044   -1.813601    0.327061
      6         11           0       -2.714191    2.849317    0.497050
      7         11           0        0.584659   -3.259688   -0.343383
 ---------------------------------------------------------------------

 SCF Done:  E(UB3LYP) =  -1136.10734969     A.U. after   23 cycles

 The electronic state is 2-A.
 Alpha  occ. eigenvalues --  -38.45752 -38.44984 -38.44606 -38.44312 -38.44238
 Alpha  occ. eigenvalues --  -38.44159 -38.44069  -2.21479  -2.20802  -2.20424
 Alpha  occ. eigenvalues --   -2.20112  -2.20014  -2.19987  -2.19899  -1.15173
 Alpha  occ. eigenvalues --   -1.15162  -1.15099  -1.14484  -1.14465  -1.14458
 Alpha  occ. eigenvalues --   -1.14162  -1.14082  -1.14051  -1.13770  -1.13769
 Alpha  occ. eigenvalues --   -1.13750  -1.13668  -1.13649  -1.13643  -1.13642
 Alpha  occ. eigenvalues --   -1.13636  -1.13606  -1.13565  -1.13544  -1.13533
 Alpha  occ. eigenvalues --   -0.15772  -0.14177  -0.13460  -0.10926
 Alpha virt. eigenvalues --   -0.07686  -0.04816  -0.04214  -0.03676  -0.03395
 Alpha virt. eigenvalues --   -0.02660  -0.02350  -0.02059  -0.01396  -0.00527
 Alpha virt. eigenvalues --   -0.00198  -0.00084   0.00224   0.00322   0.00480

  Beta  occ. eigenvalues --  -38.45745 -38.44969 -38.44577 -38.44277 -38.44161
  Beta  occ. eigenvalues --  -38.44118 -38.44036  -2.21472  -2.20781  -2.20378
  Beta  occ. eigenvalues --   -2.20051  -2.19917  -2.19871  -2.19838  -1.15173
  Beta  occ. eigenvalues --   -1.15162  -1.15062  -1.14470  -1.14450  -1.14421
  Beta  occ. eigenvalues --   -1.14105  -1.14057  -1.14005  -1.13729  -1.13727
  Beta  occ. eigenvalues --   -1.13702  -1.13595  -1.13591  -1.13571  -1.13554
  Beta  occ. eigenvalues --   -1.13545  -1.13542  -1.13528  -1.13503  -1.13488
  Beta  occ. eigenvalues --   -0.15311  -0.13389  -0.12662
  Beta virt. eigenvalues --   -0.07918  -0.07718  -0.04442  -0.03731  -0.03475
  Beta virt. eigenvalues --   -0.02970  -0.02424  -0.02127  -0.01826  -0.01273
  Beta virt. eigenvalues --   -0.00178   0.00030   0.00163   0.00251   0.00360

 Mulliken charges and spin densities:
               1          2
     1  Na   0.127585   0.047950
     2  Na  -0.252847   0.070967
     3  Na   0.004145   0.137303
     4  Na   0.009987   0.092060
     5  Na   0.176945   0.398998
     6  Na   0.099687   0.184765
     7  Na  -0.165502   0.067956
 Sum of Mulliken charges =  -0.00000   1.00000

 Dipole moment (field-independent basis, Debye):
    X=             -0.5603    Y=             -0.3669    Z=             -0.0192  Tot=              0.6700
 Quadrupole moment (field-independent basis, Debye-Ang):
   XX=            -62.1574   YY=            -67.1327   ZZ=            -72.2533
   XY=              0.6706   XZ=              0.0743   YZ=              0.9208

 Normal termination of Gaussian 16 at Sun Dec  3 14:43:17 2023.
