 Gaussian 16, Revision B.01,
 Gaussian 16:  ES64L-G16RevB.01 20-Dec-2017

 -------------------------
 #P B3LYP/6-311+g(d) force
 -------------------------

 -----
 DPGEN
 -----
 Symbolic Z-matrix:
 Charge =  0 Multiplicity = 2

                         Standard orientation:
 ---------------------------------------------------------------------
 Center     Atomic      Atomic             Coordinates (Angstroms)
 Number     Number       Type             X           Y           Z
 ---------------------------------------------------------------------
      1         11           0       -1.878380   -2.072392    1.897599
      2         11           0       -4.704347   -0.478179   -1.509689
      3         11           0       -2.412181    1.211361   -0.781850
      4         11           0        0.991320   -1.329282    0.466466
      5         11           0        4.617931   -1.708822   -1.020308
      6         11           0        3.127110    1.693180   -0.494814
      7         11           0        0.258545    2.684133    1.442597
 ---------------------------------------------------------------------

 SCF Done:  E(UB3LYP) =  -1136.11189305     A.U. after   26 cycles

 The electronic state is 2-A.
 Alpha  occ. eigenvalues --  -38.45076 -38.44894 -38.44748 -38.44463 -38.44418
 Alpha  occ. eigenvalues --  -38.44090 -38.42756  -2.20872  -2.20730  -2.20518
 Alpha  occ. eigenvalues --   -2.20256  -2.20249  -2.19855  -2.18542  -1.14541
 Alpha  occ. eigenvalues --   -1.14517  -1.14476  -1.14468  -1.14355  -1.14330
 Alpha  occ. eigenvalues --   -1.14218  -1.14194  -1.14116  -1.13963  -1.13928
 Alpha  occ. eigenvalues --   -1.13911  -1.13897  -1.13884  -1.13873  -1.13522
 Alpha  occ. eigenvalues --   -1.13512  -1.13474  -1.12214  -1.12201  -1.12186
 Alpha  occ. eigenvalues --   -0.16476  -0.13985  -0.12209  -0.11232
 Alpha virt. eigenvalues --   -0.06111  -0.05487  -0.04657  -0.03335  -0.03324
 Alpha virt. eigenvalues --   -0.02464  -0.02120  -0.01580  -0.01314  -0.00980
 Alpha virt. eigenvalues --   -0.00151   0.00004   0.00062   0.00332   0.00604

  Beta  occ. eigenvalues --  -38.44996 -38.44823 -38.44740 -38.44437 -38.44399
  Beta  occ. eigenvalues --  -38.44056 -38.42753  -2.20728  -2.20602  -2.20503
  Beta  occ. eigenvalues --   -2.20219  -2.20214  -2.19792  -2.18536  -1.14428
  Beta  occ. eigenvalues --   -1.14420  -1.14381  -1.14375  -1.14269  -1.14246
  Beta  occ. eigenvalues --   -1.14209  -1.14187  -1.14097  -1.13940  -1.13912
  Beta  occ. eigenvalues --   -1.13887  -1.13877  -1.13820  -1.13818  -1.13479
  Beta  occ. eigenvalues --   -1.13467  -1.13433  -1.12208  -1.12198  -1.12182
  Beta  occ. eigenvalues --   -0.15808  -0.13262  -0.11018
  Beta virt. eigenvalues --   -0.08512  -0.05979  -0.05181  -0.04376  -0.03117
  Beta virt. eigenvalues --   -0.02763  -0.02255  -0.01723  -0.01320  -0.01006
  Beta virt. eigenvalues --   -0.00738   0.00025   0.00095   0.00176   0.00405

 Mulliken charges and spin densities:
               1          2
     1  Na   1.426659  -0.514583
     2  Na   0.439936  -0.024398
     3  Na  -0.772301   0.376362
     4  Na  -2.110020   0.617872
     5  Na   0.434169   0.380227
     6  Na   0.090021   0.149092
     7  Na   0.491536   0.015428
 Sum of Mulliken charges =  -0.00000   1.00000

 Dipole moment (field-independent basis, Debye):
    X=             -0.8165    Y=             -0.6955    Z=             -0.0942  Tot=              1.0767
 Quadrupole moment (field-independent basis, Debye-Ang):
   XX=            -54.6563   YY=            -72.8217   ZZ=            -66.9541
   XY=              5.3099   XZ=             -3.0932   YZ=             -0.6478

 Normal termination of Gaussian 16 at Sun Dec  3 17:05:31 2023.
