 Gaussian 16, Revision B.01,
 Gaussian 16:  ES64L-G16RevB.01 20-Dec-2017

 -------------------------
 #P B3LYP/6-311+g(d) force
 -------------------------

 -----
 DPGEN
 -----
 Symbolic Z-matrix:
 Charge =  0 Multiplicity = 2

                         Standard orientation:
 ---------------------------------------------------------------------
 Center     Atomic      Atomic             Coordinates (Angstroms)
 Number     Number       Type             X           Y           Z
 ---------------------------------------------------------------------
      1         11           0       -1.076405   -0.361617    1.854739
      2         11           0        2.039294   -0.847662    1.891868
      3         11           0        2.923701    1.314334   -1.227886
      4         11           0       -0.098667    2.718506    0.019649
      5         11           0       -3.083010    1.011478   -0.354867
      6         11           0        1.784947   -2.027091   -1.122949
      7         11           0       -2.489861   -1.807948   -1.060554
 ---------------------------------------------------------------------

 SCF Done:  E(UB3LYP) =  -1136.12256277     A.U. after   22 cycles

 The electronic state is 2-A.
 Alpha  occ. eigenvalues --  -38.44395 -38.44320 -38.44271 -38.44196 -38.44176
 Alpha  occ. eigenvalues --  -38.44157 -38.42847  -2.20265  -2.20181  -2.20119
 Alpha  occ. eigenvalues --   -2.20096  -2.20004  -2.19984  -2.18649  -1.14013
 Alpha  occ. eigenvalues --   -1.13919  -1.13898  -1.13881  -1.13840  -1.13826
 Alpha  occ. eigenvalues --   -1.13803  -1.13797  -1.13762  -1.13748  -1.13738
 Alpha  occ. eigenvalues --   -1.13719  -1.13654  -1.13647  -1.13638  -1.13627
 Alpha  occ. eigenvalues --   -1.13609  -1.13580  -1.12332  -1.12323  -1.12287
 Alpha  occ. eigenvalues --   -0.17839  -0.14034  -0.11693  -0.11506
 Alpha virt. eigenvalues --   -0.05842  -0.05533  -0.05000  -0.03561  -0.02962
 Alpha virt. eigenvalues --   -0.02857  -0.01485  -0.00770  -0.00546  -0.00428
 Alpha virt. eigenvalues --   -0.00154   0.00296   0.00394   0.00556   0.00592

  Beta  occ. eigenvalues --  -38.44340 -38.44284 -38.44200 -38.44188 -38.44158
  Beta  occ. eigenvalues --  -38.44129 -38.42850  -2.20170  -2.20083  -2.20056
  Beta  occ. eigenvalues --   -2.20052  -2.19954  -2.19949  -2.18655  -1.13922
  Beta  occ. eigenvalues --   -1.13873  -1.13853  -1.13815  -1.13779  -1.13752
  Beta  occ. eigenvalues --   -1.13747  -1.13726  -1.13721  -1.13714  -1.13702
  Beta  occ. eigenvalues --   -1.13663  -1.13625  -1.13615  -1.13608  -1.13593
  Beta  occ. eigenvalues --   -1.13580  -1.13553  -1.12336  -1.12320  -1.12289
  Beta  occ. eigenvalues --   -0.17193  -0.13707  -0.11401
  Beta virt. eigenvalues --   -0.07768  -0.05603  -0.05381  -0.04417  -0.03424
  Beta virt. eigenvalues --   -0.02424  -0.02011  -0.01387  -0.00655  -0.00429
  Beta virt. eigenvalues --   -0.00156  -0.00056   0.00453   0.00531   0.00596

 Mulliken charges and spin densities:
               1          2
     1  Na  -0.397991   0.306971
     2  Na   0.323238   0.071900
     3  Na   0.093391   0.094738
     4  Na  -0.485088  -0.016051
     5  Na   0.914643   0.131252
     6  Na  -0.322406   0.357084
     7  Na  -0.125786   0.054106
 Sum of Mulliken charges =  -0.00000   1.00000

 Dipole moment (field-independent basis, Debye):
    X=              0.0608    Y=             -0.4221    Z=             -0.2857  Tot=              0.5133
 Quadrupole moment (field-independent basis, Debye-Ang):
   XX=            -58.2216   YY=            -73.1894   ZZ=            -67.3872
   XY=             -0.8208   XZ=              0.9155   YZ=              1.2606

 Normal termination of Gaussian 16 at Wed Nov 29 00:15:07 2023.
