 Gaussian 16, Revision B.01,
 Gaussian 16:  ES64L-G16RevB.01 20-Dec-2017

 -------------------------
 #P B3LYP/6-311+g(d) force
 -------------------------

 -----
 DPGEN
 -----
 Symbolic Z-matrix:
 Charge =  0 Multiplicity = 2

                         Standard orientation:
 ---------------------------------------------------------------------
 Center     Atomic      Atomic             Coordinates (Angstroms)
 Number     Number       Type             X           Y           Z
 ---------------------------------------------------------------------
      1         11           0        0.763763    2.664597   -0.061765
      2         11           0        3.305597    0.031432   -0.242684
      3         11           0       -2.847868    1.300364   -0.028275
      4         11           0       -0.162986    0.231905    1.936877
      5         11           0       -0.113152   -0.041690   -1.728052
      6         11           0        1.376364   -2.196491    0.318185
      7         11           0       -2.321719   -1.990118   -0.194286
 ---------------------------------------------------------------------

 SCF Done:  E(UB3LYP) =  -1136.13489180     A.U. after   19 cycles

 The electronic state is 2-A.
 Alpha  occ. eigenvalues --  -38.44511 -38.44276 -38.43534 -38.43428 -38.43382
 Alpha  occ. eigenvalues --  -38.43052 -38.42975  -2.20358  -2.20121  -2.19392
 Alpha  occ. eigenvalues --   -2.19371  -2.19359  -2.18979  -2.18840  -1.14070
 Alpha  occ. eigenvalues --   -1.14010  -1.13982  -1.13798  -1.13793  -1.13751
 Alpha  occ. eigenvalues --   -1.13105  -1.13069  -1.13047  -1.13033  -1.13029
 Alpha  occ. eigenvalues --   -1.13008  -1.12998  -1.12985  -1.12961  -1.12659
 Alpha  occ. eigenvalues --   -1.12633  -1.12609  -1.12526  -1.12516  -1.12451
 Alpha  occ. eigenvalues --   -0.18985  -0.13491  -0.12092  -0.10871
 Alpha virt. eigenvalues --   -0.06113  -0.05098  -0.04058  -0.03404  -0.02742
 Alpha virt. eigenvalues --   -0.02557  -0.01890  -0.01042  -0.00275  -0.00062
 Alpha virt. eigenvalues --    0.00018   0.00345   0.00767   0.00874   0.00933

  Beta  occ. eigenvalues --  -38.44509 -38.44272 -38.43529 -38.43336 -38.43313
  Beta  occ. eigenvalues --  -38.43040 -38.42969  -2.20356  -2.20116  -2.19386
  Beta  occ. eigenvalues --   -2.19233  -2.19202  -2.18962  -2.18833  -1.14072
  Beta  occ. eigenvalues --   -1.13990  -1.13983  -1.13793  -1.13770  -1.13749
  Beta  occ. eigenvalues --   -1.13079  -1.13040  -1.13019  -1.12974  -1.12927
  Beta  occ. eigenvalues --   -1.12914  -1.12884  -1.12874  -1.12868  -1.12649
  Beta  occ. eigenvalues --   -1.12606  -1.12581  -1.12522  -1.12483  -1.12449
  Beta  occ. eigenvalues --   -0.18237  -0.13255  -0.11826
  Beta virt. eigenvalues --   -0.06937  -0.06059  -0.05102  -0.04049  -0.02611
  Beta virt. eigenvalues --   -0.01946  -0.01793  -0.01485  -0.00993  -0.00321
  Beta virt. eigenvalues --   -0.00050   0.00110   0.00365   0.00825   0.00876

 Mulliken charges and spin densities:
               1          2
     1  Na   0.115312  -0.132117
     2  Na  -0.005267  -0.053209
     3  Na   0.211991  -0.098581
     4  Na  -0.403198   0.688890
     5  Na  -0.435326   0.610897
     6  Na   0.338702   0.020825
     7  Na   0.177787  -0.036705
 Sum of Mulliken charges =  -0.00000   1.00000

 Dipole moment (field-independent basis, Debye):
    X=             -0.1311    Y=              0.2105    Z=             -0.0143  Tot=              0.2484
 Quadrupole moment (field-independent basis, Debye-Ang):
   XX=            -52.1655   YY=            -67.2211   ZZ=            -73.8120
   XY=              0.3639   XZ=             -0.4130   YZ=             -0.5377

 Normal termination of Gaussian 16 at Fri Dec  8 03:10:00 2023.
