 Gaussian 16, Revision B.01,
 Gaussian 16:  ES64L-G16RevB.01 20-Dec-2017

 -------------------------
 #P B3LYP/6-311+g(d) force
 -------------------------

 -----
 DPGEN
 -----
 Symbolic Z-matrix:
 Charge =  0 Multiplicity = 2

                         Standard orientation:
 ---------------------------------------------------------------------
 Center     Atomic      Atomic             Coordinates (Angstroms)
 Number     Number       Type             X           Y           Z
 ---------------------------------------------------------------------
      1         11           0       -3.939775   -1.286154    0.291256
      2         11           0       -0.356078   -0.872928    2.272179
      3         11           0       -2.773485    1.935871   -1.149500
      4         11           0        0.588981    2.424313    0.849231
      5         11           0       -1.300878   -1.449103   -1.501048
      6         11           0        2.384471   -0.244498   -0.142262
      7         11           0        5.396765   -0.507500   -0.619854
 ---------------------------------------------------------------------

 SCF Done:  E(UB3LYP) =  -1136.10976884     A.U. after   28 cycles

 The electronic state is 2-A.
 Alpha  occ. eigenvalues --  -38.45805 -38.45116 -38.44967 -38.44917 -38.43447
 Alpha  occ. eigenvalues --  -38.43245 -38.42745  -2.21605  -2.20917  -2.20776
 Alpha  occ. eigenvalues --   -2.20726  -2.19242  -2.19044  -2.18622  -1.15285
 Alpha  occ. eigenvalues --   -1.15260  -1.15248  -1.14593  -1.14549  -1.14515
 Alpha  occ. eigenvalues --   -1.14443  -1.14431  -1.14413  -1.14395  -1.14365
 Alpha  occ. eigenvalues --   -1.14323  -1.12936  -1.12895  -1.12883  -1.12745
 Alpha  occ. eigenvalues --   -1.12690  -1.12688  -1.12314  -1.12307  -1.12225
 Alpha  occ. eigenvalues --   -0.17524  -0.13639  -0.11742  -0.10974
 Alpha virt. eigenvalues --   -0.07446  -0.05619  -0.04248  -0.03642  -0.03423
 Alpha virt. eigenvalues --   -0.02549  -0.02258  -0.01356  -0.00975  -0.00665
 Alpha virt. eigenvalues --   -0.00374  -0.00122   0.00193   0.00414   0.00485

  Beta  occ. eigenvalues --  -38.45799 -38.45026 -38.44960 -38.44835 -38.43452
  Beta  occ. eigenvalues --  -38.43236 -38.42745  -2.21597  -2.20766  -2.20749
  Beta  occ. eigenvalues --   -2.20573  -2.19253  -2.19027  -2.18623  -1.15264
  Beta  occ. eigenvalues --   -1.15259  -1.15233  -1.14478  -1.14444  -1.14436
  Beta  occ. eigenvalues --   -1.14420  -1.14402  -1.14382  -1.14290  -1.14262
  Beta  occ. eigenvalues --   -1.14217  -1.12945  -1.12899  -1.12883  -1.12733
  Beta  occ. eigenvalues --   -1.12679  -1.12677  -1.12312  -1.12305  -1.12221
  Beta  occ. eigenvalues --   -0.16820  -0.13417  -0.10809
  Beta virt. eigenvalues --   -0.07997  -0.07236  -0.05016  -0.03906  -0.03403
  Beta virt. eigenvalues --   -0.02941  -0.02039  -0.01958  -0.01134  -0.00763
  Beta virt. eigenvalues --   -0.00639  -0.00249   0.00137   0.00209   0.00583

 Mulliken charges and spin densities:
               1          2
     1  Na  -0.086679   0.047175
     2  Na   0.748375   0.207129
     3  Na  -0.309478   0.243944
     4  Na   0.893674   0.109118
     5  Na   1.245527   0.305099
     6  Na  -1.191939  -0.018248
     7  Na  -1.299479   0.105784
 Sum of Mulliken charges =  -0.00000   1.00000

 Dipole moment (field-independent basis, Debye):
    X=             -2.8445    Y=             -0.1096    Z=              0.5681  Tot=              2.9028
 Quadrupole moment (field-independent basis, Debye-Ang):
   XX=            -63.6861   YY=            -71.2760   ZZ=            -67.7831
   XY=              1.9206   XZ=             -1.8882   YZ=             -2.2603

 Normal termination of Gaussian 16 at Mon Dec  4 02:14:11 2023.
