 Gaussian 16, Revision B.01,
 Gaussian 16:  ES64L-G16RevB.01 20-Dec-2017

 -------------------------
 #P B3LYP/6-311+g(d) force
 -------------------------

 -----
 DPGEN
 -----
 Symbolic Z-matrix:
 Charge =  0 Multiplicity = 2

                         Standard orientation:
 ---------------------------------------------------------------------
 Center     Atomic      Atomic             Coordinates (Angstroms)
 Number     Number       Type             X           Y           Z
 ---------------------------------------------------------------------
      1         11           0        2.323527   -2.822174   -0.755822
      2         11           0        2.592105    3.233714    0.349771
      3         11           0       -3.468235   -1.911013   -0.427447
      4         11           0        4.101399    0.147549   -0.284456
      5         11           0       -4.223918    1.017534   -0.099014
      6         11           0       -1.373034    3.360460   -0.040025
      7         11           0        0.048156   -3.026070    1.256993
 ---------------------------------------------------------------------

 SCF Done:  E(UB3LYP) =  -1136.10506358     A.U. after   22 cycles

 The electronic state is 2-A.
 Alpha  occ. eigenvalues --  -38.44891 -38.44829 -38.44675 -38.44540 -38.44526
 Alpha  occ. eigenvalues --  -38.44218 -38.44193  -2.20697  -2.20559  -2.20493
 Alpha  occ. eigenvalues --   -2.20359  -2.20334  -2.20014  -2.19967  -1.14422
 Alpha  occ. eigenvalues --   -1.14342  -1.14331  -1.14251  -1.14237  -1.14206
 Alpha  occ. eigenvalues --   -1.14147  -1.14142  -1.14141  -1.14124  -1.14015
 Alpha  occ. eigenvalues --   -1.13996  -1.13986  -1.13968  -1.13908  -1.13675
 Alpha  occ. eigenvalues --   -1.13660  -1.13638  -1.13623  -1.13610  -1.13578
 Alpha  occ. eigenvalues --   -0.15629  -0.14099  -0.13203  -0.10649
 Alpha virt. eigenvalues --   -0.07744  -0.05018  -0.04354  -0.03509  -0.03340
 Alpha virt. eigenvalues --   -0.02764  -0.02319  -0.01804  -0.01317  -0.00720
 Alpha virt. eigenvalues --   -0.00356  -0.00010   0.00050   0.00252   0.00529

  Beta  occ. eigenvalues --  -38.44855 -38.44849 -38.44671 -38.44516 -38.44489
  Beta  occ. eigenvalues --  -38.44162 -38.44104  -2.20633  -2.20601  -2.20490
  Beta  occ. eigenvalues --   -2.20326  -2.20265  -2.19909  -2.19802  -1.14378
  Beta  occ. eigenvalues --   -1.14300  -1.14287  -1.14284  -1.14268  -1.14203
  Beta  occ. eigenvalues --   -1.14148  -1.14141  -1.14093  -1.14092  -1.14000
  Beta  occ. eigenvalues --   -1.13966  -1.13939  -1.13919  -1.13850  -1.13604
  Beta  occ. eigenvalues --   -1.13590  -1.13571  -1.13510  -1.13499  -1.13471
  Beta  occ. eigenvalues --   -0.15145  -0.13392  -0.12532
  Beta virt. eigenvalues --   -0.07816  -0.07460  -0.04676  -0.04011  -0.03130
  Beta virt. eigenvalues --   -0.02936  -0.02538  -0.02090  -0.01696  -0.01215
  Beta virt. eigenvalues --   -0.00582  -0.00004   0.00111   0.00198   0.00416

 Mulliken charges and spin densities:
               1          2
     1  Na   0.154723   0.014264
     2  Na   0.292300  -0.108100
     3  Na  -0.272712   0.235435
     4  Na  -0.161225   0.262561
     5  Na   0.335589   0.014247
     6  Na  -0.152370   0.432560
     7  Na  -0.196306   0.149033
 Sum of Mulliken charges =  -0.00000   1.00000

 Dipole moment (field-independent basis, Debye):
    X=              0.0226    Y=             -0.9935    Z=              0.1103  Tot=              0.9998
 Quadrupole moment (field-independent basis, Debye-Ang):
   XX=            -66.8683   YY=            -66.5708   ZZ=            -69.7284
   XY=             -1.5652   XZ=             -1.7889   YZ=              1.8234

 Normal termination of Gaussian 16 at Sun Dec  3 17:40:41 2023.
