 Gaussian 16, Revision B.01,
 Gaussian 16:  ES64L-G16RevB.01 20-Dec-2017

 -------------------------
 #P B3LYP/6-311+g(d) force
 -------------------------

 -----
 DPGEN
 -----
 Symbolic Z-matrix:
 Charge =  0 Multiplicity = 2

                         Standard orientation:
 ---------------------------------------------------------------------
 Center     Atomic      Atomic             Coordinates (Angstroms)
 Number     Number       Type             X           Y           Z
 ---------------------------------------------------------------------
      1         11           0       -2.383636   -1.585199   -0.107393
      2         11           0        0.902509   -2.591826    0.190277
      3         11           0        2.925083   -0.086877   -0.118864
      4         11           0       -0.276234    0.081581    1.681382
      5         11           0        1.118068    2.561305    0.129589
      6         11           0        0.088621   -0.072063   -1.613872
      7         11           0       -2.374411    1.693078   -0.161120
 ---------------------------------------------------------------------

 SCF Done:  E(UB3LYP) =  -1136.13594926     A.U. after   19 cycles

 The electronic state is 2-A.
 Alpha  occ. eigenvalues --  -38.43708 -38.43617 -38.43566 -38.43260 -38.43141
 Alpha  occ. eigenvalues --  -38.42914 -38.42886  -2.19626  -2.19522  -2.19491
 Alpha  occ. eigenvalues --   -2.19173  -2.19073  -2.18975  -2.18966  -1.13326
 Alpha  occ. eigenvalues --   -1.13288  -1.13276  -1.13251  -1.13193  -1.13178
 Alpha  occ. eigenvalues --   -1.13164  -1.13158  -1.13088  -1.12881  -1.12841
 Alpha  occ. eigenvalues --   -1.12805  -1.12796  -1.12747  -1.12698  -1.12678
 Alpha  occ. eigenvalues --   -1.12607  -1.12584  -1.12582  -1.12575  -1.12564
 Alpha  occ. eigenvalues --   -0.19686  -0.13423  -0.12770  -0.10708
 Alpha virt. eigenvalues --   -0.05334  -0.05127  -0.04579  -0.03157  -0.02801
 Alpha virt. eigenvalues --   -0.02158  -0.01383  -0.01065  -0.00084  -0.00024
 Alpha virt. eigenvalues --    0.00062   0.00369   0.00869   0.00944   0.00966

  Beta  occ. eigenvalues --  -38.43702 -38.43610 -38.43558 -38.43253 -38.43132
  Beta  occ. eigenvalues --  -38.42833 -38.42811  -2.19620  -2.19512  -2.19480
  Beta  occ. eigenvalues --   -2.19164  -2.19061  -2.18832  -2.18826  -1.13320
  Beta  occ. eigenvalues --   -1.13290  -1.13247  -1.13244  -1.13175  -1.13163
  Beta  occ. eigenvalues --   -1.13150  -1.13115  -1.13083  -1.12871  -1.12802
  Beta  occ. eigenvalues --   -1.12795  -1.12785  -1.12701  -1.12693  -1.12596
  Beta  occ. eigenvalues --   -1.12511  -1.12485  -1.12479  -1.12475  -1.12471
  Beta  occ. eigenvalues --   -0.18949  -0.13133  -0.12481
  Beta virt. eigenvalues --   -0.06739  -0.05316  -0.05129  -0.04583  -0.02310
  Beta virt. eigenvalues --   -0.01985  -0.01302  -0.01118  -0.01005  -0.00124
  Beta virt. eigenvalues --   -0.00076   0.00171   0.00398   0.00915   0.00945

 Mulliken charges and spin densities:
               1          2
     1  Na   0.249591  -0.050489
     2  Na   0.239261  -0.049769
     3  Na   0.192070  -0.024054
     4  Na  -0.510382   0.686798
     5  Na   0.188813  -0.086242
     6  Na  -0.532287   0.602245
     7  Na   0.172935  -0.078488
 Sum of Mulliken charges =  -0.00000   1.00000

 Dipole moment (field-independent basis, Debye):
    X=             -0.0993    Y=              0.0669    Z=              0.0132  Tot=              0.1204
 Quadrupole moment (field-independent basis, Debye-Ang):
   XX=            -56.2811   YY=            -61.5662   ZZ=            -74.9036
   XY=             -0.1206   XZ=              0.7488   YZ=             -0.3624

 Normal termination of Gaussian 16 at Wed Nov 29 00:40:59 2023.
