 Gaussian 16, Revision B.01,
 Gaussian 16:  ES64L-G16RevB.01 20-Dec-2017

 -------------------------
 #P B3LYP/6-311+g(d) force
 -------------------------

 -----
 DPGEN
 -----
 Symbolic Z-matrix:
 Charge =  0 Multiplicity = 2

                         Standard orientation:
 ---------------------------------------------------------------------
 Center     Atomic      Atomic             Coordinates (Angstroms)
 Number     Number       Type             X           Y           Z
 ---------------------------------------------------------------------
      1         11           0       -0.365353    1.234565   -0.316312
      2         11           0        2.160605    3.492807    0.111341
      3         11           0        3.303632    0.484212    0.201477
      4         11           0        3.731115   -2.337665   -0.290807
      5         11           0        0.588446   -2.205558   -0.025499
      6         11           0       -3.298127   -0.980022    0.721277
      7         11           0       -6.120317    0.311661   -0.401477
 ---------------------------------------------------------------------

 SCF Done:  E(UB3LYP) =  -1136.12268386     A.U. after   20 cycles

 The electronic state is 2-A.
 Alpha  occ. eigenvalues --  -38.44637 -38.44379 -38.44232 -38.44082 -38.43857
 Alpha  occ. eigenvalues --  -38.43687 -38.43389  -2.20440  -2.20201  -2.20078
 Alpha  occ. eigenvalues --   -2.20009  -2.19641  -2.19590  -2.19223  -1.14075
 Alpha  occ. eigenvalues --   -1.14074  -1.14063  -1.13900  -1.13893  -1.13787
 Alpha  occ. eigenvalues --   -1.13765  -1.13758  -1.13746  -1.13701  -1.13674
 Alpha  occ. eigenvalues --   -1.13656  -1.13331  -1.13322  -1.13284  -1.13239
 Alpha  occ. eigenvalues --   -1.13209  -1.13201  -1.12894  -1.12875  -1.12856
 Alpha  occ. eigenvalues --   -0.17108  -0.14047  -0.12571  -0.11406
 Alpha virt. eigenvalues --   -0.05595  -0.05308  -0.04799  -0.04077  -0.02876
 Alpha virt. eigenvalues --   -0.02188  -0.01794  -0.01539  -0.01215  -0.00662
 Alpha virt. eigenvalues --   -0.00570   0.00068   0.00309   0.00463   0.00731

  Beta  occ. eigenvalues --  -38.44540 -38.44346 -38.44197 -38.44049 -38.43865
  Beta  occ. eigenvalues --  -38.43665 -38.43384  -2.20259  -2.20142  -2.20015
  Beta  occ. eigenvalues --   -2.19950  -2.19662  -2.19551  -2.19214  -1.13952
  Beta  occ. eigenvalues --   -1.13950  -1.13946  -1.13860  -1.13851  -1.13742
  Beta  occ. eigenvalues --   -1.13722  -1.13718  -1.13699  -1.13645  -1.13634
  Beta  occ. eigenvalues --   -1.13609  -1.13353  -1.13344  -1.13242  -1.13199
  Beta  occ. eigenvalues --   -1.13183  -1.13179  -1.12882  -1.12870  -1.12852
  Beta  occ. eigenvalues --   -0.16546  -0.13175  -0.12492
  Beta virt. eigenvalues --   -0.07901  -0.05154  -0.05016  -0.04425  -0.03880
  Beta virt. eigenvalues --   -0.02544  -0.01909  -0.01504  -0.01365  -0.01022
  Beta virt. eigenvalues --   -0.00351  -0.00167   0.00210   0.00437   0.00594

 Mulliken charges and spin densities:
               1          2
     1  Na  -0.850779  -0.031833
     2  Na   0.973934   0.085100
     3  Na  -0.802517   0.382107
     4  Na   1.161492   0.016556
     5  Na  -0.734841   0.086081
     6  Na  -0.058730   0.051420
     7  Na   0.311441   0.410569
 Sum of Mulliken charges =  -0.00000   1.00000

 Dipole moment (field-independent basis, Debye):
    X=              0.1818    Y=              0.1059    Z=             -0.2363  Tot=              0.3164
 Quadrupole moment (field-independent basis, Debye-Ang):
   XX=            -61.7946   YY=            -62.8864   ZZ=            -71.6244
   XY=             -2.4815   XZ=              1.8839   YZ=             -0.7579

 Normal termination of Gaussian 16 at Tue Nov 28 21:56:49 2023.
