 Gaussian 16, Revision B.01,
 Gaussian 16:  ES64L-G16RevB.01 20-Dec-2017

 -------------------------
 #P B3LYP/6-311+g(d) force
 -------------------------

 -----
 DPGEN
 -----
 Symbolic Z-matrix:
 Charge =  0 Multiplicity = 2

                         Standard orientation:
 ---------------------------------------------------------------------
 Center     Atomic      Atomic             Coordinates (Angstroms)
 Number     Number       Type             X           Y           Z
 ---------------------------------------------------------------------
      1         11           0       -0.495606   -0.299888    2.003977
      2         11           0        2.519396   -2.192479   -0.059566
      3         11           0       -3.259697    0.308711   -0.524111
      4         11           0        2.994155    1.761654   -0.020897
      5         11           0       -1.189122   -2.602620    0.018925
      6         11           0        0.132554    0.160884   -1.768485
      7         11           0       -0.701680    2.863738    0.350157
 ---------------------------------------------------------------------

 SCF Done:  E(UB3LYP) =  -1136.13452069     A.U. after   19 cycles

 The electronic state is 2-A.
 Alpha  occ. eigenvalues --  -38.44320 -38.44158 -38.44127 -38.43609 -38.43589
 Alpha  occ. eigenvalues --  -38.43568 -38.43423  -2.20073  -2.19941  -2.19923
 Alpha  occ. eigenvalues --   -2.19501  -2.19476  -2.19384  -2.19293  -1.13755
 Alpha  occ. eigenvalues --   -1.13725  -1.13715  -1.13610  -1.13606  -1.13590
 Alpha  occ. eigenvalues --   -1.13586  -1.13579  -1.13563  -1.13215  -1.13173
 Alpha  occ. eigenvalues --   -1.13145  -1.13127  -1.13109  -1.13092  -1.13057
 Alpha  occ. eigenvalues --   -1.13048  -1.13005  -1.12963  -1.12954  -1.12900
 Alpha  occ. eigenvalues --   -0.18096  -0.12675  -0.12366  -0.10622
 Alpha virt. eigenvalues --   -0.05795  -0.05631  -0.04683  -0.03038  -0.02970
 Alpha virt. eigenvalues --   -0.02510  -0.01718  -0.01309  -0.00616  -0.00535
 Alpha virt. eigenvalues --   -0.00049   0.00331   0.00720   0.00790   0.00857

  Beta  occ. eigenvalues --  -38.44323 -38.44160 -38.44112 -38.43558 -38.43526
  Beta  occ. eigenvalues --  -38.43519 -38.43414  -2.20081  -2.19928  -2.19915
  Beta  occ. eigenvalues --   -2.19368  -2.19361  -2.19336  -2.19281  -1.13753
  Beta  occ. eigenvalues --   -1.13731  -1.13721  -1.13599  -1.13583  -1.13579
  Beta  occ. eigenvalues --   -1.13575  -1.13566  -1.13564  -1.13124  -1.13095
  Beta  occ. eigenvalues --   -1.13065  -1.13047  -1.13019  -1.13013  -1.13003
  Beta  occ. eigenvalues --   -1.12997  -1.12989  -1.12938  -1.12909  -1.12892
  Beta  occ. eigenvalues --   -0.17366  -0.12490  -0.12140
  Beta virt. eigenvalues --   -0.06744  -0.05770  -0.05569  -0.04586  -0.02385
  Beta virt. eigenvalues --   -0.02208  -0.01650  -0.01440  -0.01266  -0.00656
  Beta virt. eigenvalues --   -0.00551   0.00103   0.00373   0.00782   0.00800

 Mulliken charges and spin densities:
               1          2
     1  Na  -0.136174   0.682072
     2  Na  -0.107069  -0.153244
     3  Na   0.175293   0.054231
     4  Na  -0.087242  -0.127685
     5  Na   0.235311  -0.033186
     6  Na  -0.015627   0.637104
     7  Na  -0.064492  -0.059292
 Sum of Mulliken charges =  -0.00000   1.00000

 Dipole moment (field-independent basis, Debye):
    X=              0.1582    Y=              0.0505    Z=             -0.0202  Tot=              0.1673
 Quadrupole moment (field-independent basis, Debye-Ang):
   XX=            -55.0500   YY=            -63.1257   ZZ=            -74.9182
   XY=             -0.4329   XZ=              1.6083   YZ=              0.9742

 Normal termination of Gaussian 16 at Fri Dec  8 00:19:01 2023.
