 Gaussian 16, Revision B.01,
 Gaussian 16:  ES64L-G16RevB.01 20-Dec-2017

 -------------------------
 #P B3LYP/6-311+g(d) force
 -------------------------

 -----
 DPGEN
 -----
 Symbolic Z-matrix:
 Charge =  0 Multiplicity = 2

                         Standard orientation:
 ---------------------------------------------------------------------
 Center     Atomic      Atomic             Coordinates (Angstroms)
 Number     Number       Type             X           Y           Z
 ---------------------------------------------------------------------
      1         11           0       -3.271528   -1.710763    0.301386
      2         11           0        0.385221    2.519520    0.056300
      3         11           0       -0.203470   -0.889323   -1.440348
      4         11           0        3.115607    1.080292    0.179978
      5         11           0       -2.865359    1.555662   -0.415225
      6         11           0        2.980669   -1.927484   -0.286137
      7         11           0       -0.141140   -0.627905    1.604046
 ---------------------------------------------------------------------

 SCF Done:  E(UB3LYP) =  -1136.12087416     A.U. after   24 cycles

 The electronic state is 2-A.
 Alpha  occ. eigenvalues --  -38.44886 -38.44760 -38.44389 -38.44382 -38.44004
 Alpha  occ. eigenvalues --  -38.43599 -38.42375  -2.20764  -2.20577  -2.20277
 Alpha  occ. eigenvalues --   -2.20218  -2.19852  -2.19518  -2.18260  -1.14466
 Alpha  occ. eigenvalues --   -1.14422  -1.14408  -1.14253  -1.14235  -1.14218
 Alpha  occ. eigenvalues --   -1.14045  -1.13918  -1.13885  -1.13874  -1.13866
 Alpha  occ. eigenvalues --   -1.13848  -1.13536  -1.13495  -1.13480  -1.13240
 Alpha  occ. eigenvalues --   -1.13137  -1.13100  -1.11949  -1.11925  -1.11905
 Alpha  occ. eigenvalues --   -0.18563  -0.14311  -0.11804  -0.10011
 Alpha virt. eigenvalues --   -0.07137  -0.06091  -0.03952  -0.03394  -0.02794
 Alpha virt. eigenvalues --   -0.02215  -0.02003  -0.01622  -0.00802  -0.00184
 Alpha virt. eigenvalues --   -0.00012   0.00150   0.00514   0.00627   0.00664

  Beta  occ. eigenvalues --  -38.44883 -38.44753 -38.44356 -38.44352 -38.43992
  Beta  occ. eigenvalues --  -38.43519 -38.42371  -2.20760  -2.20566  -2.20210
  Beta  occ. eigenvalues --   -2.20172  -2.19832  -2.19372  -2.18257  -1.14469
  Beta  occ. eigenvalues --   -1.14419  -1.14384  -1.14250  -1.14216  -1.14198
  Beta  occ. eigenvalues --   -1.13985  -1.13868  -1.13845  -1.13834  -1.13830
  Beta  occ. eigenvalues --   -1.13809  -1.13526  -1.13469  -1.13464  -1.13139
  Beta  occ. eigenvalues --   -1.13038  -1.12990  -1.11950  -1.11927  -1.11872
  Beta  occ. eigenvalues --   -0.17944  -0.14042  -0.11516
  Beta virt. eigenvalues --   -0.07020  -0.06441  -0.05876  -0.03737  -0.02879
  Beta virt. eigenvalues --   -0.02641  -0.01751  -0.01583  -0.00941  -0.00793
  Beta virt. eigenvalues --    0.00016   0.00066   0.00200   0.00595   0.00653

 Mulliken charges and spin densities:
               1          2
     1  Na   0.496108   0.021216
     2  Na  -0.212298  -0.067980
     3  Na  -0.477753   0.362542
     4  Na  -0.003210   0.014291
     5  Na   0.072350   0.128807
     6  Na   0.536283   0.102474
     7  Na  -0.411481   0.438651
 Sum of Mulliken charges =  -0.00000   1.00000

 Dipole moment (field-independent basis, Debye):
    X=             -0.4245    Y=             -0.5308    Z=              0.1356  Tot=              0.6931
 Quadrupole moment (field-independent basis, Debye-Ang):
   XX=            -45.9170   YY=            -70.7191   ZZ=            -76.7405
   XY=              1.7656   XZ=              0.4411   YZ=              0.0143

 Normal termination of Gaussian 16 at Fri Dec  8 07:11:25 2023.
