 Gaussian 16, Revision B.01,
 Gaussian 16:  ES64L-G16RevB.01 20-Dec-2017

 -------------------------
 #P B3LYP/6-311+g(d) force
 -------------------------

 -----
 DPGEN
 -----
 Symbolic Z-matrix:
 Charge =  0 Multiplicity = 2

                         Standard orientation:
 ---------------------------------------------------------------------
 Center     Atomic      Atomic             Coordinates (Angstroms)
 Number     Number       Type             X           Y           Z
 ---------------------------------------------------------------------
      1         11           0       -2.515071   -1.991037    0.356372
      2         11           0        0.066507    0.388293   -1.290617
      3         11           0        3.474998   -0.053221   -0.118931
      4         11           0        0.642010    3.295277    0.206912
      5         11           0       -3.030468    1.330611   -0.432230
      6         11           0        1.054202   -2.703050   -0.590618
      7         11           0        0.307822   -0.266873    1.869112
 ---------------------------------------------------------------------

 SCF Done:  E(UB3LYP) =  -1136.13162856     A.U. after   21 cycles

 The electronic state is 2-A.
 Alpha  occ. eigenvalues --  -38.44831 -38.44200 -38.43962 -38.43743 -38.43562
 Alpha  occ. eigenvalues --  -38.43197 -38.42977  -2.20611  -2.20004  -2.19740
 Alpha  occ. eigenvalues --   -2.19557  -2.19412  -2.19101  -2.18963  -1.14289
 Alpha  occ. eigenvalues --   -1.14258  -1.14251  -1.13688  -1.13661  -1.13634
 Alpha  occ. eigenvalues --   -1.13426  -1.13400  -1.13375  -1.13230  -1.13212
 Alpha  occ. eigenvalues --   -1.13207  -1.13114  -1.13074  -1.13027  -1.12831
 Alpha  occ. eigenvalues --   -1.12721  -1.12699  -1.12658  -1.12598  -1.12578
 Alpha  occ. eigenvalues --   -0.18191  -0.12989  -0.12301  -0.10040
 Alpha virt. eigenvalues --   -0.06266  -0.05340  -0.04878  -0.02898  -0.02675
 Alpha virt. eigenvalues --   -0.02012  -0.01953  -0.01422  -0.00816  -0.00546
 Alpha virt. eigenvalues --   -0.00007   0.00292   0.00707   0.00738   0.00797

  Beta  occ. eigenvalues --  -38.44826 -38.44187 -38.43961 -38.43737 -38.43545
  Beta  occ. eigenvalues --  -38.43108 -38.42937  -2.20605  -2.19981  -2.19741
  Beta  occ. eigenvalues --   -2.19549  -2.19384  -2.18936  -2.18893  -1.14275
  Beta  occ. eigenvalues --   -1.14256  -1.14240  -1.13665  -1.13639  -1.13621
  Beta  occ. eigenvalues --   -1.13423  -1.13395  -1.13373  -1.13216  -1.13208
  Beta  occ. eigenvalues --   -1.13189  -1.13093  -1.13041  -1.13001  -1.12730
  Beta  occ. eigenvalues --   -1.12609  -1.12589  -1.12574  -1.12545  -1.12526
  Beta  occ. eigenvalues --   -0.17525  -0.12723  -0.12081
  Beta virt. eigenvalues --   -0.06367  -0.06137  -0.05249  -0.04784  -0.02242
  Beta virt. eigenvalues --   -0.02016  -0.01925  -0.01338  -0.01010  -0.00790
  Beta virt. eigenvalues --   -0.00553   0.00149   0.00352   0.00716   0.00800

 Mulliken charges and spin densities:
               1          2
     1  Na   0.124797   0.064970
     2  Na  -0.059155   0.095968
     3  Na   0.109985  -0.021043
     4  Na  -0.119943  -0.026642
     5  Na   0.065174   0.026729
     6  Na   0.079576   0.130188
     7  Na  -0.200434   0.729831
 Sum of Mulliken charges =  -0.00000   1.00000

 Dipole moment (field-independent basis, Debye):
    X=              0.4137    Y=              0.1983    Z=              0.1587  Tot=              0.4855
 Quadrupole moment (field-independent basis, Debye-Ang):
   XX=            -52.5075   YY=            -60.1145   ZZ=            -77.6394
   XY=              0.9731   XZ=             -0.1932   YZ=              1.2233

 Normal termination of Gaussian 16 at Thu Dec  7 06:23:12 2023.
