 Gaussian 16, Revision B.01,
 Gaussian 16:  ES64L-G16RevB.01 20-Dec-2017

 -------------------------
 #P B3LYP/6-311+g(d) force
 -------------------------

 -----
 DPGEN
 -----
 Symbolic Z-matrix:
 Charge =  0 Multiplicity = 2

                         Standard orientation:
 ---------------------------------------------------------------------
 Center     Atomic      Atomic             Coordinates (Angstroms)
 Number     Number       Type             X           Y           Z
 ---------------------------------------------------------------------
      1         11           0        0.091050    0.252592   -0.960460
      2         11           0        1.559541   -2.421538    0.356785
      3         11           0       -3.255162    1.026860   -0.804170
      4         11           0       -1.671733   -2.287189   -0.664289
      5         11           0        0.809160    3.344051    0.172677
      6         11           0        3.739878    0.134683   -0.382916
      7         11           0       -1.272734   -0.049459    2.282372
 ---------------------------------------------------------------------

 SCF Done:  E(UB3LYP) =  -1136.12534220     A.U. after   22 cycles

 The electronic state is 2-A.
 Alpha  occ. eigenvalues --  -38.44670 -38.44611 -38.44212 -38.43778 -38.43684
 Alpha  occ. eigenvalues --  -38.43354 -38.42982  -2.20436  -2.20409  -2.19961
 Alpha  occ. eigenvalues --   -2.19616  -2.19566  -2.19207  -2.18987  -1.14115
 Alpha  occ. eigenvalues --   -1.14091  -1.14081  -1.14069  -1.14052  -1.14044
 Alpha  occ. eigenvalues --   -1.13642  -1.13625  -1.13594  -1.13303  -1.13273
 Alpha  occ. eigenvalues --   -1.13246  -1.13229  -1.13204  -1.13183  -1.12906
 Alpha  occ. eigenvalues --   -1.12869  -1.12834  -1.12693  -1.12649  -1.12604
 Alpha  occ. eigenvalues --   -0.17971  -0.13057  -0.12012  -0.10450
 Alpha virt. eigenvalues --   -0.06643  -0.05082  -0.04844  -0.03023  -0.02532
 Alpha virt. eigenvalues --   -0.02391  -0.02044  -0.01269  -0.01035  -0.00397
 Alpha virt. eigenvalues --   -0.00154   0.00252   0.00506   0.00664   0.00816

  Beta  occ. eigenvalues --  -38.44668 -38.44581 -38.44215 -38.43671 -38.43668
  Beta  occ. eigenvalues --  -38.43351 -38.42961  -2.20434  -2.20357  -2.19967
  Beta  occ. eigenvalues --   -2.19541  -2.19417  -2.19203  -2.18952  -1.14111
  Beta  occ. eigenvalues --   -1.14090  -1.14068  -1.14036  -1.14019  -1.13999
  Beta  occ. eigenvalues --   -1.13645  -1.13625  -1.13599  -1.13286  -1.13184
  Beta  occ. eigenvalues --   -1.13155  -1.13136  -1.13106  -1.13083  -1.12904
  Beta  occ. eigenvalues --   -1.12860  -1.12824  -1.12651  -1.12620  -1.12578
  Beta  occ. eigenvalues --   -0.17327  -0.12802  -0.11903
  Beta virt. eigenvalues --   -0.06710  -0.06298  -0.04973  -0.04746  -0.02483
  Beta virt. eigenvalues --   -0.02062  -0.01894  -0.01387  -0.01147  -0.00939
  Beta virt. eigenvalues --   -0.00393   0.00096   0.00328   0.00598   0.00705

 Mulliken charges and spin densities:
               1          2
     1  Na  -0.242270   0.196588
     2  Na   0.096588   0.078043
     3  Na   0.234094   0.028522
     4  Na   0.625378   0.111393
     5  Na  -0.235686  -0.054304
     6  Na   0.190304   0.011234
     7  Na  -0.668407   0.628523
 Sum of Mulliken charges =  -0.00000   1.00000

 Dipole moment (field-independent basis, Debye):
    X=              0.0314    Y=              0.2669    Z=              0.1176  Tot=              0.2934
 Quadrupole moment (field-independent basis, Debye-Ang):
   XX=            -52.9241   YY=            -62.9639   ZZ=            -75.4729
   XY=             -0.3862   XZ=              1.3007   YZ=              0.3439

 Normal termination of Gaussian 16 at Tue Dec  5 17:58:40 2023.
