 Gaussian 16, Revision B.01,
 Gaussian 16:  ES64L-G16RevB.01 20-Dec-2017

 -------------------------
 #P B3LYP/6-311+g(d) force
 -------------------------

 -----
 DPGEN
 -----
 Symbolic Z-matrix:
 Charge =  0 Multiplicity = 2

                         Standard orientation:
 ---------------------------------------------------------------------
 Center     Atomic      Atomic             Coordinates (Angstroms)
 Number     Number       Type             X           Y           Z
 ---------------------------------------------------------------------
      1         11           0        0.131902   -0.265988    2.033001
      2         11           0       -3.466109   -1.081207   -0.333392
      3         11           0        1.752812    2.485423   -0.085877
      4         11           0       -0.024142   -0.005063   -1.738990
      5         11           0       -2.176313    2.138310    0.260389
      6         11           0        0.572542   -2.686512    0.119395
      7         11           0        3.209309   -0.584962   -0.254527
 ---------------------------------------------------------------------

 SCF Done:  E(UB3LYP) =  -1136.13262016     A.U. after   20 cycles

 The electronic state is 2-A.
 Alpha  occ. eigenvalues --  -38.44752 -38.44462 -38.43892 -38.43734 -38.43628
 Alpha  occ. eigenvalues --  -38.43142 -38.42967  -2.20512  -2.20303  -2.19694
 Alpha  occ. eigenvalues --   -2.19643  -2.19524  -2.18969  -2.18857  -1.14186
 Alpha  occ. eigenvalues --   -1.14168  -1.14149  -1.13974  -1.13961  -1.13945
 Alpha  occ. eigenvalues --   -1.13375  -1.13371  -1.13339  -1.13321  -1.13291
 Alpha  occ. eigenvalues --   -1.13251  -1.13210  -1.13152  -1.13135  -1.12644
 Alpha  occ. eigenvalues --   -1.12637  -1.12608  -1.12550  -1.12523  -1.12470
 Alpha  occ. eigenvalues --   -0.18335  -0.13225  -0.11946  -0.10711
 Alpha virt. eigenvalues --   -0.06318  -0.05347  -0.04217  -0.03290  -0.02743
 Alpha virt. eigenvalues --   -0.02565  -0.02091  -0.01211  -0.00418  -0.00349
 Alpha virt. eigenvalues --   -0.00076   0.00290   0.00688   0.00773   0.00828

  Beta  occ. eigenvalues --  -38.44748 -38.44455 -38.43887 -38.43674 -38.43530
  Beta  occ. eigenvalues --  -38.43140 -38.42957  -2.20505  -2.20293  -2.19688
  Beta  occ. eigenvalues --   -2.19534  -2.19344  -2.18969  -2.18845  -1.14171
  Beta  occ. eigenvalues --   -1.14165  -1.14145  -1.13958  -1.13954  -1.13932
  Beta  occ. eigenvalues --   -1.13366  -1.13354  -1.13317  -1.13266  -1.13214
  Beta  occ. eigenvalues --   -1.13168  -1.13090  -1.13022  -1.13011  -1.12643
  Beta  occ. eigenvalues --   -1.12630  -1.12599  -1.12542  -1.12480  -1.12466
  Beta  occ. eigenvalues --   -0.17609  -0.13021  -0.11695
  Beta virt. eigenvalues --   -0.06861  -0.06201  -0.05325  -0.04177  -0.02594
  Beta virt. eigenvalues --   -0.02011  -0.01931  -0.01543  -0.01155  -0.00449
  Beta virt. eigenvalues --   -0.00371   0.00076   0.00330   0.00759   0.00840

 Mulliken charges and spin densities:
               1          2
     1  Na  -0.285404   0.658345
     2  Na   0.028633  -0.049694
     3  Na  -0.050748  -0.073978
     4  Na  -0.178123   0.586220
     5  Na  -0.019787  -0.048493
     6  Na   0.241849  -0.077957
     7  Na   0.263580   0.005557
 Sum of Mulliken charges =  -0.00000   1.00000

 Dipole moment (field-independent basis, Debye):
    X=             -0.2822    Y=             -0.1505    Z=             -0.0288  Tot=              0.3212
 Quadrupole moment (field-independent basis, Debye-Ang):
   XX=            -52.0027   YY=            -66.7258   ZZ=            -74.4547
   XY=              0.2958   XZ=             -0.2292   YZ=              1.1975

 Normal termination of Gaussian 16 at Thu Dec  7 21:58:24 2023.
