 Gaussian 16, Revision B.01,
 Gaussian 16:  ES64L-G16RevB.01 20-Dec-2017

 -------------------------
 #P B3LYP/6-311+g(d) force
 -------------------------

 -----
 DPGEN
 -----
 Symbolic Z-matrix:
 Charge =  0 Multiplicity = 2

                         Standard orientation:
 ---------------------------------------------------------------------
 Center     Atomic      Atomic             Coordinates (Angstroms)
 Number     Number       Type             X           Y           Z
 ---------------------------------------------------------------------
      1         11           0       -3.066695    1.183025    0.276260
      2         11           0        3.197427   -1.954560   -0.213803
      3         11           0       -0.019470   -0.657283    1.956878
      4         11           0        3.266737    1.266489    0.420288
      5         11           0       -0.223048    2.383514   -0.427832
      6         11           0        0.296637   -0.375517   -1.825756
      7         11           0       -3.451589   -1.845668   -0.186035
 ---------------------------------------------------------------------

 SCF Done:  E(UB3LYP) =  -1136.11441713     A.U. after   27 cycles

 The electronic state is 2-A.
 Alpha  occ. eigenvalues --  -38.45517 -38.45208 -38.44720 -38.44178 -38.44158
 Alpha  occ. eigenvalues --  -38.44146 -38.41984  -2.21310  -2.20991  -2.20586
 Alpha  occ. eigenvalues --   -2.20016  -2.19979  -2.19945  -2.17886  -1.14981
 Alpha  occ. eigenvalues --   -1.14963  -1.14946  -1.14678  -1.14638  -1.14590
 Alpha  occ. eigenvalues --   -1.14272  -1.14244  -1.14241  -1.13699  -1.13669
 Alpha  occ. eigenvalues --   -1.13655  -1.13643  -1.13636  -1.13627  -1.13605
 Alpha  occ. eigenvalues --   -1.13601  -1.13585  -1.11585  -1.11553  -1.11520
 Alpha  occ. eigenvalues --   -0.18001  -0.14008  -0.11193  -0.10620
 Alpha virt. eigenvalues --   -0.07290  -0.06187  -0.03790  -0.03433  -0.02818
 Alpha virt. eigenvalues --   -0.02676  -0.02397  -0.01657  -0.00906  -0.00377
 Alpha virt. eigenvalues --   -0.00015   0.00136   0.00344   0.00491   0.00580

  Beta  occ. eigenvalues --  -38.45502 -38.45133 -38.44721 -38.44180 -38.44176
  Beta  occ. eigenvalues --  -38.44059 -38.41979  -2.21282  -2.20853  -2.20588
  Beta  occ. eigenvalues --   -2.19986  -2.19979  -2.19855  -2.17880  -1.14952
  Beta  occ. eigenvalues --   -1.14941  -1.14930  -1.14580  -1.14537  -1.14490
  Beta  occ. eigenvalues --   -1.14286  -1.14247  -1.14228  -1.13667  -1.13659
  Beta  occ. eigenvalues --   -1.13630  -1.13621  -1.13616  -1.13610  -1.13590
  Beta  occ. eigenvalues --   -1.13543  -1.13499  -1.11577  -1.11547  -1.11495
  Beta  occ. eigenvalues --   -0.17273  -0.13990  -0.11019
  Beta virt. eigenvalues --   -0.07031  -0.06770  -0.06108  -0.03446  -0.03134
  Beta virt. eigenvalues --   -0.02649  -0.01917  -0.01695  -0.01194  -0.00993
  Beta virt. eigenvalues --   -0.00198  -0.00005   0.00162   0.00543   0.00582

 Mulliken charges and spin densities:
               1          2
     1  Na   0.056730   0.015766
     2  Na   0.303997  -0.046057
     3  Na  -0.398827   0.479896
     4  Na   0.094901   0.119871
     5  Na   0.214977   0.013627
     6  Na  -0.529885   0.570079
     7  Na   0.258107  -0.153183
 Sum of Mulliken charges =  -0.00000   1.00000

 Dipole moment (field-independent basis, Debye):
    X=              0.6641    Y=             -0.0045    Z=              0.3359  Tot=              0.7442
 Quadrupole moment (field-independent basis, Debye-Ang):
   XX=            -51.7670   YY=            -69.6017   ZZ=            -75.1896
   XY=              0.5830   XZ=              0.8846   YZ=              1.8461

 Normal termination of Gaussian 16 at Fri Dec  8 06:14:02 2023.
