 Gaussian 16, Revision B.01,
 Gaussian 16:  ES64L-G16RevB.01 20-Dec-2017

 -------------------------
 #P B3LYP/6-311+g(d) force
 -------------------------

 -----
 DPGEN
 -----
 Symbolic Z-matrix:
 Charge =  0 Multiplicity = 2

                         Standard orientation:
 ---------------------------------------------------------------------
 Center     Atomic      Atomic             Coordinates (Angstroms)
 Number     Number       Type             X           Y           Z
 ---------------------------------------------------------------------
      1         11           0       -0.150389    1.651698    0.217673
      2         11           0        2.454703    3.611310    0.039996
      3         11           0        3.095692    0.048462   -0.780299
      4         11           0        0.537385   -1.305776    1.505610
      5         11           0       -2.786869   -0.980382    0.482142
      6         11           0        2.715961   -3.325947   -0.665361
      7         11           0       -5.866484    0.300634   -0.799762
 ---------------------------------------------------------------------

 SCF Done:  E(UB3LYP) =  -1136.12499857     A.U. after   19 cycles

 The electronic state is 2-A.
 Alpha  occ. eigenvalues --  -38.44677 -38.44285 -38.44238 -38.44046 -38.43802
 Alpha  occ. eigenvalues --  -38.43769 -38.43461  -2.20467  -2.20113  -2.20102
 Alpha  occ. eigenvalues --   -2.19910  -2.19600  -2.19577  -2.19258  -1.14101
 Alpha  occ. eigenvalues --   -1.14100  -1.14073  -1.13827  -1.13817  -1.13797
 Alpha  occ. eigenvalues --   -1.13772  -1.13701  -1.13689  -1.13605  -1.13601
 Alpha  occ. eigenvalues --   -1.13507  -1.13265  -1.13258  -1.13240  -1.13236
 Alpha  occ. eigenvalues --   -1.13224  -1.13200  -1.12950  -1.12940  -1.12901
 Alpha  occ. eigenvalues --   -0.17009  -0.13591  -0.12456  -0.11314
 Alpha virt. eigenvalues --   -0.05624  -0.05375  -0.05149  -0.03660  -0.02504
 Alpha virt. eigenvalues --   -0.02251  -0.01981  -0.01756  -0.01466  -0.00742
 Alpha virt. eigenvalues --   -0.00388  -0.00044   0.00372   0.00448   0.00544

  Beta  occ. eigenvalues --  -38.44562 -38.44262 -38.44195 -38.44030 -38.43785
  Beta  occ. eigenvalues --  -38.43763 -38.43466  -2.20253  -2.20070  -2.20026
  Beta  occ. eigenvalues --   -2.19883  -2.19568  -2.19564  -2.19275  -1.13956
  Beta  occ. eigenvalues --   -1.13955  -1.13932  -1.13789  -1.13787  -1.13755
  Beta  occ. eigenvalues --   -1.13722  -1.13661  -1.13627  -1.13586  -1.13575
  Beta  occ. eigenvalues --   -1.13480  -1.13242  -1.13231  -1.13230  -1.13228
  Beta  occ. eigenvalues --   -1.13207  -1.13192  -1.12970  -1.12960  -1.12852
  Beta  occ. eigenvalues --   -0.16521  -0.12655  -0.12312
  Beta virt. eigenvalues --   -0.07805  -0.05514  -0.05096  -0.04705  -0.03394
  Beta virt. eigenvalues --   -0.02111  -0.02014  -0.01749  -0.01503  -0.01078
  Beta virt. eigenvalues --   -0.00401  -0.00092   0.00074   0.00475   0.00542

 Mulliken charges and spin densities:
               1          2
     1  Na  -1.296702  -0.116360
     2  Na   0.877894   0.106964
     3  Na  -0.382263   0.236654
     4  Na   0.095922   0.242703
     5  Na   0.161878   0.059672
     6  Na   0.276137   0.011382
     7  Na   0.267135   0.458986
 Sum of Mulliken charges =  -0.00000   1.00000

 Dipole moment (field-independent basis, Debye):
    X=              0.7107    Y=              0.1319    Z=             -0.0321  Tot=              0.7235
 Quadrupole moment (field-independent basis, Debye-Ang):
   XX=            -66.1361   YY=            -60.6221   ZZ=            -69.7821
   XY=              0.0646   XZ=              1.4280   YZ=              0.0924

 Normal termination of Gaussian 16 at Tue Nov 28 19:11:44 2023.
