 Gaussian 16, Revision B.01,
 Gaussian 16:  ES64L-G16RevB.01 20-Dec-2017

 -------------------------
 #P B3LYP/6-311+g(d) force
 -------------------------

 -----
 DPGEN
 -----
 Symbolic Z-matrix:
 Charge =  0 Multiplicity = 2

                         Standard orientation:
 ---------------------------------------------------------------------
 Center     Atomic      Atomic             Coordinates (Angstroms)
 Number     Number       Type             X           Y           Z
 ---------------------------------------------------------------------
      1         11           0        2.587144    2.039202    0.166692
      2         11           0       -3.336047    0.190189   -0.015732
      3         11           0        0.331029    0.198644   -1.707153
      4         11           0        2.339376   -2.192062   -0.380625
      5         11           0       -0.936697    2.652763    0.039530
      6         11           0       -1.386385   -2.274076   -0.138098
      7         11           0        0.401582   -0.614661    2.035386
 ---------------------------------------------------------------------

 SCF Done:  E(UB3LYP) =  -1136.13527109     A.U. after   19 cycles

 The electronic state is 2-A.
 Alpha  occ. eigenvalues --  -38.44170 -38.43980 -38.43871 -38.43589 -38.43555
 Alpha  occ. eigenvalues --  -38.43476 -38.43275  -2.19966  -2.19803  -2.19702
 Alpha  occ. eigenvalues --   -2.19472  -2.19398  -2.19377  -2.19226  -1.13641
 Alpha  occ. eigenvalues --   -1.13623  -1.13607  -1.13480  -1.13464  -1.13439
 Alpha  occ. eigenvalues --   -1.13405  -1.13357  -1.13349  -1.13170  -1.13113
 Alpha  occ. eigenvalues --   -1.13105  -1.13091  -1.13064  -1.13061  -1.13028
 Alpha  occ. eigenvalues --   -1.13013  -1.12984  -1.12898  -1.12851  -1.12847
 Alpha  occ. eigenvalues --   -0.18469  -0.12894  -0.12586  -0.10655
 Alpha virt. eigenvalues --   -0.05726  -0.05546  -0.04484  -0.03077  -0.03039
 Alpha virt. eigenvalues --   -0.02507  -0.01588  -0.01407  -0.00386  -0.00229
 Alpha virt. eigenvalues --   -0.00034   0.00335   0.00761   0.00827   0.00900

  Beta  occ. eigenvalues --  -38.44167 -38.43971 -38.43873 -38.43551 -38.43501
  Beta  occ. eigenvalues --  -38.43466 -38.43207  -2.19963  -2.19789  -2.19707
  Beta  occ. eigenvalues --   -2.19394  -2.19364  -2.19309  -2.19103  -1.13627
  Beta  occ. eigenvalues --   -1.13615  -1.13608  -1.13462  -1.13437  -1.13434
  Beta  occ. eigenvalues --   -1.13411  -1.13359  -1.13342  -1.13102  -1.13098
  Beta  occ. eigenvalues --   -1.13047  -1.13028  -1.13014  -1.13001  -1.12987
  Beta  occ. eigenvalues --   -1.12973  -1.12953  -1.12817  -1.12761  -1.12759
  Beta  occ. eigenvalues --   -0.17750  -0.12699  -0.12361
  Beta virt. eigenvalues --   -0.06747  -0.05731  -0.05460  -0.04419  -0.02360
  Beta virt. eigenvalues --   -0.02272  -0.01508  -0.01463  -0.01345  -0.00421
  Beta virt. eigenvalues --   -0.00267   0.00127   0.00366   0.00815   0.00824

 Mulliken charges and spin densities:
               1          2
     1  Na   0.049024  -0.088390
     2  Na  -0.184587  -0.079545
     3  Na  -0.220927   0.486637
     4  Na   0.296751  -0.093275
     5  Na   0.136701   0.001724
     6  Na   0.470532   0.095844
     7  Na  -0.547495   0.677006
 Sum of Mulliken charges =  -0.00000   1.00000

 Dipole moment (field-independent basis, Debye):
    X=              0.4479    Y=              0.0763    Z=              0.1027  Tot=              0.4658
 Quadrupole moment (field-independent basis, Debye-Ang):
   XX=            -55.2637   YY=            -63.5691   ZZ=            -74.6876
   XY=             -0.6286   XZ=             -0.1172   YZ=              1.7529

 Normal termination of Gaussian 16 at Tue Dec  5 21:39:47 2023.
