 Gaussian 16, Revision B.01,
 Gaussian 16:  ES64L-G16RevB.01 20-Dec-2017

 -------------------------
 #P B3LYP/6-311+g(d) force
 -------------------------

 -----
 DPGEN
 -----
 Symbolic Z-matrix:
 Charge =  0 Multiplicity = 2

                         Standard orientation:
 ---------------------------------------------------------------------
 Center     Atomic      Atomic             Coordinates (Angstroms)
 Number     Number       Type             X           Y           Z
 ---------------------------------------------------------------------
      1         11           0        0.584561    2.751161    0.314330
      2         11           0        1.105432   -2.493299    0.022680
      3         11           0        3.300708    0.187956   -0.410689
      4         11           0       -2.267687   -1.851164    0.211483
      5         11           0        0.058420    0.079107   -1.718854
      6         11           0       -3.084731    1.203403   -0.368122
      7         11           0        0.303298    0.122836    1.949172
 ---------------------------------------------------------------------

 SCF Done:  E(UB3LYP) =  -1136.13598907     A.U. after   19 cycles

 The electronic state is 2-A.
 Alpha  occ. eigenvalues --  -38.44543 -38.44140 -38.43532 -38.43483 -38.43457
 Alpha  occ. eigenvalues --  -38.43177 -38.42904  -2.20361  -2.19955  -2.19484
 Alpha  occ. eigenvalues --   -2.19425  -2.19326  -2.19039  -2.18804  -1.14036
 Alpha  occ. eigenvalues --   -1.14014  -1.13994  -1.13638  -1.13622  -1.13584
 Alpha  occ. eigenvalues --   -1.13186  -1.13139  -1.13109  -1.13097  -1.13076
 Alpha  occ. eigenvalues --   -1.13039  -1.12990  -1.12988  -1.12969  -1.12726
 Alpha  occ. eigenvalues --   -1.12700  -1.12644  -1.12492  -1.12474  -1.12423
 Alpha  occ. eigenvalues --   -0.18761  -0.13241  -0.12207  -0.10891
 Alpha virt. eigenvalues --   -0.06096  -0.04913  -0.04318  -0.03273  -0.02861
 Alpha virt. eigenvalues --   -0.02582  -0.01939  -0.00965  -0.00346  -0.00111
 Alpha virt. eigenvalues --   -0.00031   0.00323   0.00805   0.00859   0.00904

  Beta  occ. eigenvalues --  -38.44531 -38.44135 -38.43470 -38.43453 -38.43389
  Beta  occ. eigenvalues --  -38.43166 -38.42897  -2.20341  -2.19946  -2.19371
  Beta  occ. eigenvalues --   -2.19322  -2.19253  -2.19023  -2.18796  -1.14005
  Beta  occ. eigenvalues --   -1.14003  -1.13980  -1.13635  -1.13603  -1.13579
  Beta  occ. eigenvalues --   -1.13109  -1.13064  -1.13015  -1.12998  -1.12991
  Beta  occ. eigenvalues --   -1.12980  -1.12957  -1.12944  -1.12915  -1.12704
  Beta  occ. eigenvalues --   -1.12664  -1.12638  -1.12490  -1.12447  -1.12407
  Beta  occ. eigenvalues --   -0.18041  -0.12986  -0.11923
  Beta virt. eigenvalues --   -0.07014  -0.06005  -0.04901  -0.04291  -0.02565
  Beta virt. eigenvalues --   -0.02061  -0.01810  -0.01536  -0.00913  -0.00347
  Beta virt. eigenvalues --   -0.00156   0.00096   0.00356   0.00854   0.00869

 Mulliken charges and spin densities:
               1          2
     1  Na   0.059734  -0.092077
     2  Na   0.149124  -0.029500
     3  Na   0.228427  -0.010276
     4  Na   0.058222  -0.026086
     5  Na  -0.358827   0.593485
     6  Na   0.096451  -0.028668
     7  Na  -0.233131   0.593121
 Sum of Mulliken charges =  -0.00000   1.00000

 Dipole moment (field-independent basis, Debye):
    X=              0.2281    Y=              0.2037    Z=             -0.0595  Tot=              0.3115
 Quadrupole moment (field-independent basis, Debye-Ang):
   XX=            -53.3315   YY=            -66.4361   ZZ=            -73.5475
   XY=             -0.3208   XZ=             -0.6670   YZ=             -0.6992

 Normal termination of Gaussian 16 at Fri Dec  8 06:38:59 2023.
