 Gaussian 16, Revision B.01,
 Gaussian 16:  ES64L-G16RevB.01 20-Dec-2017

 -------------------------
 #P B3LYP/6-311+g(d) force
 -------------------------

 -----
 DPGEN
 -----
 Symbolic Z-matrix:
 Charge =  0 Multiplicity = 2

                         Standard orientation:
 ---------------------------------------------------------------------
 Center     Atomic      Atomic             Coordinates (Angstroms)
 Number     Number       Type             X           Y           Z
 ---------------------------------------------------------------------
      1         11           0        2.520378    0.281898    1.935618
      2         11           0       -0.401156    2.659215    0.462706
      3         11           0       -3.576253   -1.961243    0.606514
      4         11           0       -2.937811    1.094047   -0.926099
      5         11           0        1.985377    1.216034   -1.343439
      6         11           0        2.576998   -2.335185   -0.983950
      7         11           0       -0.167532   -0.954766    0.248649
 ---------------------------------------------------------------------

 SCF Done:  E(UB3LYP) =  -1136.12664499     A.U. after   22 cycles

 The electronic state is 2-A.
 Alpha  occ. eigenvalues --  -38.44426 -38.44347 -38.44083 -38.44025 -38.43855
 Alpha  occ. eigenvalues --  -38.43445 -38.42964  -2.20250  -2.20222  -2.19885
 Alpha  occ. eigenvalues --   -2.19868  -2.19680  -2.19372  -2.18824  -1.13935
 Alpha  occ. eigenvalues --   -1.13925  -1.13915  -1.13894  -1.13867  -1.13831
 Alpha  occ. eigenvalues --   -1.13557  -1.13534  -1.13529  -1.13518  -1.13500
 Alpha  occ. eigenvalues --   -1.13485  -1.13362  -1.13327  -1.13306  -1.13092
 Alpha  occ. eigenvalues --   -1.13051  -1.12979  -1.12503  -1.12489  -1.12466
 Alpha  occ. eigenvalues --   -0.18024  -0.13827  -0.11825  -0.10433
 Alpha virt. eigenvalues --   -0.06313  -0.05873  -0.04548  -0.03167  -0.02570
 Alpha virt. eigenvalues --   -0.02328  -0.01848  -0.01348  -0.00996  -0.00378
 Alpha virt. eigenvalues --   -0.00159   0.00212   0.00312   0.00462   0.00682

  Beta  occ. eigenvalues --  -38.44419 -38.44319 -38.44076 -38.43937 -38.43822
  Beta  occ. eigenvalues --  -38.43433 -38.42962  -2.20238  -2.20173  -2.19856
  Beta  occ. eigenvalues --   -2.19720  -2.19621  -2.19356  -2.18823  -1.13929
  Beta  occ. eigenvalues --   -1.13916  -1.13884  -1.13853  -1.13843  -1.13790
  Beta  occ. eigenvalues --   -1.13523  -1.13520  -1.13493  -1.13439  -1.13410
  Beta  occ. eigenvalues --   -1.13370  -1.13323  -1.13272  -1.13269  -1.13048
  Beta  occ. eigenvalues --   -1.13034  -1.12975  -1.12505  -1.12491  -1.12441
  Beta  occ. eigenvalues --   -0.17438  -0.13571  -0.11586
  Beta virt. eigenvalues --   -0.06787  -0.06035  -0.05574  -0.04371  -0.02858
  Beta virt. eigenvalues --   -0.02154  -0.01992  -0.01282  -0.01118  -0.00738
  Beta virt. eigenvalues --   -0.00138   0.00007   0.00299   0.00419   0.00575

 Mulliken charges and spin densities:
               1          2
     1  Na   0.115980   0.281896
     2  Na   0.369239   0.159917
     3  Na  -0.019548  -0.033433
     4  Na   0.206959  -0.092912
     5  Na   0.213666   0.254107
     6  Na   0.349243   0.035035
     7  Na  -1.235540   0.395389
 Sum of Mulliken charges =  -0.00000   1.00000

 Dipole moment (field-independent basis, Debye):
    X=             -0.1120    Y=             -0.0221    Z=             -0.2683  Tot=              0.2916
 Quadrupole moment (field-independent basis, Debye-Ang):
   XX=            -53.9866   YY=            -67.3762   ZZ=            -71.6920
   XY=             -0.5334   XZ=             -0.3209   YZ=             -1.0075

 Normal termination of Gaussian 16 at Tue Dec  5 18:44:33 2023.
