 Gaussian 16, Revision B.01,
 Gaussian 16:  ES64L-G16RevB.01 20-Dec-2017

 -------------------------
 #P B3LYP/6-311+g(d) force
 -------------------------

 -----
 DPGEN
 -----
 Symbolic Z-matrix:
 Charge =  0 Multiplicity = 2

                         Standard orientation:
 ---------------------------------------------------------------------
 Center     Atomic      Atomic             Coordinates (Angstroms)
 Number     Number       Type             X           Y           Z
 ---------------------------------------------------------------------
      1         11           0        4.018184    1.611860    0.363282
      2         11           0       -0.816020   -1.214108    1.484391
      3         11           0       -2.687731    2.378496   -1.039269
      4         11           0       -3.926322   -0.976506    0.553570
      5         11           0        0.290543    3.163291    0.047286
      6         11           0        3.033415   -1.830421   -0.257357
      7         11           0        0.087930   -3.132612   -1.151902
 ---------------------------------------------------------------------

 SCF Done:  E(UB3LYP) =  -1136.11435594     A.U. after   20 cycles

 The electronic state is 2-A.
 Alpha  occ. eigenvalues --  -38.45284 -38.44501 -38.44277 -38.44258 -38.44221
 Alpha  occ. eigenvalues --  -38.44103 -38.43670  -2.21087  -2.20286  -2.20072
 Alpha  occ. eigenvalues --   -2.20065  -2.20048  -2.19872  -2.19451  -1.14771
 Alpha  occ. eigenvalues --   -1.14753  -1.14718  -1.13981  -1.13956  -1.13926
 Alpha  occ. eigenvalues --   -1.13748  -1.13735  -1.13726  -1.13707  -1.13704
 Alpha  occ. eigenvalues --   -1.13703  -1.13691  -1.13686  -1.13672  -1.13555
 Alpha  occ. eigenvalues --   -1.13544  -1.13489  -1.13109  -1.13090  -1.13080
 Alpha  occ. eigenvalues --   -0.16283  -0.13579  -0.12983  -0.10473
 Alpha virt. eigenvalues --   -0.06837  -0.05663  -0.04185  -0.03673  -0.02944
 Alpha virt. eigenvalues --   -0.02757  -0.01990  -0.01424  -0.01214  -0.00794
 Alpha virt. eigenvalues --   -0.00458  -0.00169   0.00396   0.00433   0.00595

  Beta  occ. eigenvalues --  -38.45276 -38.44490 -38.44239 -38.44208 -38.44177
  Beta  occ. eigenvalues --  -38.44091 -38.43607  -2.21075  -2.20273  -2.20004
  Beta  occ. eigenvalues --   -2.19974  -2.19968  -2.19855  -2.19332  -1.14767
  Beta  occ. eigenvalues --   -1.14748  -1.14689  -1.13975  -1.13953  -1.13876
  Beta  occ. eigenvalues --   -1.13696  -1.13691  -1.13658  -1.13651  -1.13649
  Beta  occ. eigenvalues --   -1.13647  -1.13642  -1.13629  -1.13609  -1.13547
  Beta  occ. eigenvalues --   -1.13535  -1.13450  -1.13028  -1.13009  -1.13003
  Beta  occ. eigenvalues --   -0.15902  -0.12818  -0.12218
  Beta virt. eigenvalues --   -0.07361  -0.06879  -0.05479  -0.03789  -0.03357
  Beta virt. eigenvalues --   -0.02538  -0.02472  -0.01743  -0.01224  -0.01013
  Beta virt. eigenvalues --   -0.00664  -0.00128   0.00069   0.00472   0.00532

 Mulliken charges and spin densities:
               1          2
     1  Na   0.038485   0.334119
     2  Na   0.220272   0.116945
     3  Na   0.110727   0.135563
     4  Na  -0.027727   0.145266
     5  Na  -0.245946   0.019252
     6  Na   0.036116   0.086231
     7  Na  -0.131926   0.162622
 Sum of Mulliken charges =  -0.00000   1.00000

 Dipole moment (field-independent basis, Debye):
    X=             -1.0879    Y=             -1.0796    Z=             -0.2992  Tot=              1.5616
 Quadrupole moment (field-independent basis, Debye-Ang):
   XX=            -62.2898   YY=            -71.5399   ZZ=            -68.6475
   XY=             -0.2010   XZ=              4.0986   YZ=              2.7310

 Normal termination of Gaussian 16 at Mon Dec  4 02:41:38 2023.
