 Gaussian 16, Revision B.01,
 Gaussian 16:  ES64L-G16RevB.01 20-Dec-2017

 -------------------------
 #P B3LYP/6-311+g(d) force
 -------------------------

 -----
 DPGEN
 -----
 Symbolic Z-matrix:
 Charge =  0 Multiplicity = 2

                         Standard orientation:
 ---------------------------------------------------------------------
 Center     Atomic      Atomic             Coordinates (Angstroms)
 Number     Number       Type             X           Y           Z
 ---------------------------------------------------------------------
      1         11           0       -3.318933   -0.424134   -0.944035
      2         11           0        1.083910    2.948401   -0.464249
      3         11           0       -1.675111    0.643752    1.811376
      4         11           0       -0.095097    0.439644   -1.889045
      5         11           0        2.906603   -1.851373   -0.694418
      6         11           0        1.638206    0.436335    1.570176
      7         11           0       -0.539578   -2.192624    0.610194
 ---------------------------------------------------------------------

 SCF Done:  E(UB3LYP) =  -1136.13205333     A.U. after   21 cycles

 The electronic state is 2-A.
 Alpha  occ. eigenvalues --  -38.44237 -38.44100 -38.43990 -38.43624 -38.43622
 Alpha  occ. eigenvalues --  -38.43445 -38.42847  -2.20134  -2.19932  -2.19896
 Alpha  occ. eigenvalues --   -2.19546  -2.19417  -2.19318  -2.18698  -1.13842
 Alpha  occ. eigenvalues --   -1.13770  -1.13747  -1.13614  -1.13587  -1.13564
 Alpha  occ. eigenvalues --   -1.13559  -1.13543  -1.13510  -1.13251  -1.13202
 Alpha  occ. eigenvalues --   -1.13164  -1.13087  -1.13072  -1.13044  -1.13032
 Alpha  occ. eigenvalues --   -1.13002  -1.12898  -1.12387  -1.12352  -1.12325
 Alpha  occ. eigenvalues --   -0.18562  -0.12987  -0.11953  -0.11722
 Alpha virt. eigenvalues --   -0.05656  -0.04780  -0.04537  -0.03398  -0.03167
 Alpha virt. eigenvalues --   -0.02999  -0.01584  -0.00905  -0.00626   0.00227
 Alpha virt. eigenvalues --    0.00324   0.00341   0.00670   0.00682   0.00840

  Beta  occ. eigenvalues --  -38.44173 -38.44084 -38.43921 -38.43613 -38.43584
  Beta  occ. eigenvalues --  -38.43433 -38.42847  -2.20018  -2.19903  -2.19769
  Beta  occ. eigenvalues --   -2.19476  -2.19401  -2.19301  -2.18700  -1.13753
  Beta  occ. eigenvalues --   -1.13687  -1.13670  -1.13573  -1.13566  -1.13536
  Beta  occ. eigenvalues --   -1.13481  -1.13457  -1.13420  -1.13195  -1.13142
  Beta  occ. eigenvalues --   -1.13125  -1.13068  -1.13057  -1.13032  -1.13016
  Beta  occ. eigenvalues --   -1.12962  -1.12894  -1.12379  -1.12352  -1.12323
  Beta  occ. eigenvalues --   -0.17729  -0.12833  -0.11544
  Beta virt. eigenvalues --   -0.07902  -0.05504  -0.04491  -0.04172  -0.03045
  Beta virt. eigenvalues --   -0.02446  -0.02285  -0.01486  -0.00738  -0.00350
  Beta virt. eigenvalues --    0.00265   0.00356   0.00439   0.00730   0.00827

 Mulliken charges and spin densities:
               1          2
     1  Na   0.234557  -0.005817
     2  Na  -0.261205  -0.022823
     3  Na   0.147657   0.228598
     4  Na  -0.134994   0.541359
     5  Na   0.054883  -0.061714
     6  Na   0.432918   0.167567
     7  Na  -0.473816   0.152828
 Sum of Mulliken charges =  -0.00000   1.00000

 Dipole moment (field-independent basis, Debye):
    X=             -0.5659    Y=             -0.1216    Z=             -0.1168  Tot=              0.5905
 Quadrupole moment (field-independent basis, Debye-Ang):
   XX=            -58.1973   YY=            -70.7755   ZZ=            -66.1519
   XY=              0.0788   XZ=             -0.1103   YZ=              2.2689

 Normal termination of Gaussian 16 at Wed Nov 29 17:15:14 2023.
