 Gaussian 16, Revision B.01,
 Gaussian 16:  ES64L-G16RevB.01 20-Dec-2017

 -------------------------
 #P B3LYP/6-311+g(d) force
 -------------------------

 -----
 DPGEN
 -----
 Symbolic Z-matrix:
 Charge =  0 Multiplicity = 2

                         Standard orientation:
 ---------------------------------------------------------------------
 Center     Atomic      Atomic             Coordinates (Angstroms)
 Number     Number       Type             X           Y           Z
 ---------------------------------------------------------------------
      1         11           0       -0.617305    2.630616    0.208071
      2         11           0       -0.353164   -0.714607   -1.594373
      3         11           0       -2.962375   -2.232334   -0.210790
      4         11           0       -3.440820    0.843695   -0.191786
      5         11           0       -0.671681   -0.528660    2.137262
      6         11           0        2.702291    1.022606   -0.597564
      7         11           0        5.343054   -1.021318    0.249180
 ---------------------------------------------------------------------

 SCF Done:  E(UB3LYP) =  -1136.11127945     A.U. after   31 cycles

 The electronic state is 2-A.
 Alpha  occ. eigenvalues --  -38.45471 -38.44799 -38.44779 -38.44534 -38.43635
 Alpha  occ. eigenvalues --  -38.43544 -38.43382  -2.21319  -2.20607  -2.20582
 Alpha  occ. eigenvalues --   -2.20390  -2.19430  -2.19421  -2.19204  -1.15003
 Alpha  occ. eigenvalues --   -1.14991  -1.14973  -1.14266  -1.14235  -1.14223
 Alpha  occ. eigenvalues --   -1.14222  -1.14219  -1.14197  -1.14078  -1.14044
 Alpha  occ. eigenvalues --   -1.14008  -1.13124  -1.13112  -1.13111  -1.13075
 Alpha  occ. eigenvalues --   -1.13069  -1.13057  -1.12894  -1.12879  -1.12846
 Alpha  occ. eigenvalues --   -0.18007  -0.13850  -0.11633  -0.10760
 Alpha virt. eigenvalues --   -0.07823  -0.05361  -0.04125  -0.03254  -0.03063
 Alpha virt. eigenvalues --   -0.02466  -0.02301  -0.01901  -0.01035  -0.00658
 Alpha virt. eigenvalues --   -0.00601   0.00057   0.00163   0.00511   0.00605

  Beta  occ. eigenvalues --  -38.45494 -38.44709 -38.44680 -38.44492 -38.43636
  Beta  occ. eigenvalues --  -38.43542 -38.43405  -2.21363  -2.20423  -2.20414
  Beta  occ. eigenvalues --   -2.20312  -2.19439  -2.19422  -2.19248  -1.15033
  Beta  occ. eigenvalues --   -1.15026  -1.14989  -1.14141  -1.14113  -1.14108
  Beta  occ. eigenvalues --   -1.14107  -1.14088  -1.14088  -1.14021  -1.13997
  Beta  occ. eigenvalues --   -1.13946  -1.13136  -1.13121  -1.13108  -1.13084
  Beta  occ. eigenvalues --   -1.13031  -1.13028  -1.12939  -1.12891  -1.12867
  Beta  occ. eigenvalues --   -0.17562  -0.13075  -0.11707
  Beta virt. eigenvalues --   -0.07786  -0.06852  -0.05061  -0.04167  -0.03070
  Beta virt. eigenvalues --   -0.02652  -0.01851  -0.01752  -0.01642  -0.00733
  Beta virt. eigenvalues --   -0.00502  -0.00332   0.00023   0.00416   0.00567

 Mulliken charges and spin densities:
               1          2
     1  Na   0.130318  -0.092623
     2  Na  -0.448093   0.030864
     3  Na   0.711576   0.084735
     4  Na   0.102302   0.045929
     5  Na  -0.431308   0.426491
     6  Na  -0.156301   0.063734
     7  Na   0.091506   0.440870
 Sum of Mulliken charges =  -0.00000   1.00000

 Dipole moment (field-independent basis, Debye):
    X=             -0.7779    Y=             -0.3410    Z=              0.1333  Tot=              0.8598
 Quadrupole moment (field-independent basis, Debye-Ang):
   XX=            -57.3384   YY=            -66.8839   ZZ=            -75.0454
   XY=             -3.2320   XZ=              2.1680   YZ=             -1.6731

 Normal termination of Gaussian 16 at Thu Dec  7 04:43:38 2023.
