 Gaussian 16, Revision B.01,
 Gaussian 16:  ES64L-G16RevB.01 20-Dec-2017

 -------------------------
 #P B3LYP/6-311+g(d) force
 -------------------------

 -----
 DPGEN
 -----
 Symbolic Z-matrix:
 Charge =  0 Multiplicity = 2

                         Standard orientation:
 ---------------------------------------------------------------------
 Center     Atomic      Atomic             Coordinates (Angstroms)
 Number     Number       Type             X           Y           Z
 ---------------------------------------------------------------------
      1         11           0       -0.103398    0.080802   -1.720155
      2         11           0        1.927587   -2.582068   -0.029972
      3         11           0        3.067243    0.898474   -0.265766
      4         11           0        0.073547    3.212435    0.093431
      5         11           0       -3.131643    0.849845   -0.156343
      6         11           0       -1.885661   -2.468292   -0.046349
      7         11           0        0.052326    0.008804    2.125155
 ---------------------------------------------------------------------

 SCF Done:  E(UB3LYP) =  -1136.13776483     A.U. after   19 cycles

 The electronic state is 2-A.
 Alpha  occ. eigenvalues --  -38.44059 -38.44052 -38.43823 -38.43780 -38.43778
 Alpha  occ. eigenvalues --  -38.43714 -38.43421  -2.19854  -2.19851  -2.19609
 Alpha  occ. eigenvalues --   -2.19590  -2.19570  -2.19555  -2.19324  -1.13534
 Alpha  occ. eigenvalues --   -1.13531  -1.13515  -1.13513  -1.13490  -1.13487
 Alpha  occ. eigenvalues --   -1.13285  -1.13273  -1.13272  -1.13262  -1.13248
 Alpha  occ. eigenvalues --   -1.13246  -1.13234  -1.13224  -1.13214  -1.13206
 Alpha  occ. eigenvalues --   -1.13181  -1.13171  -1.13010  -1.12953  -1.12949
 Alpha  occ. eigenvalues --   -0.17987  -0.12720  -0.12329  -0.10551
 Alpha virt. eigenvalues --   -0.05621  -0.05381  -0.05156  -0.03042  -0.02885
 Alpha virt. eigenvalues --   -0.02591  -0.01513  -0.01344  -0.00730  -0.00682
 Alpha virt. eigenvalues --   -0.00036   0.00352   0.00761   0.00808   0.00814

  Beta  occ. eigenvalues --  -38.44053 -38.44049 -38.43821 -38.43779 -38.43776
  Beta  occ. eigenvalues --  -38.43615 -38.43360  -2.19849  -2.19846  -2.19608
  Beta  occ. eigenvalues --   -2.19588  -2.19570  -2.19372  -2.19211  -1.13519
  Beta  occ. eigenvalues --   -1.13517  -1.13506  -1.13505  -1.13489  -1.13485
  Beta  occ. eigenvalues --   -1.13274  -1.13265  -1.13264  -1.13250  -1.13245
  Beta  occ. eigenvalues --   -1.13234  -1.13229  -1.13223  -1.13207  -1.13095
  Beta  occ. eigenvalues --   -1.13054  -1.13040  -1.12932  -1.12873  -1.12865
  Beta  occ. eigenvalues --   -0.17268  -0.12512  -0.12143
  Beta virt. eigenvalues --   -0.06658  -0.05624  -0.05413  -0.04996  -0.02297
  Beta virt. eigenvalues --   -0.02149  -0.01540  -0.01411  -0.01252  -0.00793
  Beta virt. eigenvalues --   -0.00746   0.00115   0.00383   0.00799   0.00812

 Mulliken charges and spin densities:
               1          2
     1  Na   0.002833   0.557550
     2  Na   0.032257  -0.084523
     3  Na   0.094635  -0.070173
     4  Na   0.036453  -0.097477
     5  Na   0.135269  -0.081128
     6  Na   0.090699  -0.078374
     7  Na  -0.392145   0.854125
 Sum of Mulliken charges =  -0.00000   1.00000

 Dipole moment (field-independent basis, Debye):
    X=             -0.0426    Y=              0.0854    Z=              0.0214  Tot=              0.0978
 Quadrupole moment (field-independent basis, Debye-Ang):
   XX=            -57.6348   YY=            -59.8534   ZZ=            -75.6349
   XY=             -0.2430   XZ=             -0.3657   YZ=              0.1208

 Normal termination of Gaussian 16 at Fri Dec  8 07:11:44 2023.
