 Gaussian 16, Revision B.01,
 Gaussian 16:  ES64L-G16RevB.01 20-Dec-2017

 -------------------------
 #P B3LYP/6-311+g(d) force
 -------------------------

 -----
 DPGEN
 -----
 Symbolic Z-matrix:
 Charge =  0 Multiplicity = 2

                         Standard orientation:
 ---------------------------------------------------------------------
 Center     Atomic      Atomic             Coordinates (Angstroms)
 Number     Number       Type             X           Y           Z
 ---------------------------------------------------------------------
      1         11           0       -2.903757    1.782681   -0.253312
      2         11           0       -0.154022    3.452447    0.643179
      3         11           0        4.166819    0.793763   -0.051391
      4         11           0       -3.174182   -1.352938   -0.666017
      5         11           0        1.580822   -2.763275   -0.293414
      6         11           0        1.313240    0.415038   -0.727235
      7         11           0       -0.828921   -2.327715    1.348192
 ---------------------------------------------------------------------

 SCF Done:  E(UB3LYP) =  -1136.11640817     A.U. after   19 cycles

 The electronic state is 2-A.
 Alpha  occ. eigenvalues --  -38.44521 -38.44312 -38.44194 -38.43937 -38.43932
 Alpha  occ. eigenvalues --  -38.43604 -38.43573  -2.20400  -2.20189  -2.20033
 Alpha  occ. eigenvalues --   -2.19830  -2.19766  -2.19441  -2.19423  -1.14170
 Alpha  occ. eigenvalues --   -1.14072  -1.14017  -1.13845  -1.13826  -1.13798
 Alpha  occ. eigenvalues --   -1.13792  -1.13664  -1.13646  -1.13508  -1.13475
 Alpha  occ. eigenvalues --   -1.13468  -1.13440  -1.13428  -1.13417  -1.13090
 Alpha  occ. eigenvalues --   -1.13081  -1.13073  -1.13064  -1.13056  -1.13053
 Alpha  occ. eigenvalues --   -0.17184  -0.13806  -0.13257  -0.10196
 Alpha virt. eigenvalues --   -0.06213  -0.05597  -0.04620  -0.03150  -0.02878
 Alpha virt. eigenvalues --   -0.02596  -0.01643  -0.01369  -0.00947  -0.00668
 Alpha virt. eigenvalues --   -0.00093   0.00016   0.00418   0.00577   0.00760

  Beta  occ. eigenvalues --  -38.44497 -38.44300 -38.44125 -38.43938 -38.43924
  Beta  occ. eigenvalues --  -38.43547 -38.43511  -2.20359  -2.20171  -2.19906
  Beta  occ. eigenvalues --   -2.19843  -2.19750  -2.19327  -2.19318  -1.14129
  Beta  occ. eigenvalues --   -1.14045  -1.13992  -1.13832  -1.13817  -1.13764
  Beta  occ. eigenvalues --   -1.13729  -1.13578  -1.13562  -1.13511  -1.13484
  Beta  occ. eigenvalues --   -1.13445  -1.13436  -1.13403  -1.13367  -1.13015
  Beta  occ. eigenvalues --   -1.13007  -1.13001  -1.12987  -1.12984  -1.12976
  Beta  occ. eigenvalues --   -0.16892  -0.13001  -0.12601
  Beta virt. eigenvalues --   -0.07007  -0.06182  -0.05328  -0.04359  -0.02738
  Beta virt. eigenvalues --   -0.02489  -0.02220  -0.01475  -0.01073  -0.00752
  Beta virt. eigenvalues --   -0.00487   0.00203   0.00265   0.00469   0.00621

 Mulliken charges and spin densities:
               1          2
     1  Na  -0.244478   0.045040
     2  Na   0.354032   0.213673
     3  Na   0.514454   0.176662
     4  Na   0.280943   0.395383
     5  Na   0.097858   0.056684
     6  Na  -1.401764   0.078317
     7  Na   0.398955   0.034242
 Sum of Mulliken charges =  -0.00000   1.00000

 Dipole moment (field-independent basis, Debye):
    X=              0.8291    Y=             -0.7378    Z=              0.4814  Tot=              1.2098
 Quadrupole moment (field-independent basis, Debye-Ang):
   XX=            -67.1824   YY=            -65.8929   ZZ=            -67.8208
   XY=             -1.2294   XZ=              1.1995   YZ=              2.2478

 Normal termination of Gaussian 16 at Wed Nov 29 02:02:55 2023.
