 Gaussian 16, Revision B.01,
 Gaussian 16:  ES64L-G16RevB.01 20-Dec-2017

 -------------------------
 #P B3LYP/6-311+g(d) force
 -------------------------

 -----
 DPGEN
 -----
 Symbolic Z-matrix:
 Charge =  0 Multiplicity = 2

                         Standard orientation:
 ---------------------------------------------------------------------
 Center     Atomic      Atomic             Coordinates (Angstroms)
 Number     Number       Type             X           Y           Z
 ---------------------------------------------------------------------
      1         11           0       -0.035278    0.107593   -1.687019
      2         11           0       -1.789554    2.247619   -0.058813
      3         11           0        1.715824    2.229472    0.092677
      4         11           0        2.752704   -0.782789   -0.039471
      5         11           0        0.254125   -2.700948    0.021920
      6         11           0       -0.220801    0.038497    1.731040
      7         11           0       -2.677020   -1.139445   -0.060334
 ---------------------------------------------------------------------

 SCF Done:  E(UB3LYP) =  -1136.13734859     A.U. after   17 cycles

 The electronic state is 2-A.
 Alpha  occ. eigenvalues --  -38.43597 -38.43496 -38.43456 -38.43400 -38.43176
 Alpha  occ. eigenvalues --  -38.43017 -38.42967  -2.19503  -2.19401  -2.19380
 Alpha  occ. eigenvalues --   -2.19316  -2.19118  -2.19058  -2.19025  -1.13205
 Alpha  occ. eigenvalues --   -1.13173  -1.13147  -1.13109  -1.13101  -1.13085
 Alpha  occ. eigenvalues --   -1.13080  -1.13032  -1.13022  -1.12981  -1.12976
 Alpha  occ. eigenvalues --   -1.12916  -1.12834  -1.12788  -1.12741  -1.12735
 Alpha  occ. eigenvalues --   -1.12680  -1.12668  -1.12660  -1.12637  -1.12632
 Alpha  occ. eigenvalues --   -0.19670  -0.13209  -0.12927  -0.10829
 Alpha virt. eigenvalues --   -0.05212  -0.05061  -0.04678  -0.03095  -0.02951
 Alpha virt. eigenvalues --   -0.02311  -0.01267  -0.01088  -0.00037   0.00010
 Alpha virt. eigenvalues --    0.00040   0.00370   0.00902   0.00946   0.00982

  Beta  occ. eigenvalues --  -38.43591 -38.43488 -38.43451 -38.43393 -38.43168
  Beta  occ. eigenvalues --  -38.42935 -38.42888  -2.19495  -2.19392  -2.19375
  Beta  occ. eigenvalues --   -2.19307  -2.19109  -2.18910  -2.18881  -1.13200
  Beta  occ. eigenvalues --   -1.13146  -1.13133  -1.13106  -1.13097  -1.13084
  Beta  occ. eigenvalues --   -1.13038  -1.13020  -1.12996  -1.12974  -1.12940
  Beta  occ. eigenvalues --   -1.12916  -1.12815  -1.12741  -1.12738  -1.12650
  Beta  occ. eigenvalues --   -1.12583  -1.12562  -1.12560  -1.12534  -1.12532
  Beta  occ. eigenvalues --   -0.18921  -0.12926  -0.12635
  Beta virt. eigenvalues --   -0.06853  -0.05212  -0.05054  -0.04683  -0.02250
  Beta virt. eigenvalues --   -0.02107  -0.01250  -0.01193  -0.01026  -0.00098
  Beta virt. eigenvalues --   -0.00040   0.00152   0.00392   0.00939   0.00948

 Mulliken charges and spin densities:
               1          2
     1  Na  -0.560870   0.661771
     2  Na   0.239456  -0.119104
     3  Na   0.242423  -0.069191
     4  Na   0.125151  -0.037680
     5  Na   0.254090  -0.045068
     6  Na  -0.558166   0.696898
     7  Na   0.257917  -0.087628
 Sum of Mulliken charges =  -0.00000   1.00000

 Dipole moment (field-independent basis, Debye):
    X=             -0.1676    Y=              0.1240    Z=              0.0203  Tot=              0.2095
 Quadrupole moment (field-independent basis, Debye-Ang):
   XX=            -57.9204   YY=            -61.1241   ZZ=            -74.2739
   XY=              0.0558   XZ=              0.4143   YZ=              0.1800

 Normal termination of Gaussian 16 at Fri Dec  8 17:36:23 2023.
