 Gaussian 16, Revision B.01,
 Gaussian 16:  ES64L-G16RevB.01 20-Dec-2017

 -------------------------
 #P B3LYP/6-311+g(d) force
 -------------------------

 -----
 DPGEN
 -----
 Symbolic Z-matrix:
 Charge =  0 Multiplicity = 2

                         Standard orientation:
 ---------------------------------------------------------------------
 Center     Atomic      Atomic             Coordinates (Angstroms)
 Number     Number       Type             X           Y           Z
 ---------------------------------------------------------------------
      1         11           0       -1.166684   -2.134384   -0.627886
      2         11           0        1.317272   -0.530362   -1.833867
      3         11           0       -1.109965    2.123155   -0.515804
      4         11           0        2.639137   -1.629469    0.987850
      5         11           0       -0.141842    0.301184    1.821193
      6         11           0        2.577867    1.883013   -0.081354
      7         11           0       -4.115785   -0.013136    0.249867
 ---------------------------------------------------------------------

 SCF Done:  E(UB3LYP) =  -1136.12677203     A.U. after   22 cycles

 The electronic state is 2-A.
 Alpha  occ. eigenvalues --  -38.45450 -38.44132 -38.43999 -38.43776 -38.43340
 Alpha  occ. eigenvalues --  -38.43286 -38.43224  -2.21192  -2.20032  -2.19844
 Alpha  occ. eigenvalues --   -2.19622  -2.19234  -2.19185  -2.19061  -1.14872
 Alpha  occ. eigenvalues --   -1.14854  -1.14817  -1.13742  -1.13682  -1.13640
 Alpha  occ. eigenvalues --   -1.13515  -1.13502  -1.13470  -1.13324  -1.13274
 Alpha  occ. eigenvalues --   -1.13248  -1.12946  -1.12909  -1.12873  -1.12861
 Alpha  occ. eigenvalues --   -1.12840  -1.12768  -1.12746  -1.12735  -1.12652
 Alpha  occ. eigenvalues --   -0.18433  -0.13451  -0.11471  -0.11032
 Alpha virt. eigenvalues --   -0.06952  -0.05064  -0.03948  -0.03248  -0.02716
 Alpha virt. eigenvalues --   -0.02600  -0.02424  -0.01215  -0.00578  -0.00165
 Alpha virt. eigenvalues --    0.00125   0.00170   0.00393   0.00709   0.00784

  Beta  occ. eigenvalues --  -38.45456 -38.44069 -38.43967 -38.43766 -38.43333
  Beta  occ. eigenvalues --  -38.43217 -38.43207  -2.21203  -2.19918  -2.19788
  Beta  occ. eigenvalues --   -2.19607  -2.19174  -2.19107  -2.19032  -1.14877
  Beta  occ. eigenvalues --   -1.14862  -1.14824  -1.13662  -1.13601  -1.13558
  Beta  occ. eigenvalues --   -1.13476  -1.13450  -1.13426  -1.13305  -1.13250
  Beta  occ. eigenvalues --   -1.13238  -1.12902  -1.12863  -1.12833  -1.12790
  Beta  occ. eigenvalues --   -1.12763  -1.12753  -1.12718  -1.12687  -1.12633
  Beta  occ. eigenvalues --   -0.17691  -0.13309  -0.11223
  Beta virt. eigenvalues --   -0.07057  -0.06808  -0.05056  -0.03605  -0.02925
  Beta virt. eigenvalues --   -0.02416  -0.01967  -0.01548  -0.01134  -0.00343
  Beta virt. eigenvalues --   -0.00086   0.00111   0.00210   0.00566   0.00768

 Mulliken charges and spin densities:
               1          2
     1  Na  -0.352012  -0.060855
     2  Na   0.166270   0.504374
     3  Na  -0.228577  -0.065352
     4  Na   0.044676   0.071093
     5  Na  -0.197440   0.569449
     6  Na   0.297448   0.015020
     7  Na   0.269634  -0.033729
 Sum of Mulliken charges =  -0.00000   1.00000

 Dipole moment (field-independent basis, Debye):
    X=             -0.7740    Y=              0.1210    Z=              0.3127  Tot=              0.8435
 Quadrupole moment (field-independent basis, Debye-Ang):
   XX=            -45.7963   YY=            -73.6992   ZZ=            -72.0944
   XY=              0.2377   XZ=              0.4282   YZ=             -2.1000

 Normal termination of Gaussian 16 at Sun Dec  3 15:43:12 2023.
