 Gaussian 16, Revision B.01,
 Gaussian 16:  ES64L-G16RevB.01 20-Dec-2017

 -------------------------
 #P B3LYP/6-311+g(d) force
 -------------------------

 -----
 DPGEN
 -----
 Symbolic Z-matrix:
 Charge =  0 Multiplicity = 2

                         Standard orientation:
 ---------------------------------------------------------------------
 Center     Atomic      Atomic             Coordinates (Angstroms)
 Number     Number       Type             X           Y           Z
 ---------------------------------------------------------------------
      1         11           0       -2.605472    1.712006    0.095395
      2         11           0        0.910570    2.686711   -0.195435
      3         11           0        0.077684   -0.013196    1.928097
      4         11           0       -2.418284   -1.959687   -0.054580
      5         11           0        3.338462   -0.166642    0.016227
      6         11           0       -0.183942    0.166467   -1.565612
      7         11           0        0.880982   -2.425658   -0.224091
 ---------------------------------------------------------------------

 SCF Done:  E(UB3LYP) =  -1136.13678974     A.U. after   19 cycles

 The electronic state is 2-A.
 Alpha  occ. eigenvalues --  -38.44224 -38.43979 -38.43630 -38.43463 -38.43315
 Alpha  occ. eigenvalues --  -38.43052 -38.42974  -2.20034  -2.19812  -2.19480
 Alpha  occ. eigenvalues --   -2.19332  -2.19244  -2.19016  -2.18987  -1.13705
 Alpha  occ. eigenvalues --   -1.13698  -1.13674  -1.13497  -1.13476  -1.13443
 Alpha  occ. eigenvalues --   -1.13157  -1.13142  -1.13125  -1.13081  -1.13000
 Alpha  occ. eigenvalues --   -1.12937  -1.12934  -1.12874  -1.12847  -1.12783
 Alpha  occ. eigenvalues --   -1.12674  -1.12644  -1.12622  -1.12591  -1.12588
 Alpha  occ. eigenvalues --   -0.18953  -0.13008  -0.12587  -0.10572
 Alpha virt. eigenvalues --   -0.05815  -0.05209  -0.04444  -0.03018  -0.02817
 Alpha virt. eigenvalues --   -0.02337  -0.01759  -0.01189  -0.00341  -0.00122
 Alpha virt. eigenvalues --    0.00004   0.00333   0.00771   0.00864   0.00922

  Beta  occ. eigenvalues --  -38.44224 -38.43975 -38.43627 -38.43454 -38.43225
  Beta  occ. eigenvalues --  -38.43040 -38.42907  -2.20037  -2.19808  -2.19477
  Beta  occ. eigenvalues --   -2.19320  -2.19077  -2.18972  -2.18893  -1.13709
  Beta  occ. eigenvalues --   -1.13682  -1.13678  -1.13489  -1.13456  -1.13444
  Beta  occ. eigenvalues --   -1.13154  -1.13131  -1.13114  -1.13063  -1.12966
  Beta  occ. eigenvalues --   -1.12931  -1.12833  -1.12762  -1.12732  -1.12725
  Beta  occ. eigenvalues --   -1.12604  -1.12590  -1.12589  -1.12530  -1.12519
  Beta  occ. eigenvalues --   -0.18216  -0.12792  -0.12309
  Beta virt. eigenvalues --   -0.06635  -0.05785  -0.05213  -0.04437  -0.02263
  Beta virt. eigenvalues --   -0.02005  -0.01674  -0.01263  -0.01135  -0.00397
  Beta virt. eigenvalues --   -0.00162   0.00140   0.00358   0.00812   0.00863

 Mulliken charges and spin densities:
               1          2
     1  Na   0.164894  -0.075135
     2  Na   0.182996  -0.115781
     3  Na  -0.556958   0.827737
     4  Na   0.169470  -0.056731
     5  Na   0.106441  -0.053960
     6  Na  -0.369880   0.494865
     7  Na   0.303038  -0.020995
 Sum of Mulliken charges =  -0.00000   1.00000

 Dipole moment (field-independent basis, Debye):
    X=             -0.0204    Y=              0.2197    Z=              0.2012  Tot=              0.2986
 Quadrupole moment (field-independent basis, Debye-Ang):
   XX=            -52.6489   YY=            -63.6330   ZZ=            -75.5002
   XY=              0.3883   XZ=             -0.5203   YZ=              0.4062

 Normal termination of Gaussian 16 at Thu Dec  7 21:04:01 2023.
