 Gaussian 16, Revision B.01,
 Gaussian 16:  ES64L-G16RevB.01 20-Dec-2017

 -------------------------
 #P B3LYP/6-311+g(d) force
 -------------------------

 -----
 DPGEN
 -----
 Symbolic Z-matrix:
 Charge =  0 Multiplicity = 2

                         Standard orientation:
 ---------------------------------------------------------------------
 Center     Atomic      Atomic             Coordinates (Angstroms)
 Number     Number       Type             X           Y           Z
 ---------------------------------------------------------------------
      1         11           0        0.354807    3.352927   -0.056773
      2         11           0       -0.316199   -3.092528    0.008480
      3         11           0        3.101341   -1.892824    0.625357
      4         11           0        3.069529    1.265092   -0.621300
      5         11           0       -3.469255   -1.502707   -0.549880
      6         11           0       -2.763495    1.951089    0.692925
      7         11           0        0.023272   -0.081049   -0.098809
 ---------------------------------------------------------------------

 SCF Done:  E(UB3LYP) =  -1136.12743455     A.U. after   24 cycles

 The electronic state is 2-A.
 Alpha  occ. eigenvalues --  -38.44409 -38.44086 -38.44004 -38.43820 -38.43818
 Alpha  occ. eigenvalues --  -38.43576 -38.43457  -2.20253  -2.19893  -2.19832
 Alpha  occ. eigenvalues --   -2.19768  -2.19653  -2.19442  -2.19294  -1.14016
 Alpha  occ. eigenvalues --   -1.13927  -1.13842  -1.13561  -1.13539  -1.13527
 Alpha  occ. eigenvalues --   -1.13518  -1.13515  -1.13493  -1.13467  -1.13421
 Alpha  occ. eigenvalues --   -1.13390  -1.13317  -1.13311  -1.13277  -1.13105
 Alpha  occ. eigenvalues --   -1.13090  -1.13063  -1.12954  -1.12934  -1.12922
 Alpha  occ. eigenvalues --   -0.17459  -0.13732  -0.13443  -0.09572
 Alpha virt. eigenvalues --   -0.06789  -0.05482  -0.04260  -0.03518  -0.02675
 Alpha virt. eigenvalues --   -0.02408  -0.01744  -0.01347  -0.01264  -0.00366
 Alpha virt. eigenvalues --   -0.00154   0.00282   0.00556   0.00648   0.00670

  Beta  occ. eigenvalues --  -38.44401 -38.44044 -38.43995 -38.43828 -38.43781
  Beta  occ. eigenvalues --  -38.43532 -38.43400  -2.20244  -2.19823  -2.19817
  Beta  occ. eigenvalues --   -2.19785  -2.19581  -2.19363  -2.19188  -1.14019
  Beta  occ. eigenvalues --   -1.13926  -1.13789  -1.13531  -1.13516  -1.13510
  Beta  occ. eigenvalues --   -1.13493  -1.13479  -1.13468  -1.13439  -1.13410
  Beta  occ. eigenvalues --   -1.13400  -1.13267  -1.13261  -1.13228  -1.13053
  Beta  occ. eigenvalues --   -1.13040  -1.12996  -1.12882  -1.12866  -1.12845
  Beta  occ. eigenvalues --   -0.17178  -0.13173  -0.12691
  Beta virt. eigenvalues --   -0.06832  -0.06373  -0.05214  -0.04130  -0.02893
  Beta virt. eigenvalues --   -0.02262  -0.02026  -0.01601  -0.01229  -0.01012
  Beta virt. eigenvalues --   -0.00169   0.00161   0.00442   0.00595   0.00735

 Mulliken charges and spin densities:
               1          2
     1  Na   1.225107   0.070251
     2  Na   1.609818   0.158826
     3  Na   0.643970   0.213288
     4  Na   0.776062   0.219556
     5  Na   0.632327   0.242124
     6  Na   0.544599   0.296723
     7  Na  -5.431883  -0.200768
 Sum of Mulliken charges =  -0.00000   1.00000

 Dipole moment (field-independent basis, Debye):
    X=              0.0408    Y=             -0.2997    Z=              0.0320  Tot=              0.3041
 Quadrupole moment (field-independent basis, Debye-Ang):
   XX=            -57.5250   YY=            -65.1256   ZZ=            -72.9125
   XY=             -0.1790   XZ=              0.7863   YZ=             -0.4047

 Normal termination of Gaussian 16 at Wed Nov 29 16:39:50 2023.
