 Gaussian 16, Revision B.01,
 Gaussian 16:  ES64L-G16RevB.01 20-Dec-2017

 -------------------------
 #P B3LYP/6-311+g(d) force
 -------------------------

 -----
 DPGEN
 -----
 Symbolic Z-matrix:
 Charge =  0 Multiplicity = 2

                         Standard orientation:
 ---------------------------------------------------------------------
 Center     Atomic      Atomic             Coordinates (Angstroms)
 Number     Number       Type             X           Y           Z
 ---------------------------------------------------------------------
      1         11           0        3.976970   -0.188308   -0.948174
      2         11           0        1.207427    1.742915    1.205667
      3         11           0        1.214251   -1.720996    1.392990
      4         11           0       -2.389194   -0.065855    1.479677
      5         11           0       -1.935319    2.953218   -0.949788
      6         11           0       -2.428079   -2.607932   -1.111596
      7         11           0        0.353944   -0.113043   -1.068775
 ---------------------------------------------------------------------

 SCF Done:  E(UB3LYP) =  -1136.12258429     A.U. after   20 cycles

 The electronic state is 2-A.
 Alpha  occ. eigenvalues --  -38.44639 -38.44571 -38.44109 -38.43994 -38.43599
 Alpha  occ. eigenvalues --  -38.43529 -38.43423  -2.20416  -2.20359  -2.19973
 Alpha  occ. eigenvalues --   -2.19856  -2.19564  -2.19306  -2.19190  -1.14084
 Alpha  occ. eigenvalues --   -1.14076  -1.14041  -1.14030  -1.14024  -1.13978
 Alpha  occ. eigenvalues --   -1.13737  -1.13639  -1.13613  -1.13553  -1.13510
 Alpha  occ. eigenvalues --   -1.13430  -1.13289  -1.13203  -1.13148  -1.12975
 Alpha  occ. eigenvalues --   -1.12963  -1.12929  -1.12864  -1.12851  -1.12812
 Alpha  occ. eigenvalues --   -0.17910  -0.12993  -0.11503  -0.10626
 Alpha virt. eigenvalues --   -0.06243  -0.05406  -0.04861  -0.03005  -0.02608
 Alpha virt. eigenvalues --   -0.02298  -0.02001  -0.01182  -0.01127  -0.00192
 Alpha virt. eigenvalues --    0.00053   0.00171   0.00290   0.00409   0.00662

  Beta  occ. eigenvalues --  -38.44604 -38.44562 -38.44067 -38.43969 -38.43577
  Beta  occ. eigenvalues --  -38.43504 -38.43407  -2.20350  -2.20344  -2.19900
  Beta  occ. eigenvalues --   -2.19814  -2.19525  -2.19260  -2.19160  -1.14033
  Beta  occ. eigenvalues --   -1.14030  -1.14026  -1.14000  -1.13984  -1.13974
  Beta  occ. eigenvalues --   -1.13693  -1.13603  -1.13545  -1.13505  -1.13447
  Beta  occ. eigenvalues --   -1.13408  -1.13234  -1.13179  -1.13120  -1.12939
  Beta  occ. eigenvalues --   -1.12930  -1.12901  -1.12839  -1.12830  -1.12794
  Beta  occ. eigenvalues --   -0.17222  -0.12710  -0.11314
  Beta virt. eigenvalues --   -0.07040  -0.05943  -0.05213  -0.04487  -0.02712
  Beta virt. eigenvalues --   -0.02282  -0.02039  -0.01361  -0.01095  -0.00677
  Beta virt. eigenvalues --   -0.00097   0.00181   0.00252   0.00388   0.00499

 Mulliken charges and spin densities:
               1          2
     1  Na   0.298409   0.120631
     2  Na   0.195101   0.137945
     3  Na   0.156161   0.170116
     4  Na   0.238009   0.140137
     5  Na  -0.064470  -0.028699
     6  Na  -0.074394   0.012610
     7  Na  -0.748817   0.447261
 Sum of Mulliken charges =  -0.00000   1.00000

 Dipole moment (field-independent basis, Debye):
    X=              0.6541    Y=             -0.0873    Z=              0.5932  Tot=              0.8874
 Quadrupole moment (field-independent basis, Debye-Ang):
   XX=            -54.2992   YY=            -69.2271   ZZ=            -68.2167
   XY=             -0.6054   XZ=             -0.9482   YZ=              0.1009

 Normal termination of Gaussian 16 at Thu Dec  7 07:07:26 2023.
