 Gaussian 16, Revision B.01,
 Gaussian 16:  ES64L-G16RevB.01 20-Dec-2017

 -------------------------
 #P B3LYP/6-311+g(d) force
 -------------------------

 -----
 DPGEN
 -----
 Symbolic Z-matrix:
 Charge =  0 Multiplicity = 2

                         Standard orientation:
 ---------------------------------------------------------------------
 Center     Atomic      Atomic             Coordinates (Angstroms)
 Number     Number       Type             X           Y           Z
 ---------------------------------------------------------------------
      1         11           0        0.038440   -2.673013   -0.412162
      2         11           0       -2.910852   -0.954735    0.146946
      3         11           0       -1.452999    2.475564    0.029645
      4         11           0       -0.041425    0.004436    2.004814
      5         11           0       -0.347025    0.042884   -1.654687
      6         11           0        1.863456    2.242867   -0.326279
      7         11           0        2.850404   -1.138003    0.211723
 ---------------------------------------------------------------------

 SCF Done:  E(UB3LYP) =  -1136.13844246     A.U. after   19 cycles

 The electronic state is 2-A.
 Alpha  occ. eigenvalues --  -38.43674 -38.43578 -38.43532 -38.43519 -38.43476
 Alpha  occ. eigenvalues --  -38.43299 -38.43199  -2.19536  -2.19497  -2.19379
 Alpha  occ. eigenvalues --   -2.19376  -2.19367  -2.19240  -2.19219  -1.13229
 Alpha  occ. eigenvalues --   -1.13210  -1.13179  -1.13169  -1.13140  -1.13116
 Alpha  occ. eigenvalues --   -1.13113  -1.13073  -1.13062  -1.13049  -1.13043
 Alpha  occ. eigenvalues --   -1.13039  -1.13028  -1.13016  -1.13001  -1.12957
 Alpha  occ. eigenvalues --   -1.12885  -1.12855  -1.12840  -1.12817  -1.12793
 Alpha  occ. eigenvalues --   -0.19084  -0.12848  -0.12824  -0.10983
 Alpha virt. eigenvalues --   -0.05249  -0.05080  -0.04690  -0.03112  -0.03100
 Alpha virt. eigenvalues --   -0.02658  -0.01341  -0.01070  -0.00185  -0.00075
 Alpha virt. eigenvalues --    0.00037   0.00366   0.00868   0.00920   0.00943

  Beta  occ. eigenvalues --  -38.43669 -38.43530 -38.43513 -38.43485 -38.43469
  Beta  occ. eigenvalues --  -38.43286 -38.43129  -2.19530  -2.19377  -2.19369
  Beta  occ. eigenvalues --   -2.19359  -2.19326  -2.19205  -2.19109  -1.13221
  Beta  occ. eigenvalues --   -1.13186  -1.13165  -1.13112  -1.13081  -1.13060
  Beta  occ. eigenvalues --   -1.13051  -1.13044  -1.13029  -1.13024  -1.13011
  Beta  occ. eigenvalues --   -1.12999  -1.12992  -1.12984  -1.12969  -1.12952
  Beta  occ. eigenvalues --   -1.12834  -1.12817  -1.12793  -1.12746  -1.12722
  Beta  occ. eigenvalues --   -0.18338  -0.12600  -0.12559
  Beta virt. eigenvalues --   -0.07027  -0.05239  -0.05055  -0.04664  -0.02323
  Beta virt. eigenvalues --   -0.02282  -0.01573  -0.01261  -0.01004  -0.00210
  Beta virt. eigenvalues --   -0.00111   0.00134   0.00385   0.00900   0.00925

 Mulliken charges and spin densities:
               1          2
     1  Na   0.283986  -0.011583
     2  Na   0.205488  -0.044816
     3  Na   0.202162  -0.056261
     4  Na  -0.537019   0.781364
     5  Na  -0.229791   0.412210
     6  Na   0.059027  -0.046473
     7  Na   0.016147  -0.034442
 Sum of Mulliken charges =  -0.00000   1.00000

 Dipole moment (field-independent basis, Debye):
    X=             -0.1099    Y=              0.1119    Z=              0.2291  Tot=              0.2777
 Quadrupole moment (field-independent basis, Debye-Ang):
   XX=            -57.9420   YY=            -62.6747   ZZ=            -73.2503
   XY=              0.2858   XZ=             -0.6754   YZ=             -0.0497

 Normal termination of Gaussian 16 at Thu Dec  7 08:04:21 2023.
