 Gaussian 16, Revision B.01,
 Gaussian 16:  ES64L-G16RevB.01 20-Dec-2017

 -------------------------
 #P B3LYP/6-311+g(d) force
 -------------------------

 -----
 DPGEN
 -----
 Symbolic Z-matrix:
 Charge =  0 Multiplicity = 2

                         Standard orientation:
 ---------------------------------------------------------------------
 Center     Atomic      Atomic             Coordinates (Angstroms)
 Number     Number       Type             X           Y           Z
 ---------------------------------------------------------------------
      1         11           0       -2.235269    2.060201    0.566028
      2         11           0       -1.603204   -0.941679   -0.843072
      3         11           0        2.618553   -1.947041   -0.867556
      4         11           0        1.382456    1.545935    0.454740
      5         11           0        4.393382    1.216969   -0.655918
      6         11           0        0.203492   -1.712004    2.184912
      7         11           0       -4.759409   -0.222382   -0.839133
 ---------------------------------------------------------------------

 SCF Done:  E(UB3LYP) =  -1136.11985621     A.U. after   26 cycles

 The electronic state is 2-A.
 Alpha  occ. eigenvalues --  -38.45126 -38.44563 -38.44268 -38.44252 -38.43709
 Alpha  occ. eigenvalues --  -38.43533 -38.42916  -2.20898  -2.20384  -2.20113
 Alpha  occ. eigenvalues --   -2.20094  -2.19561  -2.19313  -2.18731  -1.14597
 Alpha  occ. eigenvalues --   -1.14547  -1.14494  -1.14077  -1.14052  -1.13994
 Alpha  occ. eigenvalues --   -1.13840  -1.13801  -1.13777  -1.13739  -1.13714
 Alpha  occ. eigenvalues --   -1.13656  -1.13266  -1.13208  -1.13196  -1.12994
 Alpha  occ. eigenvalues --   -1.12977  -1.12938  -1.12401  -1.12390  -1.12372
 Alpha  occ. eigenvalues --   -0.17252  -0.14136  -0.11465  -0.10964
 Alpha virt. eigenvalues --   -0.06373  -0.05887  -0.04442  -0.03146  -0.02956
 Alpha virt. eigenvalues --   -0.02537  -0.02089  -0.01311  -0.01216  -0.00843
 Alpha virt. eigenvalues --   -0.00135   0.00107   0.00351   0.00468   0.00653

  Beta  occ. eigenvalues --  -38.45087 -38.44523 -38.44237 -38.44213 -38.43669
  Beta  occ. eigenvalues --  -38.43530 -38.42914  -2.20826  -2.20313  -2.20090
  Beta  occ. eigenvalues --   -2.19992  -2.19491  -2.19308  -2.18728  -1.14548
  Beta  occ. eigenvalues --   -1.14502  -1.14437  -1.14031  -1.14007  -1.13915
  Beta  occ. eigenvalues --   -1.13810  -1.13771  -1.13732  -1.13670  -1.13652
  Beta  occ. eigenvalues --   -1.13613  -1.13223  -1.13165  -1.13117  -1.12991
  Beta  occ. eigenvalues --   -1.12965  -1.12936  -1.12402  -1.12388  -1.12362
  Beta  occ. eigenvalues --   -0.16549  -0.13735  -0.10910
  Beta virt. eigenvalues --   -0.07722  -0.06024  -0.05528  -0.04077  -0.02841
  Beta virt. eigenvalues --   -0.02646  -0.02129  -0.01821  -0.01125  -0.00844
  Beta virt. eigenvalues --   -0.00548  -0.00038   0.00179   0.00418   0.00587

 Mulliken charges and spin densities:
               1          2
     1  Na   0.084513   0.003669
     2  Na  -1.259202   0.168669
     3  Na   0.126817   0.264418
     4  Na  -0.922597   0.111890
     5  Na   0.785736   0.249388
     6  Na   0.120915   0.093797
     7  Na   1.063818   0.108169
 Sum of Mulliken charges =  -0.00000   1.00000

 Dipole moment (field-independent basis, Debye):
    X=             -1.0316    Y=             -0.7210    Z=              0.2116  Tot=              1.2762
 Quadrupole moment (field-independent basis, Debye-Ang):
   XX=            -60.3825   YY=            -71.6466   ZZ=            -66.2273
   XY=             -5.0521   XZ=             -1.7388   YZ=              4.4725

 Normal termination of Gaussian 16 at Tue Nov 28 21:22:42 2023.
