 Gaussian 16, Revision B.01,
 Gaussian 16:  ES64L-G16RevB.01 20-Dec-2017

 -------------------------
 #P B3LYP/6-311+g(d) force
 -------------------------

 -----
 DPGEN
 -----
 Symbolic Z-matrix:
 Charge =  0 Multiplicity = 2

                         Standard orientation:
 ---------------------------------------------------------------------
 Center     Atomic      Atomic             Coordinates (Angstroms)
 Number     Number       Type             X           Y           Z
 ---------------------------------------------------------------------
      1         11           0       -0.202816    0.174872    1.921000
      2         11           0        2.574911    2.321568    0.141187
      3         11           0       -0.290471    0.119228   -1.387890
      4         11           0       -3.011012   -1.312539   -0.069692
      5         11           0        3.086481   -0.804309   -0.471754
      6         11           0        0.614430   -2.587103    0.147946
      7         11           0       -2.771523    2.088282   -0.280798
 ---------------------------------------------------------------------

 SCF Done:  E(UB3LYP) =  -1136.12706448     A.U. after   21 cycles

 The electronic state is 2-A.
 Alpha  occ. eigenvalues --  -38.44895 -38.44232 -38.44136 -38.43840 -38.43684
 Alpha  occ. eigenvalues --  -38.43332 -38.42575  -2.20727  -2.20050  -2.20018
 Alpha  occ. eigenvalues --   -2.19655  -2.19636  -2.19239  -2.18491  -1.14413
 Alpha  occ. eigenvalues --   -1.14386  -1.14354  -1.13729  -1.13698  -1.13697
 Alpha  occ. eigenvalues --   -1.13693  -1.13677  -1.13669  -1.13383  -1.13303
 Alpha  occ. eigenvalues --   -1.13302  -1.13296  -1.13278  -1.13265  -1.12925
 Alpha  occ. eigenvalues --   -1.12860  -1.12837  -1.12183  -1.12143  -1.12132
 Alpha  occ. eigenvalues --   -0.18589  -0.13907  -0.11695  -0.10360
 Alpha virt. eigenvalues --   -0.06288  -0.06031  -0.04020  -0.03338  -0.02418
 Alpha virt. eigenvalues --   -0.02216  -0.02168  -0.01447  -0.00788  -0.00192
 Alpha virt. eigenvalues --   -0.00037   0.00251   0.00615   0.00697   0.00833

  Beta  occ. eigenvalues --  -38.44888 -38.44225 -38.44121 -38.43842 -38.43646
  Beta  occ. eigenvalues --  -38.43228 -38.42567  -2.20717  -2.20040  -2.19991
  Beta  occ. eigenvalues --   -2.19641  -2.19587  -2.19048  -2.18482  -1.14400
  Beta  occ. eigenvalues --   -1.14376  -1.14338  -1.13718  -1.13692  -1.13683
  Beta  occ. eigenvalues --   -1.13674  -1.13659  -1.13639  -1.13322  -1.13308
  Beta  occ. eigenvalues --   -1.13291  -1.13276  -1.13250  -1.13216  -1.12798
  Beta  occ. eigenvalues --   -1.12727  -1.12698  -1.12181  -1.12137  -1.12091
  Beta  occ. eigenvalues --   -0.17892  -0.13637  -0.11482
  Beta virt. eigenvalues --   -0.06549  -0.06217  -0.05903  -0.03966  -0.02671
  Beta virt. eigenvalues --   -0.02102  -0.01684  -0.01491  -0.01109  -0.00783
  Beta virt. eigenvalues --   -0.00189   0.00124   0.00308   0.00693   0.00715

 Mulliken charges and spin densities:
               1          2
     1  Na  -0.413938   0.643164
     2  Na   0.068034   0.015941
     3  Na  -0.313169   0.144760
     4  Na   0.278929   0.031903
     5  Na   0.214647   0.073727
     6  Na   0.099389   0.065099
     7  Na   0.066109   0.025406
 Sum of Mulliken charges =  -0.00000   1.00000

 Dipole moment (field-independent basis, Debye):
    X=             -0.8342    Y=              0.1205    Z=              0.1184  Tot=              0.8512
 Quadrupole moment (field-independent basis, Debye-Ang):
   XX=            -51.7663   YY=            -64.9493   ZZ=            -76.1825
   XY=              0.5152   XZ=             -0.6768   YZ=             -0.0789

 Normal termination of Gaussian 16 at Tue Dec  5 15:11:17 2023.
