 Gaussian 16, Revision B.01,
 Gaussian 16:  ES64L-G16RevB.01 20-Dec-2017

 -------------------------
 #P B3LYP/6-311+g(d) force
 -------------------------

 -----
 DPGEN
 -----
 Symbolic Z-matrix:
 Charge =  0 Multiplicity = 2

                         Standard orientation:
 ---------------------------------------------------------------------
 Center     Atomic      Atomic             Coordinates (Angstroms)
 Number     Number       Type             X           Y           Z
 ---------------------------------------------------------------------
      1         11           0        1.113679   -1.777518   -1.017411
      2         11           0       -2.124767   -1.968972    0.935921
      3         11           0       -2.206795    2.310629    0.423577
      4         11           0        0.701758    1.606443   -1.178397
      5         11           0       -1.787273   -0.461463   -1.651792
      6         11           0        3.910166    0.235599    0.270910
      7         11           0        0.393233    0.055280    2.217192
 ---------------------------------------------------------------------

 SCF Done:  E(UB3LYP) =  -1136.12949283     A.U. after   22 cycles

 The electronic state is 2-A.
 Alpha  occ. eigenvalues --  -38.44880 -38.44607 -38.43662 -38.43545 -38.43455
 Alpha  occ. eigenvalues --  -38.43243 -38.43020  -2.20715  -2.20371  -2.19635
 Alpha  occ. eigenvalues --   -2.19427  -2.19321  -2.19146  -2.18845  -1.14380
 Alpha  occ. eigenvalues --   -1.14347  -1.14330  -1.14042  -1.14040  -1.13998
 Alpha  occ. eigenvalues --   -1.13370  -1.13346  -1.13233  -1.13140  -1.13090
 Alpha  occ. eigenvalues --   -1.13008  -1.12985  -1.12972  -1.12929  -1.12859
 Alpha  occ. eigenvalues --   -1.12817  -1.12734  -1.12511  -1.12501  -1.12489
 Alpha  occ. eigenvalues --   -0.18621  -0.13057  -0.11999  -0.11466
 Alpha virt. eigenvalues --   -0.06241  -0.04575  -0.04293  -0.03438  -0.03112
 Alpha virt. eigenvalues --   -0.03003  -0.01959  -0.00852  -0.00608   0.00129
 Alpha virt. eigenvalues --    0.00266   0.00304   0.00425   0.00765   0.00866

  Beta  occ. eigenvalues --  -38.44789 -38.44609 -38.43618 -38.43515 -38.43440
  Beta  occ. eigenvalues --  -38.43215 -38.43018  -2.20548  -2.20376  -2.19556
  Beta  occ. eigenvalues --   -2.19375  -2.19296  -2.19099  -2.18842  -1.14272
  Beta  occ. eigenvalues --   -1.14227  -1.14205  -1.14045  -1.14039  -1.14002
  Beta  occ. eigenvalues --   -1.13309  -1.13290  -1.13178  -1.13097  -1.13036
  Beta  occ. eigenvalues --   -1.12977  -1.12959  -1.12947  -1.12907  -1.12824
  Beta  occ. eigenvalues --   -1.12762  -1.12707  -1.12508  -1.12494  -1.12480
  Beta  occ. eigenvalues --   -0.17761  -0.12957  -0.11296
  Beta virt. eigenvalues --   -0.07864  -0.06059  -0.04513  -0.03747  -0.03039
  Beta virt. eigenvalues --   -0.02384  -0.02278  -0.01849  -0.00774  -0.00293
  Beta virt. eigenvalues --    0.00203   0.00269   0.00309   0.00591   0.00810

 Mulliken charges and spin densities:
               1          2
     1  Na  -0.082912   0.073950
     2  Na  -0.058368   0.034457
     3  Na  -0.066213  -0.059701
     4  Na  -0.344063   0.134808
     5  Na   0.626954   0.215632
     6  Na   0.295214  -0.048466
     7  Na  -0.370611   0.649321
 Sum of Mulliken charges =  -0.00000   1.00000

 Dipole moment (field-independent basis, Debye):
    X=              0.8165    Y=             -0.0558    Z=              0.5237  Tot=              0.9716
 Quadrupole moment (field-independent basis, Debye-Ang):
   XX=            -53.8042   YY=            -74.7036   ZZ=            -66.1092
   XY=              0.5398   XZ=             -0.2473   YZ=              0.9157

 Normal termination of Gaussian 16 at Thu Dec  7 10:29:58 2023.
