 Gaussian 16, Revision B.01,
 Gaussian 16:  ES64L-G16RevB.01 20-Dec-2017

 -------------------------
 #P B3LYP/6-311+g(d) force
 -------------------------

 -----
 DPGEN
 -----
 Symbolic Z-matrix:
 Charge =  0 Multiplicity = 2

                         Standard orientation:
 ---------------------------------------------------------------------
 Center     Atomic      Atomic             Coordinates (Angstroms)
 Number     Number       Type             X           Y           Z
 ---------------------------------------------------------------------
      1         11           0       -1.488936   -2.523694    0.005945
      2         11           0       -0.196544    0.146171   -1.477377
      3         11           0       -3.021947    0.735725   -0.259219
      4         11           0       -0.342749    2.780145    0.317088
      5         11           0        2.519842    1.651277    0.029599
      6         11           0        0.188748   -0.844704    1.984098
      7         11           0        2.341586   -1.944920   -0.600134
 ---------------------------------------------------------------------

 SCF Done:  E(UB3LYP) =  -1136.13517879     A.U. after   19 cycles

 The electronic state is 2-A.
 Alpha  occ. eigenvalues --  -38.43841 -38.43821 -38.43729 -38.43666 -38.43494
 Alpha  occ. eigenvalues --  -38.43350 -38.42930  -2.19700  -2.19676  -2.19588
 Alpha  occ. eigenvalues --   -2.19531  -2.19404  -2.19254  -2.18974  -1.13435
 Alpha  occ. eigenvalues --   -1.13376  -1.13356  -1.13337  -1.13318  -1.13302
 Alpha  occ. eigenvalues --   -1.13293  -1.13256  -1.13244  -1.13211  -1.13191
 Alpha  occ. eigenvalues --   -1.13165  -1.13061  -1.13025  -1.13014  -1.12952
 Alpha  occ. eigenvalues --   -1.12897  -1.12878  -1.12653  -1.12607  -1.12596
 Alpha  occ. eigenvalues --   -0.18857  -0.12987  -0.12860  -0.10641
 Alpha virt. eigenvalues --   -0.05567  -0.05111  -0.04781  -0.03184  -0.02981
 Alpha virt. eigenvalues --   -0.02307  -0.01422  -0.01199  -0.00364  -0.00190
 Alpha virt. eigenvalues --    0.00006   0.00351   0.00816   0.00882   0.00910

  Beta  occ. eigenvalues --  -38.43823 -38.43812 -38.43724 -38.43664 -38.43408
  Beta  occ. eigenvalues --  -38.43343 -38.42873  -2.19689  -2.19644  -2.19581
  Beta  occ. eigenvalues --   -2.19529  -2.19247  -2.19241  -2.18873  -1.13416
  Beta  occ. eigenvalues --   -1.13340  -1.13328  -1.13312  -1.13305  -1.13284
  Beta  occ. eigenvalues --   -1.13281  -1.13255  -1.13229  -1.13207  -1.13168
  Beta  occ. eigenvalues --   -1.13164  -1.12960  -1.12942  -1.12911  -1.12905
  Beta  occ. eigenvalues --   -1.12882  -1.12862  -1.12579  -1.12538  -1.12518
  Beta  occ. eigenvalues --   -0.18175  -0.12724  -0.12601
  Beta virt. eigenvalues --   -0.06776  -0.05522  -0.05070  -0.04699  -0.02407
  Beta virt. eigenvalues --   -0.02257  -0.01363  -0.01259  -0.01130  -0.00395
  Beta virt. eigenvalues --   -0.00210   0.00157   0.00395   0.00840   0.00910

 Mulliken charges and spin densities:
               1          2
     1  Na   0.371802  -0.030617
     2  Na  -0.403770   0.309507
     3  Na   0.280158   0.019239
     4  Na   0.052696   0.074040
     5  Na   0.067539  -0.006086
     6  Na  -0.532076   0.634425
     7  Na   0.163651  -0.000507
 Sum of Mulliken charges =  -0.00000   1.00000

 Dipole moment (field-independent basis, Debye):
    X=              0.0033    Y=             -0.2638    Z=              0.1394  Tot=              0.2983
 Quadrupole moment (field-independent basis, Debye-Ang):
   XX=            -57.5039   YY=            -61.4590   ZZ=            -74.5509
   XY=             -0.2382   XZ=             -0.5595   YZ=              2.1470

 Normal termination of Gaussian 16 at Tue Dec  5 23:25:35 2023.
