 Gaussian 16, Revision B.01,
 Gaussian 16:  ES64L-G16RevB.01 20-Dec-2017

 -------------------------
 #P B3LYP/6-311+g(d) force
 -------------------------

 -----
 DPGEN
 -----
 Symbolic Z-matrix:
 Charge =  0 Multiplicity = 2

                         Standard orientation:
 ---------------------------------------------------------------------
 Center     Atomic      Atomic             Coordinates (Angstroms)
 Number     Number       Type             X           Y           Z
 ---------------------------------------------------------------------
      1         11           0       -1.650384   -2.483431    0.837383
      2         11           0        1.206821    2.373029   -0.301186
      3         11           0       -3.652502    0.296444   -1.034848
      4         11           0        1.553770   -0.176136    1.718157
      5         11           0        3.897913   -0.935409   -0.911317
      6         11           0       -1.257905    1.611304    1.018628
      7         11           0       -0.097713   -0.685802   -1.326817
 ---------------------------------------------------------------------

 SCF Done:  E(UB3LYP) =  -1136.12201215     A.U. after   22 cycles

 The electronic state is 2-A.
 Alpha  occ. eigenvalues --  -38.44701 -38.44282 -38.44203 -38.43827 -38.43718
 Alpha  occ. eigenvalues --  -38.43433 -38.42825  -2.20503  -2.20106  -2.20052
 Alpha  occ. eigenvalues --   -2.19733  -2.19537  -2.19351  -2.18790  -1.14177
 Alpha  occ. eigenvalues --   -1.14152  -1.14114  -1.13835  -1.13796  -1.13722
 Alpha  occ. eigenvalues --   -1.13706  -1.13700  -1.13670  -1.13434  -1.13380
 Alpha  occ. eigenvalues --   -1.13353  -1.13218  -1.13189  -1.13149  -1.13105
 Alpha  occ. eigenvalues --   -1.13006  -1.12967  -1.12473  -1.12437  -1.12404
 Alpha  occ. eigenvalues --   -0.18457  -0.13500  -0.11542  -0.10864
 Alpha virt. eigenvalues --   -0.06772  -0.04887  -0.04633  -0.03118  -0.02777
 Alpha virt. eigenvalues --   -0.02373  -0.02119  -0.01067  -0.00902  -0.00235
 Alpha virt. eigenvalues --    0.00099   0.00148   0.00348   0.00721   0.00808

  Beta  occ. eigenvalues --  -38.44662 -38.44248 -38.44189 -38.43781 -38.43686
  Beta  occ. eigenvalues --  -38.43431 -38.42810  -2.20429  -2.20083  -2.19989
  Beta  occ. eigenvalues --   -2.19653  -2.19478  -2.19350  -2.18769  -1.14127
  Beta  occ. eigenvalues --   -1.14098  -1.14067  -1.13801  -1.13774  -1.13684
  Beta  occ. eigenvalues --   -1.13677  -1.13662  -1.13630  -1.13382  -1.13312
  Beta  occ. eigenvalues --   -1.13284  -1.13183  -1.13142  -1.13102  -1.13102
  Beta  occ. eigenvalues --   -1.12987  -1.12971  -1.12464  -1.12404  -1.12371
  Beta  occ. eigenvalues --   -0.17810  -0.13150  -0.11286
  Beta virt. eigenvalues --   -0.07306  -0.06417  -0.04701  -0.04222  -0.02930
  Beta virt. eigenvalues --   -0.02375  -0.02006  -0.01418  -0.00947  -0.00577
  Beta virt. eigenvalues --   -0.00121   0.00159   0.00224   0.00434   0.00819

 Mulliken charges and spin densities:
               1          2
     1  Na  -0.210893   0.209948
     2  Na  -0.016101   0.092887
     3  Na   0.184507   0.093783
     4  Na   0.083166   0.117431
     5  Na  -0.057412   0.265544
     6  Na   0.265496   0.149212
     7  Na  -0.248762   0.071196
 Sum of Mulliken charges =  -0.00000   1.00000

 Dipole moment (field-independent basis, Debye):
    X=             -0.2941    Y=             -0.0539    Z=              0.0095  Tot=              0.2991
 Quadrupole moment (field-independent basis, Debye-Ang):
   XX=            -53.1979   YY=            -72.9761   ZZ=            -67.8946
   XY=              1.1189   XZ=              0.1592   YZ=             -2.4628

 Normal termination of Gaussian 16 at Tue Dec  5 20:19:53 2023.
