 Gaussian 16, Revision B.01,
 Gaussian 16:  ES64L-G16RevB.01 20-Dec-2017

 -------------------------
 #P B3LYP/6-311+g(d) force
 -------------------------

 -----
 DPGEN
 -----
 Symbolic Z-matrix:
 Charge =  0 Multiplicity = 2

                         Standard orientation:
 ---------------------------------------------------------------------
 Center     Atomic      Atomic             Coordinates (Angstroms)
 Number     Number       Type             X           Y           Z
 ---------------------------------------------------------------------
      1         11           0       -3.220370   -1.038522   -0.083038
      2         11           0       -0.403011    0.099306   -1.641699
      3         11           0        0.089551   -2.703578   -0.014836
      4         11           0        3.018390   -0.970898    0.037042
      5         11           0       -1.544111    2.503191    0.248738
      6         11           0        1.927363    1.924311   -0.472161
      7         11           0        0.132189    0.186191    1.925955
 ---------------------------------------------------------------------

 SCF Done:  E(UB3LYP) =  -1136.13648762     A.U. after   20 cycles

 The electronic state is 2-A.
 Alpha  occ. eigenvalues --  -38.44414 -38.43853 -38.43454 -38.43381 -38.43360
 Alpha  occ. eigenvalues --  -38.43233 -38.43154  -2.20206  -2.19716  -2.19321
 Alpha  occ. eigenvalues --   -2.19317  -2.19280  -2.19155  -2.19102  -1.13886
 Alpha  occ. eigenvalues --   -1.13854  -1.13848  -1.13416  -1.13369  -1.13364
 Alpha  occ. eigenvalues --   -1.13059  -1.13015  -1.12996  -1.12985  -1.12961
 Alpha  occ. eigenvalues --   -1.12942  -1.12915  -1.12912  -1.12889  -1.12863
 Alpha  occ. eigenvalues --   -1.12802  -1.12772  -1.12763  -1.12743  -1.12708
 Alpha  occ. eigenvalues --   -0.18933  -0.13130  -0.12451  -0.10756
 Alpha virt. eigenvalues --   -0.05919  -0.05098  -0.04357  -0.03170  -0.02855
 Alpha virt. eigenvalues --   -0.02466  -0.01774  -0.01108  -0.00228  -0.00161
 Alpha virt. eigenvalues --    0.00004   0.00334   0.00785   0.00878   0.00928

  Beta  occ. eigenvalues --  -38.44413 -38.43851 -38.43445 -38.43343 -38.43290
  Beta  occ. eigenvalues --  -38.43227 -38.43088  -2.20207  -2.19715  -2.19308
  Beta  occ. eigenvalues --   -2.19254  -2.19151  -2.19095  -2.19036  -1.13874
  Beta  occ. eigenvalues --   -1.13854  -1.13850  -1.13418  -1.13366  -1.13344
  Beta  occ. eigenvalues --   -1.13031  -1.12973  -1.12967  -1.12939  -1.12906
  Beta  occ. eigenvalues --   -1.12884  -1.12871  -1.12828  -1.12813  -1.12803
  Beta  occ. eigenvalues --   -1.12742  -1.12735  -1.12713  -1.12683  -1.12666
  Beta  occ. eigenvalues --   -0.18198  -0.12900  -0.12182
  Beta virt. eigenvalues --   -0.06820  -0.05880  -0.05081  -0.04341  -0.02415
  Beta virt. eigenvalues --   -0.02058  -0.01707  -0.01391  -0.01036  -0.00264
  Beta virt. eigenvalues --   -0.00187   0.00128   0.00362   0.00826   0.00881

 Mulliken charges and spin densities:
               1          2
     1  Na   0.039374  -0.118021
     2  Na  -0.298390   0.498834
     3  Na   0.089620  -0.091306
     4  Na   0.022552  -0.029417
     5  Na   0.152294  -0.066397
     6  Na   0.445044   0.069225
     7  Na  -0.450494   0.737082
 Sum of Mulliken charges =  -0.00000   1.00000

 Dipole moment (field-independent basis, Debye):
    X=             -0.4227    Y=             -0.0828    Z=              0.1597  Tot=              0.4594
 Quadrupole moment (field-independent basis, Debye-Ang):
   XX=            -53.6884   YY=            -64.6093   ZZ=            -74.4614
   XY=             -0.4459   XZ=             -0.9598   YZ=             -0.2455

 Normal termination of Gaussian 16 at Tue Dec  5 14:23:58 2023.
