 Gaussian 16, Revision B.01,
 Gaussian 16:  ES64L-G16RevB.01 20-Dec-2017

 -------------------------
 #P B3LYP/6-311+g(d) force
 -------------------------

 -----
 DPGEN
 -----
 Symbolic Z-matrix:
 Charge =  0 Multiplicity = 2

                         Standard orientation:
 ---------------------------------------------------------------------
 Center     Atomic      Atomic             Coordinates (Angstroms)
 Number     Number       Type             X           Y           Z
 ---------------------------------------------------------------------
      1         11           0       -0.407405    0.320118    2.124998
      2         11           0        2.115596   -0.156803   -1.505105
      3         11           0       -0.814043   -1.161125   -1.792640
      4         11           0       -3.749503   -0.313672    0.350192
      5         11           0       -0.668808    2.413876   -0.962179
      6         11           0        2.273484    1.304246    1.005125
      7         11           0        1.250678   -2.406640    0.779609
 ---------------------------------------------------------------------

 SCF Done:  E(UB3LYP) =  -1136.12341547     A.U. after   23 cycles

 The electronic state is 2-A.
 Alpha  occ. eigenvalues --  -38.44530 -38.44424 -38.44099 -38.43879 -38.43781
 Alpha  occ. eigenvalues --  -38.43330 -38.43189  -2.20277  -2.20230  -2.19991
 Alpha  occ. eigenvalues --   -2.19848  -2.19644  -2.19260  -2.19068  -1.13953
 Alpha  occ. eigenvalues --   -1.13939  -1.13917  -1.13909  -1.13876  -1.13841
 Alpha  occ. eigenvalues --   -1.13690  -1.13638  -1.13611  -1.13600  -1.13536
 Alpha  occ. eigenvalues --   -1.13452  -1.13322  -1.13276  -1.13264  -1.12949
 Alpha  occ. eigenvalues --   -1.12919  -1.12842  -1.12776  -1.12724  -1.12668
 Alpha  occ. eigenvalues --   -0.18749  -0.12757  -0.12365  -0.11534
 Alpha virt. eigenvalues --   -0.06176  -0.04653  -0.04189  -0.03563  -0.03265
 Alpha virt. eigenvalues --   -0.03131  -0.01709  -0.00800  -0.00460   0.00098
 Alpha virt. eigenvalues --    0.00198   0.00345   0.00373   0.00797   0.00883

  Beta  occ. eigenvalues --  -38.44532 -38.44381 -38.44034 -38.43844 -38.43743
  Beta  occ. eigenvalues --  -38.43323 -38.43162  -2.20280  -2.20152  -2.19874
  Beta  occ. eigenvalues --   -2.19787  -2.19577  -2.19251  -2.19022  -1.13949
  Beta  occ. eigenvalues --   -1.13942  -1.13913  -1.13856  -1.13819  -1.13788
  Beta  occ. eigenvalues --   -1.13613  -1.13563  -1.13549  -1.13518  -1.13492
  Beta  occ. eigenvalues --   -1.13396  -1.13268  -1.13233  -1.13208  -1.12922
  Beta  occ. eigenvalues --   -1.12914  -1.12825  -1.12736  -1.12678  -1.12641
  Beta  occ. eigenvalues --   -0.17854  -0.12614  -0.11365
  Beta virt. eigenvalues --   -0.08270  -0.05964  -0.04272  -0.03814  -0.03171
  Beta virt. eigenvalues --   -0.02795  -0.02285  -0.01589  -0.00583  -0.00315
  Beta virt. eigenvalues --    0.00177   0.00269   0.00399   0.00439   0.00874

 Mulliken charges and spin densities:
               1          2
     1  Na   0.077668   0.407347
     2  Na   0.535607   0.289811
     3  Na   0.012532   0.125499
     4  Na   0.020228  -0.104562
     5  Na  -0.544515   0.181178
     6  Na   0.404410  -0.066741
     7  Na  -0.505929   0.167468
 Sum of Mulliken charges =  -0.00000   1.00000

 Dipole moment (field-independent basis, Debye):
    X=             -0.5595    Y=              0.0973    Z=              0.1451  Tot=              0.5862
 Quadrupole moment (field-independent basis, Debye-Ang):
   XX=            -58.6384   YY=            -70.8896   ZZ=            -66.4240
   XY=             -0.2151   XZ=             -0.5706   YZ=             -6.5373

 Normal termination of Gaussian 16 at Thu Dec  7 16:19:20 2023.
