 Gaussian 16, Revision B.01,
 Gaussian 16:  ES64L-G16RevB.01 20-Dec-2017

 -------------------------
 #P B3LYP/6-311+g(d) force
 -------------------------

 -----
 DPGEN
 -----
 Symbolic Z-matrix:
 Charge =  0 Multiplicity = 2

                         Standard orientation:
 ---------------------------------------------------------------------
 Center     Atomic      Atomic             Coordinates (Angstroms)
 Number     Number       Type             X           Y           Z
 ---------------------------------------------------------------------
      1         11           0       -0.512083   -2.218559    1.209766
      2         11           0       -3.076573   -0.840745   -0.697635
      3         11           0       -0.376835   -0.477528   -1.502913
      4         11           0        0.547233    0.447548    1.802785
      5         11           0        1.910363    1.959756   -0.325298
      6         11           0       -1.727039    2.326766    0.178119
      7         11           0        3.234935   -1.197239   -0.664824
 ---------------------------------------------------------------------

 SCF Done:  E(UB3LYP) =  -1136.12476940     A.U. after   20 cycles

 The electronic state is 2-A.
 Alpha  occ. eigenvalues --  -38.44306 -38.44120 -38.43658 -38.43648 -38.43560
 Alpha  occ. eigenvalues --  -38.43404 -38.43148  -2.20100  -2.20021  -2.19687
 Alpha  occ. eigenvalues --   -2.19666  -2.19467  -2.19331  -2.18999  -1.13854
 Alpha  occ. eigenvalues --   -1.13769  -1.13758  -1.13727  -1.13648  -1.13623
 Alpha  occ. eigenvalues --   -1.13500  -1.13417  -1.13334  -1.13289  -1.13271
 Alpha  occ. eigenvalues --   -1.13258  -1.13137  -1.13116  -1.13046  -1.12997
 Alpha  occ. eigenvalues --   -1.12949  -1.12914  -1.12683  -1.12667  -1.12623
 Alpha  occ. eigenvalues --   -0.19025  -0.13493  -0.11964  -0.11393
 Alpha virt. eigenvalues --   -0.05767  -0.05103  -0.03988  -0.03463  -0.03001
 Alpha virt. eigenvalues --   -0.02625  -0.01801  -0.01005  -0.00294   0.00092
 Alpha virt. eigenvalues --    0.00226   0.00300   0.00777   0.00834   0.00926

  Beta  occ. eigenvalues --  -38.44286 -38.44102 -38.43606 -38.43574 -38.43552
  Beta  occ. eigenvalues --  -38.43354 -38.43146  -2.20065  -2.19991  -2.19589
  Beta  occ. eigenvalues --   -2.19537  -2.19454  -2.19242  -2.18999  -1.13819
  Beta  occ. eigenvalues --   -1.13740  -1.13728  -1.13707  -1.13622  -1.13603
  Beta  occ. eigenvalues --   -1.13394  -1.13341  -1.13268  -1.13239  -1.13203
  Beta  occ. eigenvalues --   -1.13170  -1.13114  -1.13078  -1.13027  -1.12930
  Beta  occ. eigenvalues --   -1.12869  -1.12856  -1.12678  -1.12661  -1.12619
  Beta  occ. eigenvalues --   -0.18343  -0.13156  -0.11701
  Beta virt. eigenvalues --   -0.07472  -0.05591  -0.05050  -0.03806  -0.02922
  Beta virt. eigenvalues --   -0.02318  -0.01665  -0.01586  -0.00985  -0.00092
  Beta virt. eigenvalues --    0.00124   0.00238   0.00362   0.00833   0.00860

 Mulliken charges and spin densities:
               1          2
     1  Na  -0.274571   0.041926
     2  Na   0.689534   0.126169
     3  Na  -0.520049   0.434038
     4  Na   0.550679   0.306754
     5  Na   0.043435   0.098180
     6  Na  -0.392397  -0.061231
     7  Na  -0.096630   0.054164
 Sum of Mulliken charges =  -0.00000   1.00000

 Dipole moment (field-independent basis, Debye):
    X=              0.1128    Y=             -0.1363    Z=             -0.1815  Tot=              0.2534
 Quadrupole moment (field-independent basis, Debye-Ang):
   XX=            -54.2105   YY=            -68.3860   ZZ=            -71.2493
   XY=             -0.8352   XZ=             -1.2638   YZ=             -0.8065

 Normal termination of Gaussian 16 at Fri Dec  8 05:07:05 2023.
