 Gaussian 16, Revision B.01,
 Gaussian 16:  ES64L-G16RevB.01 20-Dec-2017

 -------------------------
 #P B3LYP/6-311+g(d) force
 -------------------------

 -----
 DPGEN
 -----
 Symbolic Z-matrix:
 Charge =  0 Multiplicity = 2

                         Standard orientation:
 ---------------------------------------------------------------------
 Center     Atomic      Atomic             Coordinates (Angstroms)
 Number     Number       Type             X           Y           Z
 ---------------------------------------------------------------------
      1         11           0       -0.714470   -0.322633    1.535494
      2         11           0        1.902514   -2.111393    0.270528
      3         11           0       -4.230502   -0.107108   -0.092063
      4         11           0        1.769070    1.931219    0.002444
      5         11           0       -1.350370    2.683287   -0.344082
      6         11           0       -1.626457   -2.101967   -0.945536
      7         11           0        4.250216    0.028595   -0.426785
 ---------------------------------------------------------------------

 SCF Done:  E(UB3LYP) =  -1136.12650743     A.U. after   20 cycles

 The electronic state is 2-A.
 Alpha  occ. eigenvalues --  -38.44362 -38.44355 -38.44256 -38.43720 -38.43664
 Alpha  occ. eigenvalues --  -38.43462 -38.43370  -2.20268  -2.20190  -2.20079
 Alpha  occ. eigenvalues --   -2.19592  -2.19511  -2.19280  -2.19242  -1.13999
 Alpha  occ. eigenvalues --   -1.13936  -1.13886  -1.13864  -1.13837  -1.13815
 Alpha  occ. eigenvalues --   -1.13735  -1.13706  -1.13690  -1.13270  -1.13260
 Alpha  occ. eigenvalues --   -1.13223  -1.13200  -1.13180  -1.13109  -1.12998
 Alpha  occ. eigenvalues --   -1.12950  -1.12925  -1.12918  -1.12899  -1.12839
 Alpha  occ. eigenvalues --   -0.17710  -0.14292  -0.12193  -0.10718
 Alpha virt. eigenvalues --   -0.06312  -0.05697  -0.04128  -0.03745  -0.02873
 Alpha virt. eigenvalues --   -0.02376  -0.01758  -0.01294  -0.00790  -0.00613
 Alpha virt. eigenvalues --   -0.00226  -0.00029   0.00511   0.00670   0.00727

  Beta  occ. eigenvalues --  -38.44353 -38.44316 -38.44176 -38.43652 -38.43652
  Beta  occ. eigenvalues --  -38.43460 -38.43361  -2.20191  -2.20185  -2.19931
  Beta  occ. eigenvalues --   -2.19495  -2.19464  -2.19278  -2.19231  -1.13966
  Beta  occ. eigenvalues --   -1.13879  -1.13866  -1.13835  -1.13806  -1.13769
  Beta  occ. eigenvalues --   -1.13632  -1.13607  -1.13597  -1.13206  -1.13193
  Beta  occ. eigenvalues --   -1.13182  -1.13155  -1.13133  -1.13058  -1.12984
  Beta  occ. eigenvalues --   -1.12941  -1.12926  -1.12913  -1.12892  -1.12805
  Beta  occ. eigenvalues --   -0.17138  -0.13511  -0.11918
  Beta virt. eigenvalues --   -0.07272  -0.06128  -0.05580  -0.03685  -0.03296
  Beta virt. eigenvalues --   -0.02516  -0.01998  -0.01477  -0.00938  -0.00706
  Beta virt. eigenvalues --   -0.00228  -0.00138   0.00169   0.00627   0.00754

 Mulliken charges and spin densities:
               1          2
     1  Na  -0.209876   0.270595
     2  Na  -0.181821  -0.012878
     3  Na   0.166224   0.466597
     4  Na  -0.531122  -0.002523
     5  Na  -0.018789  -0.112209
     6  Na   0.034753  -0.037147
     7  Na   0.740630   0.427565
 Sum of Mulliken charges =  -0.00000   1.00000

 Dipole moment (field-independent basis, Debye):
    X=             -0.5667    Y=             -0.4394    Z=              0.0150  Tot=              0.7172
 Quadrupole moment (field-independent basis, Debye-Ang):
   XX=            -64.9541   YY=            -70.6030   ZZ=            -66.3040
   XY=             -3.1869   XZ=             -0.6346   YZ=              0.5844

 Normal termination of Gaussian 16 at Tue Nov 28 20:43:27 2023.
