 Gaussian 16, Revision B.01,
 Gaussian 16:  ES64L-G16RevB.01 20-Dec-2017

 -------------------------
 #P B3LYP/6-311+g(d) force
 -------------------------

 -----
 DPGEN
 -----
 Symbolic Z-matrix:
 Charge =  0 Multiplicity = 2

                         Standard orientation:
 ---------------------------------------------------------------------
 Center     Atomic      Atomic             Coordinates (Angstroms)
 Number     Number       Type             X           Y           Z
 ---------------------------------------------------------------------
      1         11           0       -0.136170   -0.637205   -1.494839
      2         11           0       -1.068081    1.004389    1.665855
      3         11           0       -1.509335    2.287922   -1.147931
      4         11           0        2.046292    1.739203    0.784578
      5         11           0       -3.116704   -1.364023   -0.164664
      6         11           0        0.067855   -2.162670    0.987381
      7         11           0        3.716143   -0.867616   -0.630380
 ---------------------------------------------------------------------

 SCF Done:  E(UB3LYP) =  -1136.12760817     A.U. after   21 cycles

 The electronic state is 2-A.
 Alpha  occ. eigenvalues --  -38.44538 -38.44308 -38.43762 -38.43647 -38.43616
 Alpha  occ. eigenvalues --  -38.43260 -38.43063  -2.20366  -2.20083  -2.19631
 Alpha  occ. eigenvalues --   -2.19589  -2.19514  -2.19136  -2.19024  -1.14047
 Alpha  occ. eigenvalues --   -1.14021  -1.14000  -1.13754  -1.13750  -1.13711
 Alpha  occ. eigenvalues --   -1.13487  -1.13294  -1.13286  -1.13252  -1.13219
 Alpha  occ. eigenvalues --   -1.13208  -1.13178  -1.13140  -1.13080  -1.12851
 Alpha  occ. eigenvalues --   -1.12812  -1.12743  -1.12704  -1.12646  -1.12617
 Alpha  occ. eigenvalues --   -0.18650  -0.13170  -0.11912  -0.11052
 Alpha virt. eigenvalues --   -0.06345  -0.05086  -0.03916  -0.03227  -0.03022
 Alpha virt. eigenvalues --   -0.02447  -0.02105  -0.01108  -0.00474   0.00053
 Alpha virt. eigenvalues --    0.00097   0.00277   0.00574   0.00794   0.00848

  Beta  occ. eigenvalues --  -38.44534 -38.44301 -38.43748 -38.43596 -38.43590
  Beta  occ. eigenvalues --  -38.43229 -38.43004  -2.20362  -2.20070  -2.19567
  Beta  occ. eigenvalues --   -2.19541  -2.19468  -2.19081  -2.18918  -1.14032
  Beta  occ. eigenvalues --   -1.14022  -1.13989  -1.13745  -1.13738  -1.13703
  Beta  occ. eigenvalues --   -1.13427  -1.13261  -1.13234  -1.13225  -1.13196
  Beta  occ. eigenvalues --   -1.13154  -1.13130  -1.13081  -1.13050  -1.12813
  Beta  occ. eigenvalues --   -1.12760  -1.12699  -1.12630  -1.12570  -1.12539
  Beta  occ. eigenvalues --   -0.17903  -0.12967  -0.11701
  Beta virt. eigenvalues --   -0.07096  -0.06223  -0.04952  -0.03763  -0.02757
  Beta virt. eigenvalues --   -0.02382  -0.02032  -0.01447  -0.01008  -0.00210
  Beta virt. eigenvalues --    0.00063   0.00126   0.00308   0.00719   0.00824

 Mulliken charges and spin densities:
               1          2
     1  Na  -0.441475   0.469464
     2  Na   0.016622   0.396358
     3  Na  -0.016157   0.075496
     4  Na  -0.217228  -0.011363
     5  Na   0.442171  -0.030388
     6  Na   0.022905   0.121863
     7  Na   0.193161  -0.021430
 Sum of Mulliken charges =  -0.00000   1.00000

 Dipole moment (field-independent basis, Debye):
    X=             -0.2260    Y=             -0.3167    Z=             -0.0408  Tot=              0.3912
 Quadrupole moment (field-independent basis, Debye-Ang):
   XX=            -51.0858   YY=            -70.1968   ZZ=            -71.0856
   XY=              0.5708   XZ=             -0.0587   YZ=             -1.2250

 Normal termination of Gaussian 16 at Tue Dec  5 12:38:26 2023.
