 Gaussian 16, Revision B.01,
 Gaussian 16:  ES64L-G16RevB.01 20-Dec-2017

 -------------------------
 #P B3LYP/6-311+g(d) force
 -------------------------

 -----
 DPGEN
 -----
 Symbolic Z-matrix:
 Charge =  0 Multiplicity = 2

                         Standard orientation:
 ---------------------------------------------------------------------
 Center     Atomic      Atomic             Coordinates (Angstroms)
 Number     Number       Type             X           Y           Z
 ---------------------------------------------------------------------
      1         11           0       -2.373835    1.767080    0.074969
      2         11           0        3.226057    0.247676   -0.296068
      3         11           0        1.984321   -2.598028    0.185383
      4         11           0       -3.842394   -1.257360   -0.122988
      5         11           0       -0.238095   -0.360591   -1.694314
      6         11           0       -0.152896   -0.360818    1.741656
      7         11           0        1.396843    2.562040    0.111360
 ---------------------------------------------------------------------

 SCF Done:  E(UB3LYP) =  -1136.12348418     A.U. after   24 cycles

 The electronic state is 2-A.
 Alpha  occ. eigenvalues --  -38.45352 -38.44599 -38.44520 -38.44244 -38.43351
 Alpha  occ. eigenvalues --  -38.43105 -38.42706  -2.21115  -2.20498  -2.20377
 Alpha  occ. eigenvalues --   -2.20092  -2.19256  -2.18962  -2.18574  -1.14789
 Alpha  occ. eigenvalues --   -1.14779  -1.14744  -1.14204  -1.14147  -1.14140
 Alpha  occ. eigenvalues --   -1.14090  -1.14024  -1.13980  -1.13775  -1.13770
 Alpha  occ. eigenvalues --   -1.13706  -1.12949  -1.12875  -1.12872  -1.12641
 Alpha  occ. eigenvalues --   -1.12610  -1.12607  -1.12285  -1.12219  -1.12205
 Alpha  occ. eigenvalues --   -0.18398  -0.13993  -0.11627  -0.10289
 Alpha virt. eigenvalues --   -0.07100  -0.05597  -0.03994  -0.03466  -0.02731
 Alpha virt. eigenvalues --   -0.02274  -0.02173  -0.01521  -0.00654  -0.00211
 Alpha virt. eigenvalues --   -0.00133   0.00165   0.00548   0.00575   0.00710

  Beta  occ. eigenvalues --  -38.45349 -38.44587 -38.44469 -38.44236 -38.43259
  Beta  occ. eigenvalues --  -38.43102 -38.42703  -2.21111  -2.20477  -2.20284
  Beta  occ. eigenvalues --   -2.20080  -2.19087  -2.18958  -2.18572  -1.14789
  Beta  occ. eigenvalues --   -1.14765  -1.14742  -1.14196  -1.14128  -1.14110
  Beta  occ. eigenvalues --   -1.14019  -1.13959  -1.13910  -1.13769  -1.13743
  Beta  occ. eigenvalues --   -1.13694  -1.12835  -1.12760  -1.12746  -1.12642
  Beta  occ. eigenvalues --   -1.12607  -1.12580  -1.12286  -1.12212  -1.12186
  Beta  occ. eigenvalues --   -0.17705  -0.13773  -0.11398
  Beta virt. eigenvalues --   -0.06988  -0.06466  -0.05554  -0.03902  -0.02834
  Beta virt. eigenvalues --   -0.02530  -0.01619  -0.01502  -0.01242  -0.00623
  Beta virt. eigenvalues --   -0.00176   0.00040   0.00209   0.00636   0.00723

 Mulliken charges and spin densities:
               1          2
     1  Na   0.174570   0.041869
     2  Na   0.290242   0.130592
     3  Na   0.180987   0.037356
     4  Na   0.100435   0.008812
     5  Na  -0.253437   0.366475
     6  Na  -0.222108   0.470105
     7  Na  -0.270689  -0.055209
 Sum of Mulliken charges =  -0.00000   1.00000

 Dipole moment (field-independent basis, Debye):
    X=             -1.2119    Y=             -0.3976    Z=             -0.0289  Tot=              1.2758
 Quadrupole moment (field-independent basis, Debye-Ang):
   XX=            -49.3985   YY=            -67.9388   ZZ=            -76.0436
   XY=              1.0091   XZ=             -0.4838   YZ=              0.2067

 Normal termination of Gaussian 16 at Tue Dec  5 16:49:03 2023.
