 Gaussian 16, Revision B.01,
 Gaussian 16:  ES64L-G16RevB.01 20-Dec-2017

 -------------------------
 #P B3LYP/6-311+g(d) force
 -------------------------

 -----
 DPGEN
 -----
 Symbolic Z-matrix:
 Charge =  0 Multiplicity = 2

                         Standard orientation:
 ---------------------------------------------------------------------
 Center     Atomic      Atomic             Coordinates (Angstroms)
 Number     Number       Type             X           Y           Z
 ---------------------------------------------------------------------
      1         11           0       -2.902186   -1.596277   -0.300043
      2         11           0        3.284575   -0.569068   -0.519742
      3         11           0        0.745856    0.183270    2.018425
      4         11           0        0.810932    3.088664   -0.331894
      5         11           0       -0.169037   -0.116874   -1.583874
      6         11           0        0.553164   -2.685272    0.347097
      7         11           0       -2.323304    1.695558    0.370031
 ---------------------------------------------------------------------

 SCF Done:  E(UB3LYP) =  -1136.13720957     A.U. after   20 cycles

 The electronic state is 2-A.
 Alpha  occ. eigenvalues --  -38.44342 -38.43759 -38.43665 -38.43572 -38.43534
 Alpha  occ. eigenvalues --  -38.43481 -38.43204  -2.20140  -2.19606  -2.19470
 Alpha  occ. eigenvalues --   -2.19444  -2.19366  -2.19363  -2.19163  -1.13811
 Alpha  occ. eigenvalues --   -1.13789  -1.13782  -1.13295  -1.13280  -1.13242
 Alpha  occ. eigenvalues --   -1.13165  -1.13145  -1.13130  -1.13125  -1.13108
 Alpha  occ. eigenvalues --   -1.13058  -1.13040  -1.13028  -1.13019  -1.13001
 Alpha  occ. eigenvalues --   -1.12993  -1.12969  -1.12852  -1.12800  -1.12774
 Alpha  occ. eigenvalues --   -0.18375  -0.12945  -0.12418  -0.10594
 Alpha virt. eigenvalues --   -0.05823  -0.05079  -0.04836  -0.03223  -0.02876
 Alpha virt. eigenvalues --   -0.02396  -0.01678  -0.01229  -0.00445  -0.00346
 Alpha virt. eigenvalues --   -0.00009   0.00339   0.00764   0.00816   0.00862

  Beta  occ. eigenvalues --  -38.44330 -38.43753 -38.43662 -38.43560 -38.43533
  Beta  occ. eigenvalues --  -38.43393 -38.43147  -2.20120  -2.19598  -2.19466
  Beta  occ. eigenvalues --   -2.19425  -2.19364  -2.19203  -2.19060  -1.13784
  Beta  occ. eigenvalues --   -1.13777  -1.13765  -1.13290  -1.13258  -1.13237
  Beta  occ. eigenvalues --   -1.13148  -1.13131  -1.13122  -1.13103  -1.13081
  Beta  occ. eigenvalues --   -1.13051  -1.13029  -1.13017  -1.13001  -1.12926
  Beta  occ. eigenvalues --   -1.12878  -1.12855  -1.12780  -1.12729  -1.12696
  Beta  occ. eigenvalues --   -0.17672  -0.12725  -0.12214
  Beta virt. eigenvalues --   -0.06716  -0.05753  -0.05034  -0.04761  -0.02492
  Beta virt. eigenvalues --   -0.02190  -0.01578  -0.01389  -0.01175  -0.00402
  Beta virt. eigenvalues --   -0.00377   0.00131   0.00379   0.00806   0.00832

 Mulliken charges and spin densities:
               1          2
     1  Na   0.128197  -0.022486
     2  Na   0.002780  -0.036072
     3  Na  -0.242233   0.534861
     4  Na  -0.042220  -0.071808
     5  Na  -0.117500   0.510695
     6  Na   0.206228   0.057740
     7  Na   0.064749   0.027070
 Sum of Mulliken charges =  -0.00000   1.00000

 Dipole moment (field-independent basis, Debye):
    X=              0.3448    Y=              0.0615    Z=              0.0387  Tot=              0.3524
 Quadrupole moment (field-independent basis, Debye-Ang):
   XX=            -55.9875   YY=            -62.0500   ZZ=            -74.7301
   XY=              0.8279   XZ=             -2.0102   YZ=             -0.3636

 Normal termination of Gaussian 16 at Thu Dec  7 02:34:02 2023.
