 Gaussian 16, Revision B.01,
 Gaussian 16:  ES64L-G16RevB.01 20-Dec-2017

 -------------------------
 #P B3LYP/6-311+g(d) force
 -------------------------

 -----
 DPGEN
 -----
 Symbolic Z-matrix:
 Charge =  0 Multiplicity = 2

                         Standard orientation:
 ---------------------------------------------------------------------
 Center     Atomic      Atomic             Coordinates (Angstroms)
 Number     Number       Type             X           Y           Z
 ---------------------------------------------------------------------
      1         11           0        1.677791    2.942618    0.506997
      2         11           0        0.404096    0.441977    0.131301
      3         11           0       -2.003394    2.403992   -0.812674
      4         11           0       -2.451940   -0.595734    1.589643
      5         11           0       -1.870402   -1.727741   -1.411059
      6         11           0        0.954156   -2.743402    0.539274
      7         11           0        3.289693   -0.721709   -0.543483
 ---------------------------------------------------------------------

 SCF Done:  E(UB3LYP) =  -1136.12167713     A.U. after   22 cycles

 The electronic state is 2-A.
 Alpha  occ. eigenvalues --  -38.44470 -38.44378 -38.44297 -38.43996 -38.43875
 Alpha  occ. eigenvalues --  -38.43399 -38.42451  -2.20298  -2.20179  -2.20126
 Alpha  occ. eigenvalues --   -2.19849  -2.19728  -2.19270  -2.18585  -1.14072
 Alpha  occ. eigenvalues --   -1.13936  -1.13891  -1.13863  -1.13840  -1.13821
 Alpha  occ. eigenvalues --   -1.13792  -1.13788  -1.13756  -1.13546  -1.13511
 Alpha  occ. eigenvalues --   -1.13468  -1.13399  -1.13393  -1.13349  -1.12937
 Alpha  occ. eigenvalues --   -1.12909  -1.12887  -1.12285  -1.12257  -1.12221
 Alpha  occ. eigenvalues --   -0.18134  -0.13174  -0.12836  -0.09608
 Alpha virt. eigenvalues --   -0.06216  -0.05603  -0.04943  -0.03027  -0.02700
 Alpha virt. eigenvalues --   -0.01762  -0.01497  -0.01300  -0.01081  -0.00561
 Alpha virt. eigenvalues --    0.00019   0.00352   0.00487   0.00682   0.00714

  Beta  occ. eigenvalues --  -38.44466 -38.44352 -38.44295 -38.43991 -38.43839
  Beta  occ. eigenvalues --  -38.43335 -38.42431  -2.20293  -2.20132  -2.20124
  Beta  occ. eigenvalues --   -2.19843  -2.19661  -2.19152  -2.18556  -1.14067
  Beta  occ. eigenvalues --   -1.13926  -1.13888  -1.13833  -1.13819  -1.13799
  Beta  occ. eigenvalues --   -1.13786  -1.13757  -1.13751  -1.13543  -1.13496
  Beta  occ. eigenvalues --   -1.13453  -1.13354  -1.13337  -1.13297  -1.12854
  Beta  occ. eigenvalues --   -1.12828  -1.12798  -1.12270  -1.12210  -1.12181
  Beta  occ. eigenvalues --   -0.17571  -0.12933  -0.12657
  Beta virt. eigenvalues --   -0.06167  -0.05779  -0.05509  -0.04766  -0.02509
  Beta virt. eigenvalues --   -0.02184  -0.01536  -0.01416  -0.00881  -0.00643
  Beta virt. eigenvalues --   -0.00564   0.00252   0.00462   0.00619   0.00737

 Mulliken charges and spin densities:
               1          2
     1  Na  -0.250336  -0.153306
     2  Na  -2.897267   0.422213
     3  Na   0.323556   0.157866
     4  Na   0.512020   0.195961
     5  Na   0.609737   0.239057
     6  Na   1.556905   0.232090
     7  Na   0.145384  -0.093882
 Sum of Mulliken charges =  -0.00000   1.00000

 Dipole moment (field-independent basis, Debye):
    X=              0.5845    Y=              0.2744    Z=             -0.1797  Tot=              0.6702
 Quadrupole moment (field-independent basis, Debye-Ang):
   XX=            -56.4487   YY=            -57.6716   ZZ=            -76.1107
   XY=             -0.5821   XZ=             -0.0175   YZ=              0.3363

 Normal termination of Gaussian 16 at Thu Dec  7 03:21:57 2023.
