 Gaussian 16, Revision B.01,
 Gaussian 16:  ES64L-G16RevB.01 20-Dec-2017

 -------------------------
 #P B3LYP/6-311+g(d) force
 -------------------------

 -----
 DPGEN
 -----
 Symbolic Z-matrix:
 Charge =  0 Multiplicity = 2

                         Standard orientation:
 ---------------------------------------------------------------------
 Center     Atomic      Atomic             Coordinates (Angstroms)
 Number     Number       Type             X           Y           Z
 ---------------------------------------------------------------------
      1         11           0       -2.705548   -1.684015   -0.093881
      2         11           0        1.377996   -2.106560   -0.687721
      3         11           0       -0.490030    0.262852   -1.651289
      4         11           0        3.429191    0.331641    0.189856
      5         11           0        0.104036   -1.244406    1.761361
      6         11           0        0.880833    2.587427    0.086519
      7         11           0       -2.596479    1.853061    0.395154
 ---------------------------------------------------------------------

 SCF Done:  E(UB3LYP) =  -1136.12879917     A.U. after   20 cycles

 The electronic state is 2-A.
 Alpha  occ. eigenvalues --  -38.44603 -38.44262 -38.44082 -38.43657 -38.43554
 Alpha  occ. eigenvalues --  -38.43264 -38.43016  -2.20415  -2.20100  -2.19906
 Alpha  occ. eigenvalues --   -2.19575  -2.19498  -2.19111  -2.19015  -1.14092
 Alpha  occ. eigenvalues --   -1.14067  -1.14063  -1.13780  -1.13771  -1.13734
 Alpha  occ. eigenvalues --   -1.13581  -1.13569  -1.13539  -1.13438  -1.13222
 Alpha  occ. eigenvalues --   -1.13176  -1.13169  -1.13086  -1.13071  -1.12843
 Alpha  occ. eigenvalues --   -1.12776  -1.12733  -1.12680  -1.12638  -1.12628
 Alpha  occ. eigenvalues --   -0.18675  -0.13445  -0.12360  -0.10457
 Alpha virt. eigenvalues --   -0.06211  -0.05588  -0.04148  -0.03360  -0.02830
 Alpha virt. eigenvalues --   -0.02168  -0.01952  -0.01219  -0.00459  -0.00117
 Alpha virt. eigenvalues --   -0.00001   0.00308   0.00731   0.00795   0.00839

  Beta  occ. eigenvalues --  -38.44601 -38.44257 -38.44075 -38.43598 -38.43530
  Beta  occ. eigenvalues --  -38.43260 -38.42939  -2.20414  -2.20094  -2.19895
  Beta  occ. eigenvalues --   -2.19477  -2.19448  -2.19105  -2.18876  -1.14087
  Beta  occ. eigenvalues --   -1.14065  -1.14055  -1.13773  -1.13746  -1.13730
  Beta  occ. eigenvalues --   -1.13569  -1.13555  -1.13531  -1.13383  -1.13154
  Beta  occ. eigenvalues --   -1.13116  -1.13099  -1.13052  -1.13011  -1.12825
  Beta  occ. eigenvalues --   -1.12759  -1.12732  -1.12592  -1.12542  -1.12523
  Beta  occ. eigenvalues --   -0.17975  -0.13244  -0.12137
  Beta virt. eigenvalues --   -0.06595  -0.06122  -0.05546  -0.04058  -0.02643
  Beta virt. eigenvalues --   -0.02139  -0.01869  -0.01235  -0.01113  -0.00459
  Beta virt. eigenvalues --   -0.00121   0.00173   0.00355   0.00790   0.00834

 Mulliken charges and spin densities:
               1          2
     1  Na   0.344775   0.062564
     2  Na   0.595801   0.054714
     3  Na  -0.045795   0.336381
     4  Na  -0.109828  -0.027066
     5  Na  -0.587636   0.529380
     6  Na  -0.006466   0.018902
     7  Na  -0.190850   0.025126
 Sum of Mulliken charges =  -0.00000   1.00000

 Dipole moment (field-independent basis, Debye):
    X=             -0.1544    Y=             -0.0354    Z=              0.2333  Tot=              0.2820
 Quadrupole moment (field-independent basis, Debye-Ang):
   XX=            -50.9251   YY=            -67.4128   ZZ=            -74.8614
   XY=              0.5652   XZ=             -0.5721   YZ=              2.4412

 Normal termination of Gaussian 16 at Fri Dec  8 03:52:02 2023.
