 Gaussian 16, Revision B.01,
 Gaussian 16:  ES64L-G16RevB.01 20-Dec-2017

 -------------------------
 #P B3LYP/6-311+g(d) force
 -------------------------

 -----
 DPGEN
 -----
 Symbolic Z-matrix:
 Charge =  0 Multiplicity = 2

                         Standard orientation:
 ---------------------------------------------------------------------
 Center     Atomic      Atomic             Coordinates (Angstroms)
 Number     Number       Type             X           Y           Z
 ---------------------------------------------------------------------
      1         11           0       -2.016352    1.905282    0.655424
      2         11           0        3.657451   -0.424727   -1.253122
      3         11           0        2.336420   -0.996059    1.505315
      4         11           0       -0.227909   -0.946119   -1.478020
      5         11           0       -3.705314   -0.201307   -1.255999
      6         11           0       -1.871518   -1.500375    1.606011
      7         11           0        1.827221    2.163305    0.220391
 ---------------------------------------------------------------------

 SCF Done:  E(UB3LYP) =  -1136.11581310     A.U. after   32 cycles

 The electronic state is 2-A.
 Alpha  occ. eigenvalues --  -38.44994 -38.44940 -38.44896 -38.44413 -38.44411
 Alpha  occ. eigenvalues --  -38.43174 -38.43052  -2.20835  -2.20772  -2.20734
 Alpha  occ. eigenvalues --   -2.20243  -2.20237  -2.19006  -2.18861  -1.14560
 Alpha  occ. eigenvalues --   -1.14496  -1.14482  -1.14438  -1.14433  -1.14396
 Alpha  occ. eigenvalues --   -1.14389  -1.14369  -1.14349  -1.13943  -1.13904
 Alpha  occ. eigenvalues --   -1.13902  -1.13891  -1.13858  -1.13837  -1.12691
 Alpha  occ. eigenvalues --   -1.12678  -1.12627  -1.12560  -1.12549  -1.12481
 Alpha  occ. eigenvalues --   -0.17944  -0.14809  -0.11042  -0.10421
 Alpha virt. eigenvalues --   -0.06878  -0.05960  -0.05336  -0.03142  -0.02842
 Alpha virt. eigenvalues --   -0.02345  -0.02106  -0.01414  -0.00740  -0.00563
 Alpha virt. eigenvalues --    0.00116   0.00140   0.00196   0.00215   0.00450

  Beta  occ. eigenvalues --  -38.44975 -38.44910 -38.44889 -38.44358 -38.44349
  Beta  occ. eigenvalues --  -38.43159 -38.43071  -2.20800  -2.20722  -2.20718
  Beta  occ. eigenvalues --   -2.20137  -2.20131  -2.18977  -2.18896  -1.14540
  Beta  occ. eigenvalues --   -1.14479  -1.14444  -1.14398  -1.14384  -1.14377
  Beta  occ. eigenvalues --   -1.14361  -1.14352  -1.14334  -1.13860  -1.13838
  Beta  occ. eigenvalues --   -1.13820  -1.13799  -1.13777  -1.13766  -1.12662
  Beta  occ. eigenvalues --   -1.12651  -1.12620  -1.12575  -1.12573  -1.12510
  Beta  occ. eigenvalues --   -0.17314  -0.14561  -0.10414
  Beta virt. eigenvalues --   -0.07321  -0.06645  -0.05222  -0.05153  -0.02880
  Beta virt. eigenvalues --   -0.02640  -0.01776  -0.01558  -0.00989  -0.00594
  Beta virt. eigenvalues --   -0.00418   0.00146   0.00253   0.00304   0.00368

 Mulliken charges and spin densities:
               1          2
     1  Na  -0.517209   0.147557
     2  Na   0.758852  -0.005992
     3  Na  -0.016002   0.073106
     4  Na  -0.978418   0.394752
     5  Na   1.045430   0.062011
     6  Na   0.041059   0.327542
     7  Na  -0.333711   0.001024
 Sum of Mulliken charges =  -0.00000   1.00000

 Dipole moment (field-independent basis, Debye):
    X=              0.1288    Y=             -0.8131    Z=             -0.3230  Tot=              0.8843
 Quadrupole moment (field-independent basis, Debye-Ang):
   XX=            -46.8507   YY=            -81.1788   ZZ=            -67.4724
   XY=              0.2723   XZ=             -0.3748   YZ=             -4.0503

 Normal termination of Gaussian 16 at Thu Dec  7 03:18:09 2023.
