 Gaussian 16, Revision B.01,
 Gaussian 16:  ES64L-G16RevB.01 20-Dec-2017

 -------------------------
 #P B3LYP/6-311+g(d) force
 -------------------------

 -----
 DPGEN
 -----
 Symbolic Z-matrix:
 Charge =  0 Multiplicity = 2

                         Standard orientation:
 ---------------------------------------------------------------------
 Center     Atomic      Atomic             Coordinates (Angstroms)
 Number     Number       Type             X           Y           Z
 ---------------------------------------------------------------------
      1         11           0       -2.978408   -0.572368   -0.244750
      2         11           0       -0.353887    0.223241    1.883433
      3         11           0        2.667818   -1.389707    0.096235
      4         11           0       -0.566018   -2.746092    0.019220
      5         11           0        2.401882    1.731146   -0.080248
      6         11           0       -1.316600    2.757183   -0.087230
      7         11           0        0.145213   -0.003404   -1.586660
 ---------------------------------------------------------------------

 SCF Done:  E(UB3LYP) =  -1136.13863808     A.U. after   20 cycles

 The electronic state is 2-A.
 Alpha  occ. eigenvalues --  -38.43977 -38.43788 -38.43646 -38.43540 -38.43171
 Alpha  occ. eigenvalues --  -38.43158 -38.42937  -2.19845  -2.19667  -2.19528
 Alpha  occ. eigenvalues --   -2.19378  -2.19113  -2.19057  -2.18965  -1.13524
 Alpha  occ. eigenvalues --   -1.13512  -1.13479  -1.13395  -1.13341  -1.13302
 Alpha  occ. eigenvalues --   -1.13197  -1.13175  -1.13154  -1.13061  -1.13050
 Alpha  occ. eigenvalues --   -1.13009  -1.12806  -1.12763  -1.12742  -1.12731
 Alpha  occ. eigenvalues --   -1.12698  -1.12691  -1.12640  -1.12588  -1.12577
 Alpha  occ. eigenvalues --   -0.19061  -0.13268  -0.12569  -0.10573
 Alpha virt. eigenvalues --   -0.05576  -0.05174  -0.04695  -0.03167  -0.02803
 Alpha virt. eigenvalues --   -0.02279  -0.01476  -0.01163  -0.00325  -0.00224
 Alpha virt. eigenvalues --    0.00023   0.00367   0.00833   0.00887   0.00926

  Beta  occ. eigenvalues --  -38.43969 -38.43783 -38.43642 -38.43535 -38.43151
  Beta  occ. eigenvalues --  -38.43084 -38.42870  -2.19834  -2.19661  -2.19524
  Beta  occ. eigenvalues --   -2.19374  -2.19049  -2.18953  -2.18844  -1.13520
  Beta  occ. eigenvalues --   -1.13479  -1.13473  -1.13394  -1.13323  -1.13288
  Beta  occ. eigenvalues --   -1.13192  -1.13157  -1.13149  -1.13055  -1.13024
  Beta  occ. eigenvalues --   -1.13010  -1.12763  -1.12697  -1.12688  -1.12674
  Beta  occ. eigenvalues --   -1.12618  -1.12609  -1.12556  -1.12502  -1.12493
  Beta  occ. eigenvalues --   -0.18330  -0.13017  -0.12314
  Beta virt. eigenvalues --   -0.06654  -0.05559  -0.05153  -0.04687  -0.02356
  Beta virt. eigenvalues --   -0.02017  -0.01388  -0.01241  -0.01093  -0.00379
  Beta virt. eigenvalues --   -0.00278   0.00158   0.00393   0.00877   0.00881

 Mulliken charges and spin densities:
               1          2
     1  Na   0.234789  -0.050033
     2  Na  -0.526933   0.763505
     3  Na   0.130798  -0.001215
     4  Na   0.214826  -0.011889
     5  Na   0.253365  -0.073541
     6  Na   0.124726  -0.132689
     7  Na  -0.431570   0.505860
 Sum of Mulliken charges =  -0.00000   1.00000

 Dipole moment (field-independent basis, Debye):
    X=             -0.1063    Y=              0.1753    Z=              0.0952  Tot=              0.2260
 Quadrupole moment (field-independent basis, Debye-Ang):
   XX=            -56.2032   YY=            -61.2268   ZZ=            -75.3315
   XY=             -0.2802   XZ=              1.1915   YZ=             -0.6251

 Normal termination of Gaussian 16 at Thu Dec  7 02:49:46 2023.
