 Gaussian 16, Revision B.01,
 Gaussian 16:  ES64L-G16RevB.01 20-Dec-2017

 -------------------------
 #P B3LYP/6-311+g(d) force
 -------------------------

 -----
 DPGEN
 -----
 Symbolic Z-matrix:
 Charge =  0 Multiplicity = 2

                         Standard orientation:
 ---------------------------------------------------------------------
 Center     Atomic      Atomic             Coordinates (Angstroms)
 Number     Number       Type             X           Y           Z
 ---------------------------------------------------------------------
      1         11           0       -1.464311    0.171831    1.367727
      2         11           0        2.344506    0.460823    1.205998
      3         11           0        0.784040   -2.299616    0.280965
      4         11           0       -4.060549    1.108245   -0.842882
      5         11           0       -2.602373   -2.170087   -0.587652
      6         11           0        4.917636   -0.081517   -1.216024
      7         11           0        0.081051    2.810321   -0.208132
 ---------------------------------------------------------------------

 SCF Done:  E(UB3LYP) =  -1136.12266561     A.U. after   21 cycles

 The electronic state is 2-A.
 Alpha  occ. eigenvalues --  -38.45025 -38.44479 -38.44030 -38.43726 -38.43710
 Alpha  occ. eigenvalues --  -38.43702 -38.43336  -2.20814  -2.20272  -2.19936
 Alpha  occ. eigenvalues --   -2.19567  -2.19537  -2.19494  -2.19172  -1.14450
 Alpha  occ. eigenvalues --   -1.14445  -1.14418  -1.13941  -1.13910  -1.13898
 Alpha  occ. eigenvalues --   -1.13646  -1.13597  -1.13572  -1.13268  -1.13249
 Alpha  occ. eigenvalues --   -1.13219  -1.13214  -1.13210  -1.13168  -1.13155
 Alpha  occ. eigenvalues --   -1.13153  -1.13117  -1.12852  -1.12846  -1.12782
 Alpha  occ. eigenvalues --   -0.17233  -0.14020  -0.11554  -0.11348
 Alpha virt. eigenvalues --   -0.05871  -0.05540  -0.05005  -0.03512  -0.02400
 Alpha virt. eigenvalues --   -0.02364  -0.02205  -0.01399  -0.00656  -0.00630
 Alpha virt. eigenvalues --   -0.00309   0.00102   0.00221   0.00329   0.00526

  Beta  occ. eigenvalues --  -38.44904 -38.44431 -38.44013 -38.43726 -38.43703
  Beta  occ. eigenvalues --  -38.43698 -38.43326  -2.20589  -2.20182  -2.19910
  Beta  occ. eigenvalues --   -2.19574  -2.19532  -2.19481  -2.19155  -1.14296
  Beta  occ. eigenvalues --   -1.14291  -1.14270  -1.13880  -1.13852  -1.13834
  Beta  occ. eigenvalues --   -1.13633  -1.13565  -1.13539  -1.13276  -1.13254
  Beta  occ. eigenvalues --   -1.13219  -1.13213  -1.13175  -1.13161  -1.13138
  Beta  occ. eigenvalues --   -1.13131  -1.13111  -1.12836  -1.12830  -1.12776
  Beta  occ. eigenvalues --   -0.16764  -0.13139  -0.11430
  Beta virt. eigenvalues --   -0.07749  -0.05728  -0.05115  -0.04635  -0.03411
  Beta virt. eigenvalues --   -0.02064  -0.01836  -0.01692  -0.01186  -0.00491
  Beta virt. eigenvalues --   -0.00336  -0.00248   0.00260   0.00354   0.00501

 Mulliken charges and spin densities:
               1          2
     1  Na   0.585859  -0.047276
     2  Na   0.075483  -0.072314
     3  Na  -0.402778   0.005596
     4  Na   0.036184   0.308401
     5  Na  -0.079353   0.136003
     6  Na   0.059216   0.622343
     7  Na  -0.274610   0.047247
 Sum of Mulliken charges =  -0.00000   1.00000

 Dipole moment (field-independent basis, Debye):
    X=             -0.4034    Y=              0.1492    Z=             -0.7682  Tot=              0.8804
 Quadrupole moment (field-independent basis, Debye-Ang):
   XX=            -60.7441   YY=            -71.4805   ZZ=            -65.4471
   XY=             -0.4367   XZ=              0.5063   YZ=             -0.6170

 Normal termination of Gaussian 16 at Tue Nov 28 19:43:07 2023.
