 Gaussian 16, Revision B.01,
 Gaussian 16:  ES64L-G16RevB.01 20-Dec-2017

 -------------------------
 #P B3LYP/6-311+g(d) force
 -------------------------

 -----
 DPGEN
 -----
 Symbolic Z-matrix:
 Charge =  0 Multiplicity = 2

                         Standard orientation:
 ---------------------------------------------------------------------
 Center     Atomic      Atomic             Coordinates (Angstroms)
 Number     Number       Type             X           Y           Z
 ---------------------------------------------------------------------
      1         11           0        2.847241   -0.868050   -0.326186
      2         11           0       -0.512951   -0.131302   -1.498399
      3         11           0       -3.055753   -1.241634   -0.226885
      4         11           0        0.567026    0.080688    2.121852
      5         11           0        1.704207    2.276929   -0.632252
      6         11           0        0.283179   -2.613180    0.175341
      7         11           0       -1.832948    2.496549    0.386529
 ---------------------------------------------------------------------

 SCF Done:  E(UB3LYP) =  -1136.13501204     A.U. after   20 cycles

 The electronic state is 2-A.
 Alpha  occ. eigenvalues --  -38.43977 -38.43888 -38.43756 -38.43620 -38.43459
 Alpha  occ. eigenvalues --  -38.43216 -38.43090  -2.19808  -2.19688  -2.19651
 Alpha  occ. eigenvalues --   -2.19518  -2.19317  -2.19152  -2.19113  -1.13530
 Alpha  occ. eigenvalues --   -1.13455  -1.13431  -1.13362  -1.13355  -1.13326
 Alpha  occ. eigenvalues --   -1.13321  -1.13287  -1.13263  -1.13211  -1.13180
 Alpha  occ. eigenvalues --   -1.13164  -1.13007  -1.12970  -1.12940  -1.12923
 Alpha  occ. eigenvalues --   -1.12814  -1.12772  -1.12758  -1.12738  -1.12702
 Alpha  occ. eigenvalues --   -0.18824  -0.12985  -0.12542  -0.10937
 Alpha virt. eigenvalues --   -0.05510  -0.05252  -0.04492  -0.03204  -0.03014
 Alpha virt. eigenvalues --   -0.02602  -0.01467  -0.01136  -0.00292  -0.00112
 Alpha virt. eigenvalues --   -0.00016   0.00338   0.00802   0.00868   0.00931

  Beta  occ. eigenvalues --  -38.43976 -38.43882 -38.43660 -38.43610 -38.43441
  Beta  occ. eigenvalues --  -38.43206 -38.43041  -2.19807  -2.19678  -2.19505
  Beta  occ. eigenvalues --   -2.19472  -2.19288  -2.19138  -2.19025  -1.13522
  Beta  occ. eigenvalues --   -1.13449  -1.13432  -1.13349  -1.13338  -1.13317
  Beta  occ. eigenvalues --   -1.13228  -1.13197  -1.13183  -1.13150  -1.13139
  Beta  occ. eigenvalues --   -1.13111  -1.12979  -1.12947  -1.12912  -1.12898
  Beta  occ. eigenvalues --   -1.12776  -1.12752  -1.12707  -1.12671  -1.12652
  Beta  occ. eigenvalues --   -0.18097  -0.12752  -0.12296
  Beta virt. eigenvalues --   -0.07001  -0.05442  -0.05172  -0.04465  -0.02485
  Beta virt. eigenvalues --   -0.02265  -0.01584  -0.01340  -0.01056  -0.00284
  Beta virt. eigenvalues --   -0.00137   0.00129   0.00382   0.00864   0.00886

 Mulliken charges and spin densities:
               1          2
     1  Na   0.206625   0.035720
     2  Na  -0.309380   0.253740
     3  Na   0.234554  -0.036988
     4  Na  -0.592928   0.636965
     5  Na   0.177375   0.039803
     6  Na   0.340288   0.048059
     7  Na  -0.056535   0.022701
 Sum of Mulliken charges =  -0.00000   1.00000

 Dipole moment (field-independent basis, Debye):
    X=             -0.2705    Y=              0.1672    Z=              0.2761  Tot=              0.4211
 Quadrupole moment (field-independent basis, Debye-Ang):
   XX=            -56.8933   YY=            -63.6480   ZZ=            -73.1345
   XY=             -0.2930   XZ=             -2.2182   YZ=             -0.1480

 Normal termination of Gaussian 16 at Thu Dec  7 10:33:38 2023.
