 Gaussian 16, Revision B.01,
 Gaussian 16:  ES64L-G16RevB.01 20-Dec-2017

 -------------------------
 #P B3LYP/6-311+g(d) force
 -------------------------

 -----
 DPGEN
 -----
 Symbolic Z-matrix:
 Charge =  0 Multiplicity = 2

                         Standard orientation:
 ---------------------------------------------------------------------
 Center     Atomic      Atomic             Coordinates (Angstroms)
 Number     Number       Type             X           Y           Z
 ---------------------------------------------------------------------
      1         11           0       -1.674812   -2.544928   -0.511749
      2         11           0        3.602165    1.406248   -0.079897
      3         11           0       -4.865261   -0.386821    0.158539
      4         11           0       -2.450376    1.627313    1.022951
      5         11           0        3.979786   -1.685261    0.956664
      6         11           0        1.127696   -1.133464   -0.784498
      7         11           0        0.280800    2.716913   -0.762010
 ---------------------------------------------------------------------

 SCF Done:  E(UB3LYP) =  -1136.11900297     A.U. after   21 cycles

 The electronic state is 2-A.
 Alpha  occ. eigenvalues --  -38.44938 -38.44520 -38.44517 -38.44416 -38.43981
 Alpha  occ. eigenvalues --  -38.43775 -38.42744  -2.20759  -2.20325  -2.20311
 Alpha  occ. eigenvalues --   -2.20246  -2.19790  -2.19656  -2.18550  -1.14443
 Alpha  occ. eigenvalues --   -1.14420  -1.14388  -1.14037  -1.13993  -1.13978
 Alpha  occ. eigenvalues --   -1.13972  -1.13942  -1.13903  -1.13897  -1.13894
 Alpha  occ. eigenvalues --   -1.13880  -1.13519  -1.13450  -1.13399  -1.13338
 Alpha  occ. eigenvalues --   -1.13299  -1.13268  -1.12217  -1.12213  -1.12194
 Alpha  occ. eigenvalues --   -0.16756  -0.14396  -0.11983  -0.11182
 Alpha virt. eigenvalues --   -0.06715  -0.04987  -0.04300  -0.03661  -0.03385
 Alpha virt. eigenvalues --   -0.02467  -0.01852  -0.01288  -0.00839  -0.00694
 Alpha virt. eigenvalues --   -0.00383  -0.00060   0.00271   0.00514   0.00749

  Beta  occ. eigenvalues --  -38.44918 -38.44507 -38.44461 -38.44375 -38.43935
  Beta  occ. eigenvalues --  -38.43729 -38.42731  -2.20723  -2.20297  -2.20217
  Beta  occ. eigenvalues --   -2.20171  -2.19710  -2.19577  -2.18526  -1.14421
  Beta  occ. eigenvalues --   -1.14404  -1.14336  -1.13999  -1.13977  -1.13953
  Beta  occ. eigenvalues --   -1.13902  -1.13873  -1.13853  -1.13848  -1.13844
  Beta  occ. eigenvalues --   -1.13822  -1.13439  -1.13399  -1.13343  -1.13290
  Beta  occ. eigenvalues --   -1.13242  -1.13184  -1.12199  -1.12198  -1.12179
  Beta  occ. eigenvalues --   -0.16155  -0.13695  -0.11500
  Beta virt. eigenvalues --   -0.07727  -0.06741  -0.04576  -0.04080  -0.03267
  Beta virt. eigenvalues --   -0.02982  -0.02136  -0.01646  -0.00930  -0.00697
  Beta virt. eigenvalues --   -0.00356  -0.00256   0.00097   0.00390   0.00576

 Mulliken charges and spin densities:
               1          2
     1  Na   0.344405   0.023644
     2  Na   0.429309   0.188300
     3  Na  -0.082527   0.220382
     4  Na   0.002142   0.175601
     5  Na   0.654679   0.246438
     6  Na  -1.543888   0.182806
     7  Na   0.195881  -0.037170
 Sum of Mulliken charges =  -0.00000   1.00000

 Dipole moment (field-independent basis, Debye):
    X=              0.4858    Y=             -0.3748    Z=              0.4422  Tot=              0.7563
 Quadrupole moment (field-independent basis, Debye-Ang):
   XX=            -54.8551   YY=            -70.1038   ZZ=            -69.8039
   XY=              3.4312   XZ=              2.1016   YZ=             -1.3467

 Normal termination of Gaussian 16 at Sun Dec  3 20:04:30 2023.
