 Gaussian 16, Revision B.01,
 Gaussian 16:  ES64L-G16RevB.01 20-Dec-2017

 -------------------------
 #P B3LYP/6-311+g(d) force
 -------------------------

 -----
 DPGEN
 -----
 Symbolic Z-matrix:
 Charge =  0 Multiplicity = 2

                         Standard orientation:
 ---------------------------------------------------------------------
 Center     Atomic      Atomic             Coordinates (Angstroms)
 Number     Number       Type             X           Y           Z
 ---------------------------------------------------------------------
      1         11           0        0.294069   -1.926014   -0.969411
      2         11           0        2.803139   -0.131681   -1.472594
      3         11           0       -3.141825   -1.750767   -0.188420
      4         11           0        0.542360    2.635618   -0.171063
      5         11           0       -2.432998    1.778827   -0.595741
      6         11           0       -0.759473    0.009760    1.936856
      7         11           0        2.694729   -0.615744    1.460373
 ---------------------------------------------------------------------

 SCF Done:  E(UB3LYP) =  -1136.12869305     A.U. after   19 cycles

 The electronic state is 2-A.
 Alpha  occ. eigenvalues --  -38.44551 -38.44159 -38.44033 -38.43883 -38.43753
 Alpha  occ. eigenvalues --  -38.43749 -38.42912  -2.20432  -2.20070  -2.19918
 Alpha  occ. eigenvalues --   -2.19733  -2.19615  -2.19557  -2.18755  -1.14163
 Alpha  occ. eigenvalues --   -1.14085  -1.14057  -1.13757  -1.13701  -1.13671
 Alpha  occ. eigenvalues --   -1.13608  -1.13554  -1.13537  -1.13419  -1.13393
 Alpha  occ. eigenvalues --   -1.13361  -1.13300  -1.13292  -1.13244  -1.13226
 Alpha  occ. eigenvalues --   -1.13206  -1.13183  -1.12440  -1.12415  -1.12388
 Alpha  occ. eigenvalues --   -0.18288  -0.13865  -0.11778  -0.11217
 Alpha virt. eigenvalues --   -0.06124  -0.05274  -0.04716  -0.03599  -0.02770
 Alpha virt. eigenvalues --   -0.02608  -0.01908  -0.00830  -0.00564  -0.00186
 Alpha virt. eigenvalues --    0.00179   0.00315   0.00446   0.00515   0.00776

  Beta  occ. eigenvalues --  -38.44512 -38.44120 -38.43962 -38.43874 -38.43750
  Beta  occ. eigenvalues --  -38.43730 -38.42906  -2.20363  -2.19998  -2.19790
  Beta  occ. eigenvalues --   -2.19715  -2.19577  -2.19558  -2.18744  -1.14109
  Beta  occ. eigenvalues --   -1.14028  -1.14005  -1.13700  -1.13653  -1.13620
  Beta  occ. eigenvalues --   -1.13527  -1.13462  -1.13441  -1.13404  -1.13374
  Beta  occ. eigenvalues --   -1.13348  -1.13276  -1.13242  -1.13233  -1.13220
  Beta  occ. eigenvalues --   -1.13206  -1.13173  -1.12433  -1.12391  -1.12383
  Beta  occ. eigenvalues --   -0.17598  -0.13700  -0.11613
  Beta virt. eigenvalues --   -0.07257  -0.05972  -0.05146  -0.04140  -0.03424
  Beta virt. eigenvalues --   -0.02073  -0.01896  -0.01707  -0.00757  -0.00286
  Beta virt. eigenvalues --   -0.00075   0.00218   0.00350   0.00620   0.00724

 Mulliken charges and spin densities:
               1          2
     1  Na  -0.763617   0.187698
     2  Na   0.671707   0.290145
     3  Na   0.445039  -0.033081
     4  Na  -0.403515   0.178581
     5  Na   0.235844  -0.072914
     6  Na  -0.332048   0.402156
     7  Na   0.146590   0.047415
 Sum of Mulliken charges =  -0.00000   1.00000

 Dipole moment (field-independent basis, Debye):
    X=              0.0690    Y=             -0.1907    Z=              0.0164  Tot=              0.2035
 Quadrupole moment (field-independent basis, Debye-Ang):
   XX=            -53.0590   YY=            -74.3068   ZZ=            -69.1834
   XY=              1.1026   XZ=              1.3385   YZ=             -1.2345

 Normal termination of Gaussian 16 at Sun Dec  3 11:53:56 2023.
