 Gaussian 16, Revision B.01,
 Gaussian 16:  ES64L-G16RevB.01 20-Dec-2017

 -------------------------
 #P B3LYP/6-311+g(d) force
 -------------------------

 -----
 DPGEN
 -----
 Symbolic Z-matrix:
 Charge =  0 Multiplicity = 2

                         Standard orientation:
 ---------------------------------------------------------------------
 Center     Atomic      Atomic             Coordinates (Angstroms)
 Number     Number       Type             X           Y           Z
 ---------------------------------------------------------------------
      1         11           0       -0.242684    3.304176   -0.637577
      2         11           0        2.633018   -2.416703   -0.547659
      3         11           0        0.887312   -0.660314    1.905355
      4         11           0        2.581991    1.081020   -0.023022
      5         11           0       -0.518239   -0.421182   -1.562416
      6         11           0       -3.546051   -1.798744   -0.228425
      7         11           0       -1.795347    0.911746    1.093744
 ---------------------------------------------------------------------

 SCF Done:  E(UB3LYP) =  -1136.12786502     A.U. after   20 cycles

 The electronic state is 2-A.
 Alpha  occ. eigenvalues --  -38.44428 -38.44119 -38.44105 -38.43887 -38.43756
 Alpha  occ. eigenvalues --  -38.43404 -38.43130  -2.20288  -2.19925  -2.19880
 Alpha  occ. eigenvalues --   -2.19766  -2.19690  -2.19338  -2.18947  -1.14028
 Alpha  occ. eigenvalues --   -1.13962  -1.13878  -1.13596  -1.13583  -1.13558
 Alpha  occ. eigenvalues --   -1.13553  -1.13545  -1.13520  -1.13489  -1.13406
 Alpha  occ. eigenvalues --   -1.13372  -1.13369  -1.13336  -1.13286  -1.13043
 Alpha  occ. eigenvalues --   -1.13005  -1.12925  -1.12619  -1.12604  -1.12580
 Alpha  occ. eigenvalues --   -0.18310  -0.13241  -0.11907  -0.10880
 Alpha virt. eigenvalues --   -0.06098  -0.05600  -0.04166  -0.03426  -0.02679
 Alpha virt. eigenvalues --   -0.02504  -0.01868  -0.01500  -0.00426  -0.00259
 Alpha virt. eigenvalues --    0.00137   0.00273   0.00507   0.00684   0.00800

  Beta  occ. eigenvalues --  -38.44419 -38.44110 -38.44109 -38.43838 -38.43669
  Beta  occ. eigenvalues --  -38.43371 -38.43122  -2.20275  -2.19907  -2.19889
  Beta  occ. eigenvalues --   -2.19677  -2.19533  -2.19281  -2.18934  -1.14004
  Beta  occ. eigenvalues --   -1.13938  -1.13874  -1.13581  -1.13561  -1.13557
  Beta  occ. eigenvalues --   -1.13548  -1.13547  -1.13524  -1.13427  -1.13342
  Beta  occ. eigenvalues --   -1.13304  -1.13268  -1.13229  -1.13165  -1.13003
  Beta  occ. eigenvalues --   -1.12934  -1.12890  -1.12610  -1.12586  -1.12573
  Beta  occ. eigenvalues --   -0.17560  -0.13106  -0.11723
  Beta virt. eigenvalues --   -0.06941  -0.05981  -0.05458  -0.03914  -0.02891
  Beta virt. eigenvalues --   -0.02152  -0.01917  -0.01489  -0.01327  -0.00352
  Beta virt. eigenvalues --   -0.00099   0.00210   0.00311   0.00613   0.00775

 Mulliken charges and spin densities:
               1          2
     1  Na   0.087603  -0.095962
     2  Na  -0.067149   0.021350
     3  Na   0.339875   0.091857
     4  Na  -0.109001   0.294208
     5  Na  -0.427307   0.502009
     6  Na  -0.007803  -0.068557
     7  Na   0.183782   0.255094
 Sum of Mulliken charges =  -0.00000   1.00000

 Dipole moment (field-independent basis, Debye):
    X=              0.3350    Y=             -0.6263    Z=             -0.2196  Tot=              0.7434
 Quadrupole moment (field-independent basis, Debye-Ang):
   XX=            -57.1443   YY=            -62.5723   ZZ=            -72.9234
   XY=              0.1814   XZ=             -1.5441   YZ=              0.5975

 Normal termination of Gaussian 16 at Fri Dec  8 02:19:57 2023.
