 Gaussian 16, Revision B.01,
 Gaussian 16:  ES64L-G16RevB.01 20-Dec-2017

 -------------------------
 #P B3LYP/6-311+g(d) force
 -------------------------

 -----
 DPGEN
 -----
 Symbolic Z-matrix:
 Charge =  0 Multiplicity = 2

                         Standard orientation:
 ---------------------------------------------------------------------
 Center     Atomic      Atomic             Coordinates (Angstroms)
 Number     Number       Type             X           Y           Z
 ---------------------------------------------------------------------
      1         11           0        3.090055   -2.158167   -0.191221
      2         11           0       -3.283382   -1.324893    0.424260
      3         11           0        0.640510    3.619730   -0.461127
      4         11           0       -2.955500    1.920557   -0.025206
      5         11           0       -0.683022   -3.170597   -0.375455
      6         11           0        3.179827    1.104075    0.612651
      7         11           0        0.011512    0.009296    0.016099
 ---------------------------------------------------------------------

 SCF Done:  E(UB3LYP) =  -1136.12851837     A.U. after   22 cycles

 The electronic state is 2-A.
 Alpha  occ. eigenvalues --  -38.44493 -38.44221 -38.43883 -38.43863 -38.43637
 Alpha  occ. eigenvalues --  -38.43625 -38.43299  -2.20319  -2.20081  -2.19771
 Alpha  occ. eigenvalues --   -2.19699  -2.19478  -2.19425  -2.19167  -1.14013
 Alpha  occ. eigenvalues --   -1.13994  -1.13939  -1.13758  -1.13749  -1.13736
 Alpha  occ. eigenvalues --   -1.13511  -1.13415  -1.13412  -1.13367  -1.13345
 Alpha  occ. eigenvalues --   -1.13329  -1.13139  -1.13134  -1.13097  -1.13091
 Alpha  occ. eigenvalues --   -1.13066  -1.13052  -1.12824  -1.12813  -1.12791
 Alpha  occ. eigenvalues --   -0.17266  -0.14006  -0.13147  -0.09755
 Alpha virt. eigenvalues --   -0.06533  -0.05730  -0.04189  -0.03259  -0.02778
 Alpha virt. eigenvalues --   -0.02147  -0.02095  -0.01665  -0.01357  -0.00146
 Alpha virt. eigenvalues --    0.00033   0.00321   0.00452   0.00529   0.00731

  Beta  occ. eigenvalues --  -38.44477 -38.44204 -38.43874 -38.43845 -38.43585
  Beta  occ. eigenvalues --  -38.43577 -38.43250  -2.20295  -2.20057  -2.19789
  Beta  occ. eigenvalues --   -2.19632  -2.19383  -2.19337  -2.19075  -1.14004
  Beta  occ. eigenvalues --   -1.13984  -1.13877  -1.13749  -1.13739  -1.13659
  Beta  occ. eigenvalues --   -1.13520  -1.13439  -1.13428  -1.13323  -1.13297
  Beta  occ. eigenvalues --   -1.13272  -1.13077  -1.13074  -1.13030  -1.13018
  Beta  occ. eigenvalues --   -1.13002  -1.12994  -1.12764  -1.12750  -1.12732
  Beta  occ. eigenvalues --   -0.16998  -0.13200  -0.12549
  Beta virt. eigenvalues --   -0.06622  -0.06512  -0.05394  -0.04080  -0.02779
  Beta virt. eigenvalues --   -0.02179  -0.01988  -0.01857  -0.01394  -0.01121
  Beta virt. eigenvalues --   -0.00026   0.00346   0.00374   0.00533   0.00701

 Mulliken charges and spin densities:
               1          2
     1  Na   0.848433   0.279956
     2  Na   0.628703   0.094998
     3  Na   0.667126   0.245747
     4  Na   0.868803   0.375405
     5  Na   0.726706   0.154538
     6  Na   0.899166   0.174000
     7  Na  -4.638937  -0.324644
 Sum of Mulliken charges =  -0.00000   1.00000

 Dipole moment (field-independent basis, Debye):
    X=              0.2174    Y=             -0.1371    Z=             -0.0008  Tot=              0.2570
 Quadrupole moment (field-independent basis, Debye-Ang):
   XX=            -64.9976   YY=            -60.3677   ZZ=            -71.3968
   XY=              2.3311   XZ=              0.1061   YZ=              0.2226

 Normal termination of Gaussian 16 at Wed Nov 29 17:17:40 2023.
