 Gaussian 16, Revision B.01,
 Gaussian 16:  ES64L-G16RevB.01 20-Dec-2017

 -------------------------
 #P B3LYP/6-311+g(d) force
 -------------------------

 -----
 DPGEN
 -----
 Symbolic Z-matrix:
 Charge =  0 Multiplicity = 2

                         Standard orientation:
 ---------------------------------------------------------------------
 Center     Atomic      Atomic             Coordinates (Angstroms)
 Number     Number       Type             X           Y           Z
 ---------------------------------------------------------------------
      1         11           0        0.301666    0.020613   -1.611699
      2         11           0       -3.129584    0.245452   -0.142196
      3         11           0        0.303652   -0.425169    2.099064
      4         11           0        2.232495    1.958316   -0.510852
      5         11           0        2.627445   -1.847620    0.139319
      6         11           0       -1.427436   -2.730368   -0.389378
      7         11           0       -0.908237    2.778775    0.415743
 ---------------------------------------------------------------------

 SCF Done:  E(UB3LYP) =  -1136.13560047     A.U. after   19 cycles

 The electronic state is 2-A.
 Alpha  occ. eigenvalues --  -38.44007 -38.43837 -38.43805 -38.43767 -38.43739
 Alpha  occ. eigenvalues --  -38.43318 -38.43315  -2.19825  -2.19704  -2.19623
 Alpha  occ. eigenvalues --   -2.19620  -2.19586  -2.19301  -2.19164  -1.13516
 Alpha  occ. eigenvalues --   -1.13492  -1.13459  -1.13411  -1.13361  -1.13333
 Alpha  occ. eigenvalues --   -1.13319  -1.13307  -1.13293  -1.13261  -1.13261
 Alpha  occ. eigenvalues --   -1.13260  -1.13249  -1.13228  -1.13209  -1.12966
 Alpha  occ. eigenvalues --   -1.12926  -1.12911  -1.12829  -1.12824  -1.12806
 Alpha  occ. eigenvalues --   -0.18445  -0.12856  -0.12578  -0.10862
 Alpha virt. eigenvalues --   -0.05651  -0.05075  -0.04809  -0.03161  -0.03088
 Alpha virt. eigenvalues --   -0.02626  -0.01428  -0.01252  -0.00412  -0.00330
 Alpha virt. eigenvalues --   -0.00011   0.00347   0.00818   0.00871   0.00876

  Beta  occ. eigenvalues --  -38.44002 -38.43795 -38.43767 -38.43744 -38.43724
  Beta  occ. eigenvalues --  -38.43307 -38.43257  -2.19819  -2.19606  -2.19596
  Beta  occ. eigenvalues --   -2.19589  -2.19531  -2.19191  -2.19151  -1.13499
  Beta  occ. eigenvalues --   -1.13474  -1.13456  -1.13376  -1.13298  -1.13278
  Beta  occ. eigenvalues --   -1.13261  -1.13254  -1.13246  -1.13240  -1.13231
  Beta  occ. eigenvalues --   -1.13215  -1.13209  -1.13205  -1.13194  -1.12892
  Beta  occ. eigenvalues --   -1.12846  -1.12841  -1.12814  -1.12812  -1.12787
  Beta  occ. eigenvalues --   -0.17749  -0.12594  -0.12336
  Beta virt. eigenvalues --   -0.06993  -0.05625  -0.04986  -0.04739  -0.02404
  Beta virt. eigenvalues --   -0.02353  -0.01617  -0.01342  -0.01155  -0.00447
  Beta virt. eigenvalues --   -0.00337   0.00126   0.00387   0.00826   0.00888

 Mulliken charges and spin densities:
               1          2
     1  Na  -0.141330   0.309877
     2  Na  -0.056183  -0.008731
     3  Na  -0.423751   0.709853
     4  Na   0.377775   0.051534
     5  Na   0.138639  -0.077178
     6  Na   0.104128  -0.057037
     7  Na   0.000723   0.071681
 Sum of Mulliken charges =  -0.00000   1.00000

 Dipole moment (field-independent basis, Debye):
    X=              0.1908    Y=             -0.3211    Z=              0.1623  Tot=              0.4072
 Quadrupole moment (field-independent basis, Debye-Ang):
   XX=            -58.7746   YY=            -61.4382   ZZ=            -73.9245
   XY=             -0.5742   XZ=             -0.3149   YZ=              1.0802

 Normal termination of Gaussian 16 at Thu Dec  7 18:10:32 2023.
