 Gaussian 16, Revision B.01,
 Gaussian 16:  ES64L-G16RevB.01 20-Dec-2017

 -------------------------
 #P B3LYP/6-311+g(d) force
 -------------------------

 -----
 DPGEN
 -----
 Symbolic Z-matrix:
 Charge =  0 Multiplicity = 2

                         Standard orientation:
 ---------------------------------------------------------------------
 Center     Atomic      Atomic             Coordinates (Angstroms)
 Number     Number       Type             X           Y           Z
 ---------------------------------------------------------------------
      1         11           0        2.323818    1.980190   -0.238988
      2         11           0       -3.174833   -0.913855   -0.143050
      3         11           0        2.989384   -1.441677   -0.025697
      4         11           0       -0.302234    0.087879   -1.529187
      5         11           0       -1.407522    2.994709    0.159924
      6         11           0       -0.392741   -2.665828   -0.013154
      7         11           0       -0.035873   -0.041417    1.790151
 ---------------------------------------------------------------------

 SCF Done:  E(UB3LYP) =  -1136.13488508     A.U. after   19 cycles

 The electronic state is 2-A.
 Alpha  occ. eigenvalues --  -38.44292 -38.44035 -38.43893 -38.43858 -38.43293
 Alpha  occ. eigenvalues --  -38.43048 -38.43019  -2.20126  -2.19853  -2.19678
 Alpha  occ. eigenvalues --   -2.19666  -2.19224  -2.19010  -2.18991  -1.13800
 Alpha  occ. eigenvalues --   -1.13785  -1.13767  -1.13537  -1.13524  -1.13479
 Alpha  occ. eigenvalues --   -1.13353  -1.13336  -1.13336  -1.13323  -1.13318
 Alpha  occ. eigenvalues --   -1.13313  -1.12974  -1.12907  -1.12828  -1.12738
 Alpha  occ. eigenvalues --   -1.12656  -1.12628  -1.12622  -1.12607  -1.12588
 Alpha  occ. eigenvalues --   -0.18627  -0.13052  -0.12466  -0.10178
 Alpha virt. eigenvalues --   -0.05844  -0.05482  -0.04775  -0.02928  -0.02673
 Alpha virt. eigenvalues --   -0.02027  -0.01783  -0.01452  -0.00599  -0.00397
 Alpha virt. eigenvalues --    0.00019   0.00318   0.00737   0.00798   0.00873

  Beta  occ. eigenvalues --  -38.44286 -38.44027 -38.43890 -38.43858 -38.43281
  Beta  occ. eigenvalues --  -38.42961 -38.42959  -2.20118  -2.19841  -2.19676
  Beta  occ. eigenvalues --   -2.19668  -2.19207  -2.18901  -2.18831  -1.13791
  Beta  occ. eigenvalues --   -1.13775  -1.13752  -1.13524  -1.13504  -1.13473
  Beta  occ. eigenvalues --   -1.13340  -1.13334  -1.13330  -1.13319  -1.13316
  Beta  occ. eigenvalues --   -1.13311  -1.12959  -1.12853  -1.12819  -1.12655
  Beta  occ. eigenvalues --   -1.12563  -1.12545  -1.12540  -1.12494  -1.12472
  Beta  occ. eigenvalues --   -0.17915  -0.12794  -0.12240
  Beta virt. eigenvalues --   -0.06331  -0.05785  -0.05457  -0.04754  -0.02178
  Beta virt. eigenvalues --   -0.01959  -0.01687  -0.01386  -0.01036  -0.00626
  Beta virt. eigenvalues --   -0.00435   0.00163   0.00361   0.00767   0.00814

 Mulliken charges and spin densities:
               1          2
     1  Na   0.083375  -0.057783
     2  Na   0.307250  -0.062321
     3  Na   0.018590  -0.048632
     4  Na  -0.355536   0.520346
     5  Na  -0.060107  -0.126217
     6  Na   0.360051   0.024536
     7  Na  -0.353622   0.750071
 Sum of Mulliken charges =  -0.00000   1.00000

 Dipole moment (field-independent basis, Debye):
    X=             -0.2050    Y=              0.2221    Z=              0.0747  Tot=              0.3113
 Quadrupole moment (field-independent basis, Debye-Ang):
   XX=            -53.1077   YY=            -60.2749   ZZ=            -77.4534
   XY=             -0.4864   XZ=             -0.5355   YZ=              0.2892

 Normal termination of Gaussian 16 at Tue Dec  5 21:18:26 2023.
