 Gaussian 16, Revision B.01,
 Gaussian 16:  ES64L-G16RevB.01 20-Dec-2017

 -------------------------
 #P B3LYP/6-311+g(d) force
 -------------------------

 -----
 DPGEN
 -----
 Symbolic Z-matrix:
 Charge =  0 Multiplicity = 2

                         Standard orientation:
 ---------------------------------------------------------------------
 Center     Atomic      Atomic             Coordinates (Angstroms)
 Number     Number       Type             X           Y           Z
 ---------------------------------------------------------------------
      1         11           0       -2.466012    1.675230   -0.465084
      2         11           0        0.928643   -2.845181   -0.510065
      3         11           0       -0.047486   -0.297856    2.013063
      4         11           0        3.252920   -0.148348    0.136990
      5         11           0        0.485381    0.286114   -1.548883
      6         11           0       -3.060595   -1.486057    0.153919
      7         11           0        0.907149    2.816098    0.220059
 ---------------------------------------------------------------------

 SCF Done:  E(UB3LYP) =  -1136.13472898     A.U. after   19 cycles

 The electronic state is 2-A.
 Alpha  occ. eigenvalues --  -38.44586 -38.44128 -38.43679 -38.43601 -38.43594
 Alpha  occ. eigenvalues --  -38.43233 -38.43116  -2.20411  -2.19919  -2.19526
 Alpha  occ. eigenvalues --   -2.19462  -2.19422  -2.19110  -2.19091  -1.14100
 Alpha  occ. eigenvalues --   -1.14070  -1.14038  -1.13599  -1.13586  -1.13558
 Alpha  occ. eigenvalues --   -1.13212  -1.13183  -1.13156  -1.13140  -1.13120
 Alpha  occ. eigenvalues --   -1.13099  -1.13074  -1.13070  -1.13045  -1.12877
 Alpha  occ. eigenvalues --   -1.12777  -1.12746  -1.12741  -1.12711  -1.12683
 Alpha  occ. eigenvalues --   -0.18404  -0.13158  -0.12229  -0.10558
 Alpha virt. eigenvalues --   -0.06068  -0.05112  -0.04692  -0.03189  -0.02843
 Alpha virt. eigenvalues --   -0.02379  -0.01782  -0.01129  -0.00623  -0.00348
 Alpha virt. eigenvalues --   -0.00018   0.00339   0.00786   0.00799   0.00850

  Beta  occ. eigenvalues --  -38.44582 -38.44129 -38.43669 -38.43589 -38.43503
  Beta  occ. eigenvalues --  -38.43227 -38.43060  -2.20407  -2.19923  -2.19510
  Beta  occ. eigenvalues --   -2.19402  -2.19293  -2.19086  -2.19006  -1.14091
  Beta  occ. eigenvalues --   -1.14057  -1.14031  -1.13604  -1.13574  -1.13562
  Beta  occ. eigenvalues --   -1.13194  -1.13162  -1.13148  -1.13101  -1.13058
  Beta  occ. eigenvalues --   -1.13032  -1.13022  -1.12974  -1.12950  -1.12845
  Beta  occ. eigenvalues --   -1.12736  -1.12707  -1.12699  -1.12664  -1.12625
  Beta  occ. eigenvalues --   -0.17694  -0.12950  -0.11989
  Beta virt. eigenvalues --   -0.06687  -0.06006  -0.05084  -0.04621  -0.02470
  Beta virt. eigenvalues --   -0.02101  -0.01703  -0.01359  -0.01046  -0.00641
  Beta virt. eigenvalues --   -0.00381   0.00129   0.00374   0.00812   0.00841

 Mulliken charges and spin densities:
               1          2
     1  Na   0.079277  -0.016201
     2  Na  -0.045513  -0.061957
     3  Na  -0.423552   0.763737
     4  Na   0.254332   0.016695
     5  Na   0.045184   0.320108
     6  Na   0.009180  -0.055490
     7  Na   0.081091   0.033108
 Sum of Mulliken charges =  -0.00000   1.00000

 Dipole moment (field-independent basis, Debye):
    X=              0.3058    Y=             -0.1953    Z=              0.1789  Tot=              0.4046
 Quadrupole moment (field-independent basis, Debye-Ang):
   XX=            -54.3654   YY=            -63.0548   ZZ=            -75.3720
   XY=              0.9391   XZ=              1.3428   YZ=              1.0669

 Normal termination of Gaussian 16 at Thu Dec  7 08:02:56 2023.
