 Gaussian 16, Revision B.01,
 Gaussian 16:  ES64L-G16RevB.01 20-Dec-2017

 -------------------------
 #P B3LYP/6-311+g(d) force
 -------------------------

 -----
 DPGEN
 -----
 Symbolic Z-matrix:
 Charge =  0 Multiplicity = 2

                         Standard orientation:
 ---------------------------------------------------------------------
 Center     Atomic      Atomic             Coordinates (Angstroms)
 Number     Number       Type             X           Y           Z
 ---------------------------------------------------------------------
      1         11           0        0.386467    1.896897   -2.243411
      2         11           0       -1.315988    0.045370    2.424067
      3         11           0       -0.315322   -0.573131   -0.167646
      4         11           0       -3.423066   -1.767238   -0.963710
      5         11           0        2.502747   -1.880917   -1.147704
      6         11           0       -0.092994    3.122898    0.493704
      7         11           0        2.258156   -0.843878    1.604701
 ---------------------------------------------------------------------

 SCF Done:  E(UB3LYP) =  -1136.11310487     A.U. after   22 cycles

 The electronic state is 2-A.
 Alpha  occ. eigenvalues --  -38.44708 -38.44199 -38.44127 -38.43712 -38.43702
 Alpha  occ. eigenvalues --  -38.43419 -38.42812  -2.20488  -2.20101  -2.19990
 Alpha  occ. eigenvalues --   -2.19585  -2.19539  -2.19273  -2.18903  -1.14144
 Alpha  occ. eigenvalues --   -1.14131  -1.14091  -1.13826  -1.13785  -1.13752
 Alpha  occ. eigenvalues --   -1.13730  -1.13611  -1.13585  -1.13256  -1.13253
 Alpha  occ. eigenvalues --   -1.13229  -1.13202  -1.13197  -1.13175  -1.12954
 Alpha  occ. eigenvalues --   -1.12903  -1.12887  -1.12660  -1.12528  -1.12511
 Alpha  occ. eigenvalues --   -0.18072  -0.12622  -0.12097  -0.11962
 Alpha virt. eigenvalues --   -0.05729  -0.04979  -0.04202  -0.03506  -0.03081
 Alpha virt. eigenvalues --   -0.02830  -0.01402  -0.01096  -0.00660   0.00004
 Alpha virt. eigenvalues --    0.00191   0.00391   0.00575   0.00723   0.00767

  Beta  occ. eigenvalues --  -38.44630 -38.44176 -38.44092 -38.43704 -38.43694
  Beta  occ. eigenvalues --  -38.43402 -38.42790  -2.20343  -2.20060  -2.19929
  Beta  occ. eigenvalues --   -2.19570  -2.19524  -2.19241  -2.18871  -1.14038
  Beta  occ. eigenvalues --   -1.14032  -1.13999  -1.13802  -1.13747  -1.13713
  Beta  occ. eigenvalues --   -1.13704  -1.13569  -1.13522  -1.13245  -1.13239
  Beta  occ. eigenvalues --   -1.13218  -1.13189  -1.13188  -1.13158  -1.12928
  Beta  occ. eigenvalues --   -1.12882  -1.12865  -1.12578  -1.12513  -1.12491
  Beta  occ. eigenvalues --   -0.17336  -0.12507  -0.11666
  Beta virt. eigenvalues --   -0.08236  -0.05233  -0.04511  -0.03895  -0.03268
  Beta virt. eigenvalues --   -0.02812  -0.02284  -0.01121  -0.00891  -0.00537
  Beta virt. eigenvalues --    0.00265   0.00321   0.00565   0.00644   0.00810

 Mulliken charges and spin densities:
               1          2
     1  Na   0.120043   0.206083
     2  Na   0.088798   0.391530
     3  Na  -1.804189  -0.058923
     4  Na   0.448003   0.232527
     5  Na   0.408777   0.002540
     6  Na  -0.096341   0.132551
     7  Na   0.834908   0.093692
 Sum of Mulliken charges =  -0.00000   1.00000

 Dipole moment (field-independent basis, Debye):
    X=              0.0949    Y=             -0.0530    Z=              0.2010  Tot=              0.2285
 Quadrupole moment (field-independent basis, Debye-Ang):
   XX=            -63.7365   YY=            -69.4225   ZZ=            -60.3008
   XY=              0.3015   XZ=              1.9974   YZ=              6.6382

 Normal termination of Gaussian 16 at Tue Dec  5 14:53:59 2023.
