 Gaussian 16, Revision B.01,
 Gaussian 16:  ES64L-G16RevB.01 20-Dec-2017

 -------------------------
 #P B3LYP/6-311+g(d) force
 -------------------------

 -----
 DPGEN
 -----
 Symbolic Z-matrix:
 Charge =  0 Multiplicity = 2

                         Standard orientation:
 ---------------------------------------------------------------------
 Center     Atomic      Atomic             Coordinates (Angstroms)
 Number     Number       Type             X           Y           Z
 ---------------------------------------------------------------------
      1         11           0        0.061221    3.003138    0.801463
      2         11           0       -0.346576   -0.283101   -0.995817
      3         11           0        2.822759    1.191559   -1.256423
      4         11           0       -3.085158    1.046883   -0.782328
      5         11           0        0.615218   -0.150146    2.198243
      6         11           0       -1.934182   -2.276439    0.178562
      7         11           0        1.866718   -2.531894   -0.143699
 ---------------------------------------------------------------------

 SCF Done:  E(UB3LYP) =  -1136.12740957     A.U. after   20 cycles

 The electronic state is 2-A.
 Alpha  occ. eigenvalues --  -38.44126 -38.44025 -38.43936 -38.43794 -38.43716
 Alpha  occ. eigenvalues --  -38.43652 -38.42801  -2.19919  -2.19903  -2.19812
 Alpha  occ. eigenvalues --   -2.19621  -2.19547  -2.19448  -2.18914  -1.13721
 Alpha  occ. eigenvalues --   -1.13596  -1.13555  -1.13552  -1.13541  -1.13495
 Alpha  occ. eigenvalues --   -1.13475  -1.13442  -1.13417  -1.13314  -1.13284
 Alpha  occ. eigenvalues --   -1.13270  -1.13242  -1.13192  -1.13159  -1.13126
 Alpha  occ. eigenvalues --   -1.13097  -1.13085  -1.12612  -1.12548  -1.12527
 Alpha  occ. eigenvalues --   -0.18290  -0.12701  -0.12391  -0.10962
 Alpha virt. eigenvalues --   -0.05441  -0.05056  -0.04891  -0.03213  -0.02933
 Alpha virt. eigenvalues --   -0.02481  -0.01437  -0.01297  -0.00552  -0.00129
 Alpha virt. eigenvalues --    0.00019   0.00332   0.00773   0.00822   0.00851

  Beta  occ. eigenvalues --  -38.44077 -38.44024 -38.43843 -38.43793 -38.43707
  Beta  occ. eigenvalues --  -38.43638 -38.42774  -2.19903  -2.19829  -2.19641
  Beta  occ. eigenvalues --   -2.19621  -2.19530  -2.19424  -2.18868  -1.13720
  Beta  occ. eigenvalues --   -1.13545  -1.13528  -1.13494  -1.13478  -1.13472
  Beta  occ. eigenvalues --   -1.13384  -1.13332  -1.13311  -1.13298  -1.13268
  Beta  occ. eigenvalues --   -1.13254  -1.13230  -1.13179  -1.13148  -1.13097
  Beta  occ. eigenvalues --   -1.13075  -1.13074  -1.12553  -1.12520  -1.12496
  Beta  occ. eigenvalues --   -0.17641  -0.12324  -0.12201
  Beta virt. eigenvalues --   -0.07166  -0.05376  -0.04850  -0.04704  -0.02580
  Beta virt. eigenvalues --   -0.02353  -0.01627  -0.01367  -0.01169  -0.00379
  Beta virt. eigenvalues --   -0.00097   0.00123   0.00387   0.00802   0.00878

 Mulliken charges and spin densities:
               1          2
     1  Na   0.015990   0.106526
     2  Na  -0.308931  -0.004166
     3  Na   0.031124   0.179319
     4  Na   0.261788   0.068835
     5  Na  -0.194274   0.512383
     6  Na   0.017366   0.131170
     7  Na   0.176938   0.005932
 Sum of Mulliken charges =  -0.00000   1.00000

 Dipole moment (field-independent basis, Debye):
    X=              0.0913    Y=             -0.1877    Z=              0.3277  Tot=              0.3885
 Quadrupole moment (field-independent basis, Debye-Ang):
   XX=            -59.9058   YY=            -59.8179   ZZ=            -72.2441
   XY=             -1.1521   XZ=             -1.7009   YZ=             -1.2348

 Normal termination of Gaussian 16 at Thu Dec  7 12:05:38 2023.
