 Gaussian 16, Revision B.01,
 Gaussian 16:  ES64L-G16RevB.01 20-Dec-2017

 -------------------------
 #P B3LYP/6-311+g(d) force
 -------------------------

 -----
 DPGEN
 -----
 Symbolic Z-matrix:
 Charge =  0 Multiplicity = 2

                         Standard orientation:
 ---------------------------------------------------------------------
 Center     Atomic      Atomic             Coordinates (Angstroms)
 Number     Number       Type             X           Y           Z
 ---------------------------------------------------------------------
      1         11           0        0.142248   -3.011893   -0.079189
      2         11           0       -0.034302   -0.165688   -1.752426
      3         11           0       -1.777561    2.345168    0.099444
      4         11           0        0.337938   -0.309831    1.918035
      5         11           0       -3.121744   -0.854392    0.015357
      6         11           0        1.430117    2.515394   -0.085386
      7         11           0        3.023303   -0.518758   -0.115835
 ---------------------------------------------------------------------

 SCF Done:  E(UB3LYP) =  -1136.13957019     A.U. after   19 cycles

 The electronic state is 2-A.
 Alpha  occ. eigenvalues --  -38.44080 -38.43929 -38.43749 -38.43425 -38.43373
 Alpha  occ. eigenvalues --  -38.43302 -38.43182  -2.19877  -2.19782  -2.19591
 Alpha  occ. eigenvalues --   -2.19291  -2.19281  -2.19183  -2.19135  -1.13552
 Alpha  occ. eigenvalues --   -1.13541  -1.13518  -1.13462  -1.13454  -1.13416
 Alpha  occ. eigenvalues --   -1.13281  -1.13273  -1.13208  -1.12997  -1.12961
 Alpha  occ. eigenvalues --   -1.12946  -1.12934  -1.12915  -1.12909  -1.12858
 Alpha  occ. eigenvalues --   -1.12834  -1.12810  -1.12808  -1.12763  -1.12749
 Alpha  occ. eigenvalues --   -0.18699  -0.12863  -0.12690  -0.10638
 Alpha virt. eigenvalues --   -0.05754  -0.04976  -0.04906  -0.03048  -0.02981
 Alpha virt. eigenvalues --   -0.02467  -0.01508  -0.01167  -0.00465  -0.00292
 Alpha virt. eigenvalues --   -0.00004   0.00368   0.00838   0.00851   0.00931

  Beta  occ. eigenvalues --  -38.44081 -38.43922 -38.43743 -38.43423 -38.43297
  Beta  occ. eigenvalues --  -38.43288 -38.43107  -2.19880  -2.19774  -2.19583
  Beta  occ. eigenvalues --   -2.19280  -2.19178  -2.19133  -2.18999  -1.13545
  Beta  occ. eigenvalues --   -1.13535  -1.13522  -1.13458  -1.13417  -1.13415
  Beta  occ. eigenvalues --   -1.13276  -1.13237  -1.13207  -1.12994  -1.12935
  Beta  occ. eigenvalues --   -1.12921  -1.12864  -1.12842  -1.12816  -1.12810
  Beta  occ. eigenvalues --   -1.12798  -1.12791  -1.12719  -1.12666  -1.12650
  Beta  occ. eigenvalues --   -0.17962  -0.12643  -0.12445
  Beta virt. eigenvalues --   -0.06727  -0.05754  -0.04931  -0.04882  -0.02276
  Beta virt. eigenvalues --   -0.02180  -0.01454  -0.01387  -0.01094  -0.00531
  Beta virt. eigenvalues --   -0.00344   0.00135   0.00390   0.00834   0.00879

 Mulliken charges and spin densities:
               1          2
     1  Na   0.145962  -0.180802
     2  Na  -0.237793   0.662000
     3  Na  -0.015590  -0.065414
     4  Na  -0.409569   0.790152
     5  Na   0.023499  -0.110254
     6  Na   0.118442  -0.027832
     7  Na   0.375049  -0.067851
 Sum of Mulliken charges =  -0.00000   1.00000

 Dipole moment (field-independent basis, Debye):
    X=             -0.0193    Y=             -0.3644    Z=              0.0455  Tot=              0.3678
 Quadrupole moment (field-independent basis, Debye-Ang):
   XX=            -57.0631   YY=            -61.2299   ZZ=            -74.9579
   XY=              0.3144   XZ=             -0.8884   YZ=              0.3227

 Normal termination of Gaussian 16 at Thu Dec  7 20:30:04 2023.
