 Gaussian 16, Revision B.01,
 Gaussian 16:  ES64L-G16RevB.01 20-Dec-2017

 -------------------------
 #P B3LYP/6-311+g(d) force
 -------------------------

 -----
 DPGEN
 -----
 Symbolic Z-matrix:
 Charge =  0 Multiplicity = 2

                         Standard orientation:
 ---------------------------------------------------------------------
 Center     Atomic      Atomic             Coordinates (Angstroms)
 Number     Number       Type             X           Y           Z
 ---------------------------------------------------------------------
      1         11           0        0.151239   -0.119483    2.233674
      2         11           0       -2.085401   -2.223984   -0.154671
      3         11           0        0.011490    2.800561    0.268041
      4         11           0        1.743078   -2.266271    0.053823
      5         11           0       -2.967498    0.959738   -0.140313
      6         11           0       -0.001445    0.167681   -1.886931
      7         11           0        3.148538    0.681758   -0.373625
 ---------------------------------------------------------------------

 SCF Done:  E(UB3LYP) =  -1136.13840339     A.U. after   19 cycles

 The electronic state is 2-A.
 Alpha  occ. eigenvalues --  -38.44161 -38.44122 -38.43955 -38.43811 -38.43390
 Alpha  occ. eigenvalues --  -38.43347 -38.42975  -2.19986  -2.19980  -2.19793
 Alpha  occ. eigenvalues --   -2.19722  -2.19217  -2.19203  -2.18823  -1.13661
 Alpha  occ. eigenvalues --   -1.13649  -1.13637  -1.13623  -1.13612  -1.13602
 Alpha  occ. eigenvalues --   -1.13474  -1.13460  -1.13436  -1.13399  -1.13361
 Alpha  occ. eigenvalues --   -1.13338  -1.12888  -1.12885  -1.12881  -1.12872
 Alpha  occ. eigenvalues --   -1.12858  -1.12829  -1.12504  -1.12495  -1.12451
 Alpha  occ. eigenvalues --   -0.18453  -0.13116  -0.12069  -0.11224
 Alpha virt. eigenvalues --   -0.05729  -0.05089  -0.04381  -0.03424  -0.03088
 Alpha virt. eigenvalues --   -0.02965  -0.01590  -0.00938  -0.00270  -0.00211
 Alpha virt. eigenvalues --   -0.00079   0.00376   0.00755   0.00867   0.00916

  Beta  occ. eigenvalues --  -38.44154 -38.44020 -38.43953 -38.43744 -38.43389
  Beta  occ. eigenvalues --  -38.43342 -38.42968  -2.19975  -2.19795  -2.19790
  Beta  occ. eigenvalues --   -2.19600  -2.19217  -2.19197  -2.18813  -1.13651
  Beta  occ. eigenvalues --   -1.13629  -1.13617  -1.13514  -1.13477  -1.13468
  Beta  occ. eigenvalues --   -1.13466  -1.13452  -1.13431  -1.13321  -1.13276
  Beta  occ. eigenvalues --   -1.13247  -1.12887  -1.12880  -1.12874  -1.12854
  Beta  occ. eigenvalues --   -1.12843  -1.12827  -1.12500  -1.12462  -1.12448
  Beta  occ. eigenvalues --   -0.17696  -0.12900  -0.11846
  Beta virt. eigenvalues --   -0.07281  -0.05653  -0.05114  -0.04283  -0.02648
  Beta virt. eigenvalues --   -0.02226  -0.01997  -0.01482  -0.00884  -0.00314
  Beta virt. eigenvalues --   -0.00254   0.00067   0.00401   0.00848   0.00903

 Mulliken charges and spin densities:
               1          2
     1  Na  -0.464553   0.700204
     2  Na   0.052934  -0.080677
     3  Na   0.099364  -0.026022
     4  Na   0.133005  -0.036026
     5  Na   0.165302  -0.055857
     6  Na  -0.207901   0.530517
     7  Na   0.221850  -0.032138
 Sum of Mulliken charges =  -0.00000   1.00000

 Dipole moment (field-independent basis, Debye):
    X=              0.1201    Y=              0.0655    Z=              0.0293  Tot=              0.1399
 Quadrupole moment (field-independent basis, Debye-Ang):
   XX=            -57.0213   YY=            -66.8683   ZZ=            -71.3428
   XY=              0.3507   XZ=             -0.4839   YZ=              0.3602

 Normal termination of Gaussian 16 at Thu Dec  7 03:29:27 2023.
