 Gaussian 16, Revision B.01,
 Gaussian 16:  ES64L-G16RevB.01 20-Dec-2017

 -------------------------
 #P B3LYP/6-311+g(d) force
 -------------------------

 -----
 DPGEN
 -----
 Symbolic Z-matrix:
 Charge =  0 Multiplicity = 2

                         Standard orientation:
 ---------------------------------------------------------------------
 Center     Atomic      Atomic             Coordinates (Angstroms)
 Number     Number       Type             X           Y           Z
 ---------------------------------------------------------------------
      1         11           0        0.603435    0.646479   -1.014048
      2         11           0        2.340146    3.319772    0.251018
      3         11           0        3.843036   -0.322693    0.732366
      4         11           0       -0.309713   -1.581294    1.454104
      5         11           0       -2.721856    0.329096   -1.259638
      6         11           0        1.724172   -2.723095   -0.925359
      7         11           0       -5.479220    0.331735    0.761556
 ---------------------------------------------------------------------

 SCF Done:  E(UB3LYP) =  -1136.11470513     A.U. after   21 cycles

 The electronic state is 2-A.
 Alpha  occ. eigenvalues --  -38.46018 -38.44553 -38.44352 -38.43997 -38.43591
 Alpha  occ. eigenvalues --  -38.43437 -38.43285  -2.21805  -2.20346  -2.20180
 Alpha  occ. eigenvalues --   -2.19797  -2.19395  -2.19209  -2.19203  -1.15495
 Alpha  occ. eigenvalues --   -1.15463  -1.15414  -1.14034  -1.13996  -1.13942
 Alpha  occ. eigenvalues --   -1.13864  -1.13827  -1.13816  -1.13435  -1.13433
 Alpha  occ. eigenvalues --   -1.13415  -1.13083  -1.13066  -1.13055  -1.12921
 Alpha  occ. eigenvalues --   -1.12884  -1.12878  -1.12861  -1.12842  -1.12791
 Alpha  occ. eigenvalues --   -0.17343  -0.13486  -0.11746  -0.10752
 Alpha virt. eigenvalues --   -0.07023  -0.05659  -0.04508  -0.03458  -0.02755
 Alpha virt. eigenvalues --   -0.02376  -0.02007  -0.01356  -0.01290  -0.00949
 Alpha virt. eigenvalues --   -0.00431  -0.00018   0.00245   0.00406   0.00560

  Beta  occ. eigenvalues --  -38.46014 -38.44494 -38.44348 -38.43896 -38.43593
  Beta  occ. eigenvalues --  -38.43443 -38.43239  -2.21799  -2.20236  -2.20176
  Beta  occ. eigenvalues --   -2.19609  -2.19406  -2.19214  -2.19129  -1.15491
  Beta  occ. eigenvalues --   -1.15452  -1.15413  -1.13959  -1.13927  -1.13866
  Beta  occ. eigenvalues --   -1.13860  -1.13822  -1.13796  -1.13306  -1.13305
  Beta  occ. eigenvalues --   -1.13294  -1.13089  -1.13071  -1.13020  -1.12890
  Beta  occ. eigenvalues --   -1.12886  -1.12861  -1.12844  -1.12806  -1.12731
  Beta  occ. eigenvalues --   -0.16840  -0.12611  -0.11685
  Beta virt. eigenvalues --   -0.07298  -0.06902  -0.05218  -0.04156  -0.03169
  Beta virt. eigenvalues --   -0.02488  -0.02267  -0.01477  -0.01194  -0.00950
  Beta virt. eigenvalues --   -0.00808  -0.00112   0.00162   0.00347   0.00519

 Mulliken charges and spin densities:
               1          2
     1  Na  -0.866975   0.102224
     2  Na   0.394897  -0.048984
     3  Na   0.249248   0.378459
     4  Na  -0.009620  -0.091043
     5  Na  -0.169095  -0.015374
     6  Na   0.377207   0.134068
     7  Na   0.024338   0.540648
 Sum of Mulliken charges =  -0.00000   1.00000

 Dipole moment (field-independent basis, Debye):
    X=              0.9382    Y=             -1.3837    Z=              0.8391  Tot=              1.8705
 Quadrupole moment (field-independent basis, Debye-Ang):
   XX=            -73.6747   YY=            -69.3201   ZZ=            -61.3072
   XY=             -0.7734   XZ=             -2.2900   YZ=              2.1389

 Normal termination of Gaussian 16 at Wed Nov 29 03:50:19 2023.
