 Gaussian 16, Revision B.01,
 Gaussian 16:  ES64L-G16RevB.01 20-Dec-2017

 -------------------------
 #P B3LYP/6-311+g(d) force
 -------------------------

 -----
 DPGEN
 -----
 Symbolic Z-matrix:
 Charge =  0 Multiplicity = 2

                         Standard orientation:
 ---------------------------------------------------------------------
 Center     Atomic      Atomic             Coordinates (Angstroms)
 Number     Number       Type             X           Y           Z
 ---------------------------------------------------------------------
      1         11           0       -1.520477   -1.639242   -1.309125
      2         11           0        3.741023    0.790305    0.941212
      3         11           0        0.638734    1.663555   -1.463458
      4         11           0       -2.960372   -0.683855    1.413726
      5         11           0        1.965268   -2.107129   -0.838935
      6         11           0       -2.046000    2.134053   -0.461696
      7         11           0        0.181824   -0.157687    1.718277
 ---------------------------------------------------------------------

 SCF Done:  E(UB3LYP) =  -1136.12543043     A.U. after   24 cycles

 The electronic state is 2-A.
 Alpha  occ. eigenvalues --  -38.45013 -38.44419 -38.44057 -38.43991 -38.43919
 Alpha  occ. eigenvalues --  -38.43017 -38.42969  -2.20781  -2.20297  -2.19879
 Alpha  occ. eigenvalues --   -2.19860  -2.19781  -2.18904  -2.18853  -1.14451
 Alpha  occ. eigenvalues --   -1.14430  -1.14399  -1.13985  -1.13948  -1.13940
 Alpha  occ. eigenvalues --   -1.13565  -1.13546  -1.13541  -1.13529  -1.13501
 Alpha  occ. eigenvalues --   -1.13481  -1.13445  -1.13411  -1.13400  -1.12766
 Alpha  occ. eigenvalues --   -1.12554  -1.12545  -1.12491  -1.12475  -1.12411
 Alpha  occ. eigenvalues --   -0.18294  -0.13619  -0.11584  -0.11398
 Alpha virt. eigenvalues --   -0.06368  -0.05211  -0.04483  -0.03397  -0.02905
 Alpha virt. eigenvalues --   -0.02528  -0.02239  -0.01028  -0.00682  -0.00158
 Alpha virt. eigenvalues --    0.00171   0.00276   0.00428   0.00598   0.00763

  Beta  occ. eigenvalues --  -38.44982 -38.44372 -38.44029 -38.43960 -38.43881
  Beta  occ. eigenvalues --  -38.42994 -38.42967  -2.20722  -2.20213  -2.19822
  Beta  occ. eigenvalues --   -2.19812  -2.19714  -2.18871  -2.18844  -1.14405
  Beta  occ. eigenvalues --   -1.14392  -1.14362  -1.13923  -1.13889  -1.13873
  Beta  occ. eigenvalues --   -1.13528  -1.13503  -1.13495  -1.13492  -1.13464
  Beta  occ. eigenvalues --   -1.13437  -1.13397  -1.13362  -1.13347  -1.12748
  Beta  occ. eigenvalues --   -1.12529  -1.12514  -1.12475  -1.12473  -1.12392
  Beta  occ. eigenvalues --   -0.17621  -0.13324  -0.11143
  Beta virt. eigenvalues --   -0.07788  -0.06105  -0.05043  -0.04018  -0.03162
  Beta virt. eigenvalues --   -0.02332  -0.02004  -0.01768  -0.00831  -0.00447
  Beta virt. eigenvalues --   -0.00070   0.00239   0.00306   0.00505   0.00713

 Mulliken charges and spin densities:
               1          2
     1  Na  -0.377121   0.146549
     2  Na   0.551344   0.043475
     3  Na  -0.218127   0.179100
     4  Na   1.276184   0.205475
     5  Na  -0.024932   0.100706
     6  Na  -0.181481  -0.023398
     7  Na  -1.025867   0.348093
 Sum of Mulliken charges =  -0.00000   1.00000

 Dipole moment (field-independent basis, Debye):
    X=              0.6913    Y=             -0.2864    Z=              0.3811  Tot=              0.8397
 Quadrupole moment (field-independent basis, Debye-Ang):
   XX=            -50.1600   YY=            -75.9655   ZZ=            -68.6889
   XY=              1.0521   XZ=             -0.1398   YZ=              3.9885

 Normal termination of Gaussian 16 at Tue Dec  5 19:41:36 2023.
