 Gaussian 16, Revision B.01,
 Gaussian 16:  ES64L-G16RevB.01 20-Dec-2017

 -------------------------
 #P B3LYP/6-311+g(d) force
 -------------------------

 -----
 DPGEN
 -----
 Symbolic Z-matrix:
 Charge =  0 Multiplicity = 2

                         Standard orientation:
 ---------------------------------------------------------------------
 Center     Atomic      Atomic             Coordinates (Angstroms)
 Number     Number       Type             X           Y           Z
 ---------------------------------------------------------------------
      1         11           0        0.982140   -1.886627   -0.693501
      2         11           0        2.094322    1.186696   -0.120248
      3         11           0       -1.556572    0.938015   -1.008988
      4         11           0       -2.708719   -2.379558   -0.711054
      5         11           0       -2.706521   -0.516346    1.877752
      6         11           0       -0.094586    4.313820    0.024246
      7         11           0        3.989936   -1.655999    0.631793
 ---------------------------------------------------------------------

 SCF Done:  E(UB3LYP) =  -1136.12598936     A.U. after   20 cycles

 The electronic state is 2-A.
 Alpha  occ. eigenvalues --  -38.44333 -38.44205 -38.44177 -38.44102 -38.43810
 Alpha  occ. eigenvalues --  -38.43702 -38.43596  -2.20176  -2.20032  -2.20019
 Alpha  occ. eigenvalues --   -2.19849  -2.19637  -2.19566  -2.19472  -1.13860
 Alpha  occ. eigenvalues --   -1.13843  -1.13817  -1.13767  -1.13736  -1.13733
 Alpha  occ. eigenvalues --   -1.13716  -1.13606  -1.13595  -1.13526  -1.13521
 Alpha  occ. eigenvalues --   -1.13471  -1.13308  -1.13289  -1.13264  -1.13208
 Alpha  occ. eigenvalues --   -1.13198  -1.13181  -1.13178  -1.13151  -1.13048
 Alpha  occ. eigenvalues --   -0.17353  -0.13907  -0.12380  -0.10005
 Alpha virt. eigenvalues --   -0.06235  -0.05529  -0.05204  -0.03508  -0.02433
 Alpha virt. eigenvalues --   -0.02108  -0.02032  -0.01603  -0.01129  -0.00636
 Alpha virt. eigenvalues --   -0.00039   0.00119   0.00325   0.00614   0.00633

  Beta  occ. eigenvalues --  -38.44323 -38.44202 -38.44160 -38.44109 -38.43782
  Beta  occ. eigenvalues --  -38.43613 -38.43563  -2.20164  -2.20027  -2.19991
  Beta  occ. eigenvalues --   -2.19862  -2.19583  -2.19414  -2.19398  -1.13852
  Beta  occ. eigenvalues --   -1.13836  -1.13770  -1.13757  -1.13729  -1.13717
  Beta  occ. eigenvalues --   -1.13664  -1.13598  -1.13583  -1.13534  -1.13529
  Beta  occ. eigenvalues --   -1.13478  -1.13271  -1.13251  -1.13230  -1.13140
  Beta  occ. eigenvalues --   -1.13113  -1.13091  -1.13082  -1.13075  -1.12985
  Beta  occ. eigenvalues --   -0.16749  -0.13506  -0.12292
  Beta virt. eigenvalues --   -0.06369  -0.05973  -0.05316  -0.05007  -0.03025
  Beta virt. eigenvalues --   -0.02230  -0.01964  -0.01741  -0.01113  -0.01042
  Beta virt. eigenvalues --   -0.00343   0.00211   0.00253   0.00571   0.00662

 Mulliken charges and spin densities:
               1          2
     1  Na  -0.806448   0.020700
     2  Na  -0.594356   0.001367
     3  Na  -0.704155   0.388703
     4  Na   0.881783   0.149585
     5  Na  -0.168736   0.334092
     6  Na   0.326273  -0.089082
     7  Na   1.065638   0.194636
 Sum of Mulliken charges =  -0.00000   1.00000

 Dipole moment (field-independent basis, Debye):
    X=              0.3006    Y=             -0.2478    Z=             -0.1912  Tot=              0.4340
 Quadrupole moment (field-independent basis, Debye-Ang):
   XX=            -64.1427   YY=            -57.6663   ZZ=            -73.2240
   XY=              0.8862   XZ=              6.0469   YZ=              1.2747

 Normal termination of Gaussian 16 at Wed Nov 29 02:46:52 2023.
