 Gaussian 16, Revision B.01,
 Gaussian 16:  ES64L-G16RevB.01 20-Dec-2017

 -------------------------
 #P B3LYP/6-311+g(d) force
 -------------------------

 -----
 DPGEN
 -----
 Symbolic Z-matrix:
 Charge =  0 Multiplicity = 2

                         Standard orientation:
 ---------------------------------------------------------------------
 Center     Atomic      Atomic             Coordinates (Angstroms)
 Number     Number       Type             X           Y           Z
 ---------------------------------------------------------------------
      1         11           0        3.756563    0.095596   -0.099368
      2         11           0        1.369982   -2.633141   -0.145573
      3         11           0       -0.343116    0.170989   -1.547515
      4         11           0       -3.070231    1.416681    0.075396
      5         11           0       -2.675825   -1.822474   -0.182682
      6         11           0       -0.025269   -0.040502    2.065164
      7         11           0        0.987896    2.812851   -0.165423
 ---------------------------------------------------------------------

 SCF Done:  E(UB3LYP) =  -1136.12830078     A.U. after   22 cycles

 The electronic state is 2-A.
 Alpha  occ. eigenvalues --  -38.45445 -38.44690 -38.44061 -38.43463 -38.43447
 Alpha  occ. eigenvalues --  -38.43299 -38.43200  -2.21185  -2.20508  -2.19896
 Alpha  occ. eigenvalues --   -2.19403  -2.19305  -2.19101  -2.19009  -1.14866
 Alpha  occ. eigenvalues --   -1.14835  -1.14821  -1.14184  -1.14173  -1.14146
 Alpha  occ. eigenvalues --   -1.13577  -1.13555  -1.13531  -1.13105  -1.13055
 Alpha  occ. eigenvalues --   -1.13029  -1.12973  -1.12924  -1.12922  -1.12784
 Alpha  occ. eigenvalues --   -1.12772  -1.12730  -1.12701  -1.12671  -1.12630
 Alpha  occ. eigenvalues --   -0.18076  -0.13334  -0.11758  -0.10299
 Alpha virt. eigenvalues --   -0.06815  -0.05459  -0.04284  -0.03228  -0.02443
 Alpha virt. eigenvalues --   -0.02419  -0.02311  -0.01420  -0.00731  -0.00433
 Alpha virt. eigenvalues --   -0.00104   0.00223   0.00639   0.00682   0.00768

  Beta  occ. eigenvalues --  -38.45445 -38.44686 -38.44054 -38.43412 -38.43342
  Beta  occ. eigenvalues --  -38.43295 -38.43196  -2.21187  -2.20504  -2.19887
  Beta  occ. eigenvalues --   -2.19312  -2.19111  -2.19098  -2.19006  -1.14858
  Beta  occ. eigenvalues --   -1.14840  -1.14823  -1.14183  -1.14158  -1.14136
  Beta  occ. eigenvalues --   -1.13566  -1.13540  -1.13517  -1.13034  -1.12989
  Beta  occ. eigenvalues --   -1.12963  -1.12844  -1.12792  -1.12788  -1.12775
  Beta  occ. eigenvalues --   -1.12749  -1.12731  -1.12693  -1.12653  -1.12630
  Beta  occ. eigenvalues --   -0.17369  -0.13162  -0.11542
  Beta virt. eigenvalues --   -0.06734  -0.06393  -0.05468  -0.04255  -0.02533
  Beta virt. eigenvalues --   -0.02277  -0.01739  -0.01369  -0.01288  -0.00744
  Beta virt. eigenvalues --   -0.00463   0.00077   0.00279   0.00704   0.00778

 Mulliken charges and spin densities:
               1          2
     1  Na   0.003904  -0.038755
     2  Na  -0.032683  -0.087039
     3  Na  -0.061646   0.447973
     4  Na   0.274474  -0.005510
     5  Na   0.216107   0.000894
     6  Na  -0.381689   0.794484
     7  Na  -0.018468  -0.112048
 Sum of Mulliken charges =  -0.00000   1.00000

 Dipole moment (field-independent basis, Debye):
    X=              0.0873    Y=              0.1293    Z=              0.1192  Tot=              0.1964
 Quadrupole moment (field-independent basis, Debye-Ang):
   XX=            -47.4383   YY=            -66.8008   ZZ=            -77.1608
   XY=             -0.0732   XZ=             -0.5596   YZ=              0.7542

 Normal termination of Gaussian 16 at Thu Dec  7 21:43:50 2023.
