 Gaussian 16, Revision B.01,
 Gaussian 16:  ES64L-G16RevB.01 20-Dec-2017

 -------------------------
 #P B3LYP/6-311+g(d) force
 -------------------------

 -----
 DPGEN
 -----
 Symbolic Z-matrix:
 Charge =  0 Multiplicity = 2

                         Standard orientation:
 ---------------------------------------------------------------------
 Center     Atomic      Atomic             Coordinates (Angstroms)
 Number     Number       Type             X           Y           Z
 ---------------------------------------------------------------------
      1         11           0        0.369955   -2.669734    1.701690
      2         11           0        2.070346   -1.697161   -0.947173
      3         11           0        3.186810    1.052974    0.245263
      4         11           0       -2.759624   -1.783050   -1.371600
      5         11           0       -0.597190    0.214238   -0.036560
      6         11           0        0.734517    2.948352   -0.542879
      7         11           0       -3.004814    1.934382    0.951259
 ---------------------------------------------------------------------

 SCF Done:  E(UB3LYP) =  -1136.11824021     A.U. after   21 cycles

 The electronic state is 2-A.
 Alpha  occ. eigenvalues --  -38.44455 -38.44400 -38.44156 -38.44149 -38.43862
 Alpha  occ. eigenvalues --  -38.43809 -38.42677  -2.20313  -2.20197  -2.20001
 Alpha  occ. eigenvalues --   -2.19997  -2.19689  -2.19625  -2.18714  -1.14006
 Alpha  occ. eigenvalues --   -1.13983  -1.13958  -1.13879  -1.13844  -1.13820
 Alpha  occ. eigenvalues --   -1.13743  -1.13701  -1.13660  -1.13645  -1.13641
 Alpha  occ. eigenvalues --   -1.13561  -1.13350  -1.13324  -1.13313  -1.13285
 Alpha  occ. eigenvalues --   -1.13254  -1.13240  -1.12425  -1.12380  -1.12357
 Alpha  occ. eigenvalues --   -0.17719  -0.13221  -0.12823  -0.09877
 Alpha virt. eigenvalues --   -0.06294  -0.05747  -0.04805  -0.03022  -0.02860
 Alpha virt. eigenvalues --   -0.01988  -0.01670  -0.01378  -0.00894  -0.00686
 Alpha virt. eigenvalues --    0.00002   0.00215   0.00389   0.00616   0.00669

  Beta  occ. eigenvalues --  -38.44459 -38.44369 -38.44161 -38.44148 -38.43804
  Beta  occ. eigenvalues --  -38.43716 -38.42670  -2.20324  -2.20141  -2.20010
  Beta  occ. eigenvalues --   -2.19997  -2.19582  -2.19453  -2.18706  -1.14015
  Beta  occ. eigenvalues --   -1.13991  -1.13944  -1.13842  -1.13804  -1.13776
  Beta  occ. eigenvalues --   -1.13750  -1.13710  -1.13654  -1.13644  -1.13638
  Beta  occ. eigenvalues --   -1.13559  -1.13275  -1.13254  -1.13238  -1.13167
  Beta  occ. eigenvalues --   -1.13137  -1.13124  -1.12400  -1.12360  -1.12351
  Beta  occ. eigenvalues --   -0.17372  -0.12788  -0.12422
  Beta virt. eigenvalues --   -0.06411  -0.06112  -0.05514  -0.04608  -0.02558
  Beta virt. eigenvalues --   -0.02453  -0.01772  -0.01437  -0.00903  -0.00719
  Beta virt. eigenvalues --   -0.00518   0.00205   0.00349   0.00531   0.00682

 Mulliken charges and spin densities:
               1          2
     1  Na   0.264868   0.178911
     2  Na   1.712497   0.119264
     3  Na   0.046758   0.052801
     4  Na   0.672704   0.360856
     5  Na  -3.537767   0.426701
     6  Na   0.233555  -0.151113
     7  Na   0.607385   0.012580
 Sum of Mulliken charges =  -0.00000   1.00000

 Dipole moment (field-independent basis, Debye):
    X=              0.5352    Y=              0.3338    Z=              0.3486  Tot=              0.7207
 Quadrupole moment (field-independent basis, Debye-Ang):
   XX=            -58.9218   YY=            -64.5085   ZZ=            -71.1134
   XY=             -1.6378   XZ=             -2.9928   YZ=              0.0529

 Normal termination of Gaussian 16 at Tue Dec  5 23:17:24 2023.
