 Gaussian 16, Revision B.01,
 Gaussian 16:  ES64L-G16RevB.01 20-Dec-2017

 -------------------------
 #P B3LYP/6-311+g(d) force
 -------------------------

 -----
 DPGEN
 -----
 Symbolic Z-matrix:
 Charge =  0 Multiplicity = 2

                         Standard orientation:
 ---------------------------------------------------------------------
 Center     Atomic      Atomic             Coordinates (Angstroms)
 Number     Number       Type             X           Y           Z
 ---------------------------------------------------------------------
      1         11           0        0.086165   -0.905922    2.417297
      2         11           0       -2.710982   -1.035299    1.385611
      3         11           0       -0.410678   -1.743073   -1.767493
      4         11           0        2.735021   -1.782580   -1.039785
      5         11           0        2.904581    1.809235    0.582126
      6         11           0        0.011550    2.185969   -0.057725
      7         11           0       -2.615657    1.471670   -1.520030
 ---------------------------------------------------------------------

 SCF Done:  E(UB3LYP) =  -1136.11764942     A.U. after   22 cycles

 The electronic state is 2-A.
 Alpha  occ. eigenvalues --  -38.45215 -38.44532 -38.44500 -38.44171 -38.43944
 Alpha  occ. eigenvalues --  -38.43767 -38.42912  -2.21056  -2.20349  -2.20339
 Alpha  occ. eigenvalues --   -2.19962  -2.19779  -2.19590  -2.18799  -1.14777
 Alpha  occ. eigenvalues --   -1.14680  -1.14661  -1.14042  -1.14035  -1.13994
 Alpha  occ. eigenvalues --   -1.13980  -1.13969  -1.13944  -1.13642  -1.13610
 Alpha  occ. eigenvalues --   -1.13586  -1.13477  -1.13428  -1.13392  -1.13319
 Alpha  occ. eigenvalues --   -1.13240  -1.13206  -1.12476  -1.12455  -1.12446
 Alpha  occ. eigenvalues --   -0.17658  -0.13029  -0.12374  -0.12015
 Alpha virt. eigenvalues --   -0.05566  -0.05438  -0.04587  -0.03860  -0.03315
 Alpha virt. eigenvalues --   -0.02971  -0.01558  -0.00995  -0.00668  -0.00061
 Alpha virt. eigenvalues --    0.00087   0.00203   0.00373   0.00487   0.00599

  Beta  occ. eigenvalues --  -38.45132 -38.44474 -38.44468 -38.44146 -38.43913
  Beta  occ. eigenvalues --  -38.43759 -38.42912  -2.20905  -2.20286  -2.20243
  Beta  occ. eigenvalues --   -2.19918  -2.19722  -2.19576  -2.18802  -1.14667
  Beta  occ. eigenvalues --   -1.14577  -1.14552  -1.13984  -1.13962  -1.13947
  Beta  occ. eigenvalues --   -1.13922  -1.13902  -1.13891  -1.13600  -1.13585
  Beta  occ. eigenvalues --   -1.13553  -1.13441  -1.13384  -1.13357  -1.13309
  Beta  occ. eigenvalues --   -1.13224  -1.13200  -1.12462  -1.12454  -1.12451
  Beta  occ. eigenvalues --   -0.16940  -0.12714  -0.11570
  Beta virt. eigenvalues --   -0.08583  -0.05437  -0.05232  -0.04005  -0.03444
  Beta virt. eigenvalues --   -0.02800  -0.02401  -0.01469  -0.00836  -0.00397
  Beta virt. eigenvalues --    0.00045   0.00192   0.00306   0.00416   0.00626

 Mulliken charges and spin densities:
               1          2
     1  Na  -0.119279   0.399656
     2  Na   0.179479   0.048941
     3  Na  -0.277374   0.317524
     4  Na   0.007194   0.080618
     5  Na   0.547507  -0.084352
     6  Na  -1.126231   0.042844
     7  Na   0.788703   0.194769
 Sum of Mulliken charges =  -0.00000   1.00000

 Dipole moment (field-independent basis, Debye):
    X=             -0.2341    Y=             -0.7100    Z=              0.2284  Tot=              0.7817
 Quadrupole moment (field-independent basis, Debye-Ang):
   XX=            -56.1629   YY=            -76.2815   ZZ=            -66.0447
   XY=              0.0859   XZ=              2.6660   YZ=              0.1972

 Normal termination of Gaussian 16 at Mon Dec  4 00:08:16 2023.
