 Gaussian 16, Revision B.01,
 Gaussian 16:  ES64L-G16RevB.01 20-Dec-2017

 -------------------------
 #P B3LYP/6-311+g(d) force
 -------------------------

 -----
 DPGEN
 -----
 Symbolic Z-matrix:
 Charge =  0 Multiplicity = 2

                         Standard orientation:
 ---------------------------------------------------------------------
 Center     Atomic      Atomic             Coordinates (Angstroms)
 Number     Number       Type             X           Y           Z
 ---------------------------------------------------------------------
      1         11           0        1.422490    2.473417   -0.366836
      2         11           0        0.003783    0.442051   -1.724187
      3         11           0       -2.354088    2.006339    0.517995
      4         11           0       -2.680805   -1.481323   -0.297384
      5         11           0        3.109169   -0.430730    0.458740
      6         11           0        0.583911   -2.518235   -0.533463
      7         11           0       -0.084459   -0.491519    1.945135
 ---------------------------------------------------------------------

 SCF Done:  E(UB3LYP) =  -1136.13484936     A.U. after   19 cycles

 The electronic state is 2-A.
 Alpha  occ. eigenvalues --  -38.43918 -38.43829 -38.43807 -38.43732 -38.43473
 Alpha  occ. eigenvalues --  -38.43426 -38.43060  -2.19762  -2.19673  -2.19644
 Alpha  occ. eigenvalues --   -2.19618  -2.19435  -2.19354  -2.18979  -1.13439
 Alpha  occ. eigenvalues --   -1.13422  -1.13407  -1.13359  -1.13353  -1.13342
 Alpha  occ. eigenvalues --   -1.13321  -1.13313  -1.13302  -1.13280  -1.13267
 Alpha  occ. eigenvalues --   -1.13249  -1.13244  -1.13093  -1.13032  -1.12982
 Alpha  occ. eigenvalues --   -1.12942  -1.12914  -1.12667  -1.12641  -1.12590
 Alpha  occ. eigenvalues --   -0.18839  -0.13064  -0.12401  -0.11073
 Alpha virt. eigenvalues --   -0.05506  -0.05233  -0.04307  -0.03349  -0.03094
 Alpha virt. eigenvalues --   -0.02643  -0.01541  -0.01030  -0.00267  -0.00022
 Alpha virt. eigenvalues --    0.00028   0.00356   0.00792   0.00889   0.00925

  Beta  occ. eigenvalues --  -38.43909 -38.43823 -38.43796 -38.43656 -38.43464
  Beta  occ. eigenvalues --  -38.43355 -38.43044  -2.19748  -2.19666  -2.19600
  Beta  occ. eigenvalues --   -2.19503  -2.19354  -2.19293  -2.18953  -1.13419
  Beta  occ. eigenvalues --   -1.13415  -1.13387  -1.13344  -1.13332  -1.13306
  Beta  occ. eigenvalues --   -1.13291  -1.13270  -1.13260  -1.13235  -1.13230
  Beta  occ. eigenvalues --   -1.13185  -1.13144  -1.13014  -1.12968  -1.12953
  Beta  occ. eigenvalues --   -1.12912  -1.12854  -1.12649  -1.12603  -1.12564
  Beta  occ. eigenvalues --   -0.18110  -0.12809  -0.12136
  Beta virt. eigenvalues --   -0.07173  -0.05419  -0.05206  -0.04249  -0.02613
  Beta virt. eigenvalues --   -0.02347  -0.01609  -0.01426  -0.00949  -0.00245
  Beta virt. eigenvalues --   -0.00051   0.00123   0.00384   0.00864   0.00888

 Mulliken charges and spin densities:
               1          2
     1  Na   0.190495  -0.031481
     2  Na  -0.101785   0.349820
     3  Na  -0.075964   0.016247
     4  Na   0.088260  -0.090515
     5  Na   0.079289   0.052463
     6  Na   0.255247   0.057715
     7  Na  -0.435542   0.645751
 Sum of Mulliken charges =  -0.00000   1.00000

 Dipole moment (field-independent basis, Debye):
    X=             -0.1597    Y=             -0.0288    Z=              0.3005  Tot=              0.3415
 Quadrupole moment (field-independent basis, Debye-Ang):
   XX=            -56.0169   YY=            -65.4904   ZZ=            -72.4612
   XY=             -0.0642   XZ=              0.6483   YZ=              2.1758

 Normal termination of Gaussian 16 at Tue Dec  5 22:19:41 2023.
