 Gaussian 16, Revision B.01,
 Gaussian 16:  ES64L-G16RevB.01 20-Dec-2017

 -------------------------
 #P B3LYP/6-311+g(d) force
 -------------------------

 -----
 DPGEN
 -----
 Symbolic Z-matrix:
 Charge =  0 Multiplicity = 2

                         Standard orientation:
 ---------------------------------------------------------------------
 Center     Atomic      Atomic             Coordinates (Angstroms)
 Number     Number       Type             X           Y           Z
 ---------------------------------------------------------------------
      1         11           0        1.711649   -0.969939   -1.614436
      2         11           0       -3.712168    1.016210    0.326367
      3         11           0        2.138023   -1.895678    1.046883
      4         11           0        2.477455    2.619050    0.142262
      5         11           0       -0.230555    0.031101    1.949997
      6         11           0       -1.785169   -2.128530   -0.610934
      7         11           0       -0.599234    1.327786   -1.240139
 ---------------------------------------------------------------------

 SCF Done:  E(UB3LYP) =  -1136.12368137     A.U. after   21 cycles

 The electronic state is 2-A.
 Alpha  occ. eigenvalues --  -38.44676 -38.44326 -38.44218 -38.43898 -38.43884
 Alpha  occ. eigenvalues --  -38.43558 -38.43201  -2.20452  -2.20121  -2.20102
 Alpha  occ. eigenvalues --   -2.19827  -2.19771  -2.19315  -2.19105  -1.14127
 Alpha  occ. eigenvalues --   -1.14114  -1.14079  -1.13810  -1.13807  -1.13783
 Alpha  occ. eigenvalues --   -1.13755  -1.13728  -1.13724  -1.13712  -1.13501
 Alpha  occ. eigenvalues --   -1.13423  -1.13402  -1.13354  -1.13312  -1.12987
 Alpha  occ. eigenvalues --   -1.12983  -1.12953  -1.12815  -1.12785  -1.12686
 Alpha  occ. eigenvalues --   -0.18317  -0.13156  -0.11509  -0.11306
 Alpha virt. eigenvalues --   -0.06242  -0.05505  -0.04057  -0.03207  -0.02949
 Alpha virt. eigenvalues --   -0.02687  -0.02009  -0.01468  -0.00497  -0.00056
 Alpha virt. eigenvalues --    0.00139   0.00268   0.00397   0.00660   0.00761

  Beta  occ. eigenvalues --  -38.44674 -38.44308 -38.44136 -38.43864 -38.43851
  Beta  occ. eigenvalues --  -38.43564 -38.43170  -2.20450  -2.20089  -2.19952
  Beta  occ. eigenvalues --   -2.19757  -2.19723  -2.19326  -2.19050  -1.14123
  Beta  occ. eigenvalues --   -1.14109  -1.14079  -1.13784  -1.13764  -1.13707
  Beta  occ. eigenvalues --   -1.13696  -1.13677  -1.13636  -1.13608  -1.13441
  Beta  occ. eigenvalues --   -1.13371  -1.13360  -1.13314  -1.13269  -1.12994
  Beta  occ. eigenvalues --   -1.12985  -1.12961  -1.12783  -1.12716  -1.12651
  Beta  occ. eigenvalues --   -0.17517  -0.13011  -0.11318
  Beta virt. eigenvalues --   -0.07290  -0.06156  -0.05415  -0.03545  -0.03012
  Beta virt. eigenvalues --   -0.02147  -0.01918  -0.01875  -0.01301  -0.00209
  Beta virt. eigenvalues --   -0.00064   0.00148   0.00305   0.00519   0.00702

 Mulliken charges and spin densities:
               1          2
     1  Na   0.418235   0.323822
     2  Na   0.279426  -0.047201
     3  Na   0.074213  -0.094900
     4  Na  -0.126988  -0.128078
     5  Na  -0.124033   0.675088
     6  Na  -0.100804   0.037230
     7  Na  -0.420048   0.234040
 Sum of Mulliken charges =  -0.00000   1.00000

 Dipole moment (field-independent basis, Debye):
    X=             -0.9203    Y=             -0.1730    Z=              0.2569  Tot=              0.9710
 Quadrupole moment (field-independent basis, Debye-Ang):
   XX=            -52.9455   YY=            -70.0161   ZZ=            -70.2744
   XY=             -0.9441   XZ=              0.1790   YZ=              2.0881

 Normal termination of Gaussian 16 at Thu Dec  7 02:21:05 2023.
