 Gaussian 16, Revision B.01,
 Gaussian 16:  ES64L-G16RevB.01 20-Dec-2017

 -------------------------
 #P B3LYP/6-311+g(d) force
 -------------------------

 -----
 DPGEN
 -----
 Symbolic Z-matrix:
 Charge =  0 Multiplicity = 2

                         Standard orientation:
 ---------------------------------------------------------------------
 Center     Atomic      Atomic             Coordinates (Angstroms)
 Number     Number       Type             X           Y           Z
 ---------------------------------------------------------------------
      1         11           0       -1.818771    1.950684   -0.206055
      2         11           0        1.288020   -2.067319   -1.227367
      3         11           0        4.381822   -0.051499    0.793617
      4         11           0       -1.919532   -1.484234   -0.368115
      5         11           0       -4.860687   -0.004745    0.497448
      6         11           0        0.971760   -0.325211    1.581978
      7         11           0        1.957389    1.982324   -1.071506
 ---------------------------------------------------------------------

 SCF Done:  E(UB3LYP) =  -1136.12068002     A.U. after   24 cycles

 The electronic state is 2-A.
 Alpha  occ. eigenvalues --  -38.45604 -38.44142 -38.44131 -38.44094 -38.43841
 Alpha  occ. eigenvalues --  -38.43355 -38.43026  -2.21451  -2.19961  -2.19927
 Alpha  occ. eigenvalues --   -2.19910  -2.19647  -2.19189  -2.18909  -1.15132
 Alpha  occ. eigenvalues --   -1.15127  -1.15063  -1.13627  -1.13613  -1.13596
 Alpha  occ. eigenvalues --   -1.13593  -1.13580  -1.13568  -1.13559  -1.13538
 Alpha  occ. eigenvalues --   -1.13518  -1.13348  -1.13341  -1.13242  -1.12869
 Alpha  occ. eigenvalues --   -1.12851  -1.12829  -1.12614  -1.12607  -1.12498
 Alpha  occ. eigenvalues --   -0.17638  -0.14271  -0.11239  -0.10863
 Alpha virt. eigenvalues --   -0.07079  -0.05107  -0.04812  -0.03192  -0.03114
 Alpha virt. eigenvalues --   -0.02234  -0.01791  -0.01561  -0.01371  -0.00689
 Alpha virt. eigenvalues --   -0.00267   0.00142   0.00305   0.00592   0.00701

  Beta  occ. eigenvalues --  -38.45592 -38.44107 -38.44070 -38.44027 -38.43821
  Beta  occ. eigenvalues --  -38.43362 -38.43021  -2.21433  -2.19885  -2.19826
  Beta  occ. eigenvalues --   -2.19784  -2.19615  -2.19204  -2.18903  -1.15123
  Beta  occ. eigenvalues --   -1.15089  -1.15052  -1.13589  -1.13565  -1.13532
  Beta  occ. eigenvalues --   -1.13507  -1.13501  -1.13478  -1.13473  -1.13472
  Beta  occ. eigenvalues --   -1.13440  -1.13331  -1.13320  -1.13190  -1.12872
  Beta  occ. eigenvalues --   -1.12862  -1.12837  -1.12611  -1.12598  -1.12481
  Beta  occ. eigenvalues --   -0.17095  -0.13661  -0.10866
  Beta virt. eigenvalues --   -0.07438  -0.06921  -0.04909  -0.04177  -0.03000
  Beta virt. eigenvalues --   -0.02873  -0.01982  -0.01326  -0.01148  -0.01114
  Beta virt. eigenvalues --   -0.00343  -0.00181   0.00199   0.00398   0.00707

 Mulliken charges and spin densities:
               1          2
     1  Na  -0.146381   0.129779
     2  Na   0.030252   0.066548
     3  Na   0.401517   0.419108
     4  Na  -0.404049   0.081328
     5  Na   0.455982   0.281776
     6  Na  -0.163518  -0.013074
     7  Na  -0.173802   0.034535
 Sum of Mulliken charges =  -0.00000   1.00000

 Dipole moment (field-independent basis, Debye):
    X=              0.4270    Y=             -0.1651    Z=              0.2218  Tot=              0.5086
 Quadrupole moment (field-independent basis, Debye-Ang):
   XX=            -60.9503   YY=            -78.2047   ZZ=            -62.4863
   XY=             -1.8651   XZ=             -3.8197   YZ=             -0.4055

 Normal termination of Gaussian 16 at Sun Dec  3 16:34:02 2023.
