 Gaussian 16, Revision B.01,
 Gaussian 16:  ES64L-G16RevB.01 20-Dec-2017

 -------------------------
 #P B3LYP/6-311+g(d) force
 -------------------------

 -----
 DPGEN
 -----
 Symbolic Z-matrix:
 Charge =  0 Multiplicity = 2

                         Standard orientation:
 ---------------------------------------------------------------------
 Center     Atomic      Atomic             Coordinates (Angstroms)
 Number     Number       Type             X           Y           Z
 ---------------------------------------------------------------------
      1         11           0        0.460105    2.480259    0.764541
      2         11           0        1.375153    0.678984   -2.179697
      3         11           0       -3.800626    0.066940   -0.494364
      4         11           0       -0.946073   -0.034899   -0.440460
      5         11           0       -0.217274   -0.721720    2.383403
      6         11           0        0.748344   -2.370171   -0.580537
      7         11           0        2.380372   -0.099394    0.547116
 ---------------------------------------------------------------------

 SCF Done:  E(UB3LYP) =  -1136.10697575     A.U. after   26 cycles

 The electronic state is 2-A.
 Alpha  occ. eigenvalues --  -38.44560 -38.44451 -38.44174 -38.43664 -38.43284
 Alpha  occ. eigenvalues --  -38.43069 -38.42509  -2.20490  -2.20261  -2.20141
 Alpha  occ. eigenvalues --   -2.19726  -2.19195  -2.19051  -2.18758  -1.14219
 Alpha  occ. eigenvalues --   -1.14122  -1.14070  -1.14008  -1.13887  -1.13881
 Alpha  occ. eigenvalues --   -1.13878  -1.13830  -1.13701  -1.13422  -1.13416
 Alpha  occ. eigenvalues --   -1.13327  -1.12915  -1.12862  -1.12840  -1.12794
 Alpha  occ. eigenvalues --   -1.12680  -1.12638  -1.12458  -1.12395  -1.12314
 Alpha  occ. eigenvalues --   -0.19930  -0.12904  -0.12564  -0.11629
 Alpha virt. eigenvalues --   -0.05893  -0.04351  -0.03931  -0.03245  -0.03076
 Alpha virt. eigenvalues --   -0.02765  -0.01522  -0.00799  -0.00507   0.00251
 Alpha virt. eigenvalues --    0.00386   0.00549   0.00571   0.00868   0.00983

  Beta  occ. eigenvalues --  -38.44486 -38.44444 -38.44116 -38.43644 -38.43251
  Beta  occ. eigenvalues --  -38.43048 -38.42479  -2.20356  -2.20247  -2.20038
  Beta  occ. eigenvalues --   -2.19698  -2.19139  -2.19015  -2.18712  -1.14129
  Beta  occ. eigenvalues --   -1.14016  -1.13995  -1.13974  -1.13874  -1.13870
  Beta  occ. eigenvalues --   -1.13813  -1.13759  -1.13620  -1.13407  -1.13347
  Beta  occ. eigenvalues --   -1.13307  -1.12877  -1.12833  -1.12791  -1.12751
  Beta  occ. eigenvalues --   -1.12661  -1.12587  -1.12374  -1.12361  -1.12290
  Beta  occ. eigenvalues --   -0.18961  -0.12407  -0.11490
  Beta virt. eigenvalues --   -0.08545  -0.05648  -0.03767  -0.03688  -0.02779
  Beta virt. eigenvalues --   -0.02545  -0.02104  -0.01456  -0.00521  -0.00398
  Beta virt. eigenvalues --    0.00301   0.00524   0.00585   0.00640   0.00908

 Mulliken charges and spin densities:
               1          2
     1  Na  -0.140181   0.347721
     2  Na   0.416284   0.293455
     3  Na   0.243314  -0.278665
     4  Na  -1.203367  -0.216361
     5  Na   0.093172   0.454314
     6  Na   0.097710   0.287088
     7  Na   0.493067   0.112449
 Sum of Mulliken charges =  -0.00000   1.00000

 Dipole moment (field-independent basis, Debye):
    X=              0.0893    Y=              0.0598    Z=              0.2720  Tot=              0.2924
 Quadrupole moment (field-independent basis, Debye-Ang):
   XX=            -60.6370   YY=            -71.9126   ZZ=            -60.0116
   XY=              0.1102   XZ=             -0.2350   YZ=              3.0578

 Normal termination of Gaussian 16 at Sun Dec  3 16:26:32 2023.
