 Gaussian 16, Revision B.01,
 Gaussian 16:  ES64L-G16RevB.01 20-Dec-2017

 -------------------------
 #P B3LYP/6-311+g(d) force
 -------------------------

 -----
 DPGEN
 -----
 Symbolic Z-matrix:
 Charge =  0 Multiplicity = 2

                         Standard orientation:
 ---------------------------------------------------------------------
 Center     Atomic      Atomic             Coordinates (Angstroms)
 Number     Number       Type             X           Y           Z
 ---------------------------------------------------------------------
      1         11           0       -1.190377   -1.964692   -0.718685
      2         11           0       -0.537821    0.669913    1.813680
      3         11           0       -2.493118    0.972619   -1.332203
      4         11           0        1.460116    2.263950   -0.529385
      5         11           0        4.654130   -0.640095    0.948575
      6         11           0        2.364014   -0.818818   -1.150578
      7         11           0       -4.256943   -0.482877    0.968595
 ---------------------------------------------------------------------

 SCF Done:  E(UB3LYP) =  -1136.10789267     A.U. after   34 cycles

 The electronic state is 2-A.
 Alpha  occ. eigenvalues --  -38.45911 -38.45235 -38.44260 -38.44168 -38.43540
 Alpha  occ. eigenvalues --  -38.43381 -38.43325  -2.21752  -2.21028  -2.20093
 Alpha  occ. eigenvalues --   -2.20029  -2.19346  -2.19204  -2.19190  -1.15457
 Alpha  occ. eigenvalues --   -1.15424  -1.15354  -1.14726  -1.14677  -1.14650
 Alpha  occ. eigenvalues --   -1.13774  -1.13734  -1.13713  -1.13710  -1.13689
 Alpha  occ. eigenvalues --   -1.13611  -1.13048  -1.12995  -1.12985  -1.12939
 Alpha  occ. eigenvalues --   -1.12872  -1.12866  -1.12826  -1.12807  -1.12799
 Alpha  occ. eigenvalues --   -0.17886  -0.14185  -0.10950  -0.10595
 Alpha virt. eigenvalues --   -0.07609  -0.05718  -0.04571  -0.03170  -0.03036
 Alpha virt. eigenvalues --   -0.02271  -0.02158  -0.01751  -0.01089  -0.00421
 Alpha virt. eigenvalues --   -0.00290   0.00028   0.00138   0.00406   0.00583

  Beta  occ. eigenvalues --  -38.45903 -38.45234 -38.44218 -38.44091 -38.43504
  Beta  occ. eigenvalues --  -38.43374 -38.43321  -2.21741  -2.21027  -2.20012
  Beta  occ. eigenvalues --   -2.19889  -2.19279  -2.19191  -2.19188  -1.15430
  Beta  occ. eigenvalues --   -1.15399  -1.15356  -1.14719  -1.14677  -1.14643
  Beta  occ. eigenvalues --   -1.13720  -1.13674  -1.13657  -1.13616  -1.13593
  Beta  occ. eigenvalues --   -1.13506  -1.13009  -1.12950  -1.12945  -1.12929
  Beta  occ. eigenvalues --   -1.12867  -1.12857  -1.12819  -1.12802  -1.12759
  Beta  occ. eigenvalues --   -0.17260  -0.13892  -0.10434
  Beta virt. eigenvalues --   -0.07434  -0.07272  -0.05293  -0.04176  -0.02999
  Beta virt. eigenvalues --   -0.02743  -0.02029  -0.01690  -0.01330  -0.00785
  Beta virt. eigenvalues --   -0.00316  -0.00173   0.00144   0.00276   0.00532

 Mulliken charges and spin densities:
               1          2
     1  Na  -0.171645   0.317401
     2  Na  -0.285481   0.048957
     3  Na   0.253955   0.150769
     4  Na   0.162837   0.112638
     5  Na   0.342917   0.256658
     6  Na  -0.648411  -0.188491
     7  Na   0.345827   0.302069
 Sum of Mulliken charges =  -0.00000   1.00000

 Dipole moment (field-independent basis, Debye):
    X=             -1.9235    Y=              0.8622    Z=              0.2981  Tot=              2.1288
 Quadrupole moment (field-independent basis, Debye-Ang):
   XX=            -66.7838   YY=            -75.8444   ZZ=            -62.5143
   XY=              2.1895   XZ=              3.4646   YZ=             -7.5075

 Normal termination of Gaussian 16 at Fri Dec  8 19:40:22 2023.
