 Gaussian 16, Revision B.01,
 Gaussian 16:  ES64L-G16RevB.01 20-Dec-2017

 -------------------------
 #P B3LYP/6-311+g(d) force
 -------------------------

 -----
 DPGEN
 -----
 Symbolic Z-matrix:
 Charge =  0 Multiplicity = 2

                         Standard orientation:
 ---------------------------------------------------------------------
 Center     Atomic      Atomic             Coordinates (Angstroms)
 Number     Number       Type             X           Y           Z
 ---------------------------------------------------------------------
      1         11           0        0.217215    2.987535   -0.191910
      2         11           0       -5.573965   -0.758739    0.668484
      3         11           0       -2.668348    1.280372    0.214472
      4         11           0       -3.389990   -1.683694   -0.983605
      5         11           0        0.340506   -0.374802   -0.236148
      6         11           0        4.255216   -1.111845    0.982539
      7         11           0        6.819367   -0.338827   -0.453831
 ---------------------------------------------------------------------

 SCF Done:  E(UB3LYP) =  -1136.11427412     A.U. after   19 cycles

 The electronic state is 2-A.
 Alpha  occ. eigenvalues --  -38.44552 -38.44489 -38.44236 -38.44106 -38.43958
 Alpha  occ. eigenvalues --  -38.43857 -38.43603  -2.20449  -2.20348  -2.20125
 Alpha  occ. eigenvalues --   -2.19904  -2.19785  -2.19653  -2.19445  -1.14267
 Alpha  occ. eigenvalues --   -1.14127  -1.14089  -1.13983  -1.13979  -1.13897
 Alpha  occ. eigenvalues --   -1.13831  -1.13822  -1.13712  -1.13614  -1.13552
 Alpha  occ. eigenvalues --   -1.13550  -1.13440  -1.13440  -1.13412  -1.13312
 Alpha  occ. eigenvalues --   -1.13306  -1.13277  -1.13124  -1.13093  -1.13064
 Alpha  occ. eigenvalues --   -0.17002  -0.13833  -0.12653  -0.10346
 Alpha virt. eigenvalues --   -0.06605  -0.05718  -0.04350  -0.03800  -0.02806
 Alpha virt. eigenvalues --   -0.02290  -0.02033  -0.01868  -0.01359  -0.00807
 Alpha virt. eigenvalues --   -0.00330  -0.00043   0.00368   0.00400   0.00583

  Beta  occ. eigenvalues --  -38.44525 -38.44475 -38.44209 -38.44092 -38.43923
  Beta  occ. eigenvalues --  -38.43860 -38.43550  -2.20401  -2.20321  -2.20078
  Beta  occ. eigenvalues --   -2.19877  -2.19720  -2.19659  -2.19348  -1.14234
  Beta  occ. eigenvalues --   -1.14098  -1.14052  -1.13963  -1.13953  -1.13865
  Beta  occ. eigenvalues --   -1.13801  -1.13764  -1.13677  -1.13599  -1.13534
  Beta  occ. eigenvalues --   -1.13532  -1.13396  -1.13387  -1.13370  -1.13317
  Beta  occ. eigenvalues --   -1.13310  -1.13268  -1.13061  -1.13025  -1.12985
  Beta  occ. eigenvalues --   -0.16400  -0.13668  -0.12415
  Beta virt. eigenvalues --   -0.06887  -0.06122  -0.05334  -0.04130  -0.03487
  Beta virt. eigenvalues --   -0.02536  -0.02190  -0.01830  -0.01437  -0.01154
  Beta virt. eigenvalues --   -0.00473  -0.00043   0.00136   0.00497   0.00526

 Mulliken charges and spin densities:
               1          2
     1  Na   0.594883   0.172473
     2  Na   0.978752   0.027005
     3  Na  -0.933594   0.256788
     4  Na  -0.010464   0.009225
     5  Na  -0.556344   0.509915
     6  Na  -0.281617  -0.034185
     7  Na   0.208384   0.058779
 Sum of Mulliken charges =  -0.00000   1.00000

 Dipole moment (field-independent basis, Debye):
    X=             -1.2083    Y=              0.1648    Z=             -0.1554  Tot=              1.2293
 Quadrupole moment (field-independent basis, Debye-Ang):
   XX=            -54.0246   YY=            -69.8550   ZZ=            -69.1536
   XY=              8.6788   XZ=             -6.1759   YZ=             -1.2194

 Normal termination of Gaussian 16 at Wed Nov 29 01:01:58 2023.
