 Gaussian 16, Revision B.01,
 Gaussian 16:  ES64L-G16RevB.01 20-Dec-2017

 -------------------------
 #P B3LYP/6-311+g(d) force
 -------------------------

 -----
 DPGEN
 -----
 Symbolic Z-matrix:
 Charge =  0 Multiplicity = 2

                         Standard orientation:
 ---------------------------------------------------------------------
 Center     Atomic      Atomic             Coordinates (Angstroms)
 Number     Number       Type             X           Y           Z
 ---------------------------------------------------------------------
      1         11           0       -1.769150    3.346564    0.763131
      2         11           0        3.901256   -2.668712    0.134030
      3         11           0       -3.388445   -2.611924    0.334512
      4         11           0       -4.049140    0.256364   -0.515880
      5         11           0        1.039316    3.446105   -0.623654
      6         11           0        4.018855    1.425234    0.143913
      7         11           0        0.247308   -3.193630   -0.236052
 ---------------------------------------------------------------------

 SCF Done:  E(UB3LYP) =  -1136.10411062     A.U. after   22 cycles

 The electronic state is 2-A.
 Alpha  occ. eigenvalues --  -38.45567 -38.45113 -38.44888 -38.44466 -38.44380
 Alpha  occ. eigenvalues --  -38.44328 -38.43796  -2.21353  -2.20859  -2.20613
 Alpha  occ. eigenvalues --   -2.20252  -2.20156  -2.20147  -2.19611  -1.15034
 Alpha  occ. eigenvalues --   -1.15016  -1.14991  -1.14540  -1.14530  -1.14462
 Alpha  occ. eigenvalues --   -1.14299  -1.14274  -1.14257  -1.13946  -1.13927
 Alpha  occ. eigenvalues --   -1.13908  -1.13818  -1.13810  -1.13797  -1.13795
 Alpha  occ. eigenvalues --   -1.13786  -1.13766  -1.13260  -1.13253  -1.13242
 Alpha  occ. eigenvalues --   -0.15424  -0.13851  -0.13293  -0.10731
 Alpha virt. eigenvalues --   -0.07796  -0.04829  -0.04800  -0.03382  -0.03343
 Alpha virt. eigenvalues --   -0.02617  -0.02417  -0.02010  -0.01509  -0.00657
 Alpha virt. eigenvalues --   -0.00218  -0.00138  -0.00011   0.00185   0.00347

  Beta  occ. eigenvalues --  -38.45546 -38.45071 -38.44896 -38.44467 -38.44310
  Beta  occ. eigenvalues --  -38.44287 -38.43743  -2.21319  -2.20782  -2.20631
  Beta  occ. eigenvalues --   -2.20261  -2.20117  -2.19984  -2.19512  -1.15007
  Beta  occ. eigenvalues --   -1.14995  -1.14951  -1.14488  -1.14478  -1.14404
  Beta  occ. eigenvalues --   -1.14314  -1.14289  -1.14250  -1.13951  -1.13939
  Beta  occ. eigenvalues --   -1.13872  -1.13791  -1.13778  -1.13763  -1.13694
  Beta  occ. eigenvalues --   -1.13681  -1.13651  -1.13199  -1.13184  -1.13175
  Beta  occ. eigenvalues --   -0.14954  -0.13101  -0.12693
  Beta virt. eigenvalues --   -0.07913  -0.07486  -0.04541  -0.04327  -0.03076
  Beta virt. eigenvalues --   -0.02963  -0.02390  -0.02244  -0.01873  -0.01391
  Beta virt. eigenvalues --   -0.00229  -0.00060  -0.00025   0.00163   0.00307

 Mulliken charges and spin densities:
               1          2
     1  Na  -0.061566   0.219503
     2  Na   0.323950  -0.138077
     3  Na   0.207986   0.139414
     4  Na  -0.081983   0.107022
     5  Na  -0.088109  -0.041764
     6  Na  -0.000411   0.481773
     7  Na  -0.299868   0.232129
 Sum of Mulliken charges =  -0.00000   1.00000

 Dipole moment (field-independent basis, Debye):
    X=             -0.8351    Y=             -0.6966    Z=             -0.0485  Tot=              1.0886
 Quadrupole moment (field-independent basis, Debye-Ang):
   XX=            -58.9901   YY=            -69.6070   ZZ=            -71.9810
   XY=             -2.7719   XZ=              0.6347   YZ=             -1.9212

 Normal termination of Gaussian 16 at Mon Dec  4 02:01:33 2023.
