 Gaussian 16, Revision B.01,
 Gaussian 16:  ES64L-G16RevB.01 20-Dec-2017

 -------------------------
 #P B3LYP/6-311+g(d) force
 -------------------------

 -----
 DPGEN
 -----
 Symbolic Z-matrix:
 Charge =  0 Multiplicity = 2

                         Standard orientation:
 ---------------------------------------------------------------------
 Center     Atomic      Atomic             Coordinates (Angstroms)
 Number     Number       Type             X           Y           Z
 ---------------------------------------------------------------------
      1         11           0        0.761467   -0.079895   -1.354801
      2         11           0       -0.022618    2.247135    0.558530
      3         11           0        3.424784   -0.093216   -0.355122
      4         11           0        1.125912   -0.642943    1.458164
      5         11           0       -1.941930    0.020390    1.465244
      6         11           0       -1.257496   -2.209096   -0.287768
      7         11           0       -2.090120    0.757625   -1.484247
 ---------------------------------------------------------------------

 SCF Done:  E(UB3LYP) =  -1136.10734820     A.U. after   23 cycles

 The electronic state is 2-A.
 Alpha  occ. eigenvalues --  -38.44698 -38.44042 -38.44022 -38.43680 -38.43663
 Alpha  occ. eigenvalues --  -38.42451 -38.42402  -2.20610  -2.20128  -2.20037
 Alpha  occ. eigenvalues --   -2.19890  -2.19763  -2.18447  -2.18396  -1.14402
 Alpha  occ. eigenvalues --   -1.14296  -1.14191  -1.13885  -1.13851  -1.13820
 Alpha  occ. eigenvalues --   -1.13760  -1.13716  -1.13619  -1.13603  -1.13492
 Alpha  occ. eigenvalues --   -1.13463  -1.13414  -1.13350  -1.13331  -1.12145
 Alpha  occ. eigenvalues --   -1.12117  -1.12113  -1.12053  -1.12053  -1.11990
 Alpha  occ. eigenvalues --   -0.20480  -0.13945  -0.12399  -0.11642
 Alpha virt. eigenvalues --   -0.06017  -0.04327  -0.03651  -0.03457  -0.02992
 Alpha virt. eigenvalues --   -0.02715  -0.01693  -0.00585  -0.00343   0.00280
 Alpha virt. eigenvalues --    0.00510   0.00584   0.00831   0.01004   0.01017

  Beta  occ. eigenvalues --  -38.44692 -38.43990 -38.43971 -38.43622 -38.43611
  Beta  occ. eigenvalues --  -38.42441 -38.42384  -2.20602  -2.20037  -2.19947
  Beta  occ. eigenvalues --   -2.19790  -2.19672  -2.18435  -2.18368  -1.14387
  Beta  occ. eigenvalues --   -1.14281  -1.14186  -1.13834  -1.13756  -1.13737
  Beta  occ. eigenvalues --   -1.13696  -1.13650  -1.13557  -1.13537  -1.13417
  Beta  occ. eigenvalues --   -1.13397  -1.13335  -1.13276  -1.13261  -1.12143
  Beta  occ. eigenvalues --   -1.12100  -1.12090  -1.12025  -1.11999  -1.11975
  Beta  occ. eigenvalues --   -0.19631  -0.13775  -0.11380
  Beta virt. eigenvalues --   -0.08042  -0.05895  -0.03805  -0.03565  -0.03193
  Beta virt. eigenvalues --   -0.02150  -0.01856  -0.01573  -0.00337  -0.00200
  Beta virt. eigenvalues --    0.00314   0.00580   0.00736   0.00834   0.01007

 Mulliken charges and spin densities:
               1          2
     1  Na   0.200813   0.455878
     2  Na  -0.875920  -0.013154
     3  Na   0.181335   0.019652
     4  Na  -0.034930   0.218871
     5  Na   0.796610   0.261889
     6  Na  -0.667028   0.140482
     7  Na   0.399119  -0.083616
 Sum of Mulliken charges =  -0.00000   1.00000

 Dipole moment (field-independent basis, Debye):
    X=              0.4434    Y=              0.1657    Z=             -0.0435  Tot=              0.4754
 Quadrupole moment (field-independent basis, Debye-Ang):
   XX=            -53.6976   YY=            -75.0636   ZZ=            -65.3175
   XY=              0.1279   XZ=              0.2822   YZ=              0.4702

 Normal termination of Gaussian 16 at Sat Dec  9 06:38:53 2023.
