 Gaussian 16, Revision B.01,
 Gaussian 16:  ES64L-G16RevB.01 20-Dec-2017

 -------------------------
 #P B3LYP/6-311+g(d) force
 -------------------------

 -----
 DPGEN
 -----
 Symbolic Z-matrix:
 Charge =  0 Multiplicity = 2

                         Standard orientation:
 ---------------------------------------------------------------------
 Center     Atomic      Atomic             Coordinates (Angstroms)
 Number     Number       Type             X           Y           Z
 ---------------------------------------------------------------------
      1         11           0        1.506580    3.590653   -0.365682
      2         11           0        4.288255    0.548243    0.287152
      3         11           0       -3.913959    0.773933   -0.403090
      4         11           0       -3.338201   -2.364177    0.289205
      5         11           0        3.488469   -2.318079   -0.177172
      6         11           0       -1.648350    3.654741    0.421292
      7         11           0       -0.382794   -3.885314   -0.051706
 ---------------------------------------------------------------------

 SCF Done:  E(UB3LYP) =  -1136.10642696     A.U. after   21 cycles

 The electronic state is 2-A.
 Alpha  occ. eigenvalues --  -38.44854 -38.44727 -38.44657 -38.44630 -38.44424
 Alpha  occ. eigenvalues --  -38.44410 -38.44325  -2.20648  -2.20509  -2.20437
 Alpha  occ. eigenvalues --   -2.20428  -2.20219  -2.20203  -2.20135  -1.14390
 Alpha  occ. eigenvalues --   -1.14307  -1.14291  -1.14193  -1.14167  -1.14151
 Alpha  occ. eigenvalues --   -1.14102  -1.14090  -1.14084  -1.14072  -1.14057
 Alpha  occ. eigenvalues --   -1.14049  -1.13929  -1.13907  -1.13895  -1.13849
 Alpha  occ. eigenvalues --   -1.13837  -1.13808  -1.13781  -1.13768  -1.13744
 Alpha  occ. eigenvalues --   -0.15391  -0.13996  -0.13629  -0.11066
 Alpha virt. eigenvalues --   -0.07730  -0.04769  -0.04482  -0.03586  -0.03397
 Alpha virt. eigenvalues --   -0.02592  -0.02407  -0.01872  -0.01653  -0.00473
 Alpha virt. eigenvalues --   -0.00343  -0.00150  -0.00002   0.00143   0.00261

  Beta  occ. eigenvalues --  -38.44843 -38.44680 -38.44661 -38.44603 -38.44430
  Beta  occ. eigenvalues --  -38.44328 -38.44250  -2.20633  -2.20441  -2.20425
  Beta  occ. eigenvalues --   -2.20390  -2.20238  -2.20051  -2.19995  -1.14360
  Beta  occ. eigenvalues --   -1.14299  -1.14275  -1.14152  -1.14121  -1.14106
  Beta  occ. eigenvalues --   -1.14095  -1.14092  -1.14054  -1.14043  -1.14017
  Beta  occ. eigenvalues --   -1.14012  -1.13920  -1.13914  -1.13874  -1.13747
  Beta  occ. eigenvalues --   -1.13737  -1.13718  -1.13685  -1.13677  -1.13659
  Beta  occ. eigenvalues --   -0.14816  -0.13353  -0.12868
  Beta virt. eigenvalues --   -0.07942  -0.07770  -0.04327  -0.03985  -0.03360
  Beta virt. eigenvalues --   -0.03037  -0.02418  -0.02188  -0.01794  -0.01503
  Beta virt. eigenvalues --   -0.00047   0.00025   0.00118   0.00173   0.00273

 Mulliken charges and spin densities:
               1          2
     1  Na  -0.067349   0.220346
     2  Na  -0.084341   0.065282
     3  Na  -0.288360   0.339526
     4  Na   0.113602  -0.049801
     5  Na   0.196777   0.068311
     6  Na  -0.085207  -0.043667
     7  Na   0.214879   0.400003
 Sum of Mulliken charges =  -0.00000   1.00000

 Dipole moment (field-independent basis, Debye):
    X=              0.6069    Y=              0.3204    Z=             -0.0109  Tot=              0.6863
 Quadrupole moment (field-independent basis, Debye-Ang):
   XX=            -63.2338   YY=            -64.5073   ZZ=            -73.4302
   XY=             -0.2088   XZ=             -1.1876   YZ=              0.7794

 Normal termination of Gaussian 16 at Sun Dec  3 14:00:10 2023.
