 Gaussian 16, Revision B.01,
 Gaussian 16:  ES64L-G16RevB.01 20-Dec-2017

 -------------------------
 #P B3LYP/6-311+g(d) force
 -------------------------

 -----
 DPGEN
 -----
 Symbolic Z-matrix:
 Charge =  0 Multiplicity = 2

                         Standard orientation:
 ---------------------------------------------------------------------
 Center     Atomic      Atomic             Coordinates (Angstroms)
 Number     Number       Type             X           Y           Z
 ---------------------------------------------------------------------
      1         11           0        4.788576    0.701487    0.991771
      2         11           0       -5.149608    0.646048    0.189016
      3         11           0        3.519808   -1.842873   -0.598292
      4         11           0       -3.523376   -1.782347    0.502814
      5         11           0        1.427499    2.616741   -0.327750
      6         11           0       -1.560251    1.648672   -0.459905
      7         11           0        0.497352   -1.987728   -0.297654
 ---------------------------------------------------------------------

 SCF Done:  E(UB3LYP) =  -1136.11066641     A.U. after   22 cycles

 The electronic state is 2-A.
 Alpha  occ. eigenvalues --  -38.45345 -38.45161 -38.45095 -38.44462 -38.44013
 Alpha  occ. eigenvalues --  -38.43198 -38.42815  -2.21148  -2.21008  -2.20910
 Alpha  occ. eigenvalues --   -2.20288  -2.19847  -2.19021  -2.18608  -1.14807
 Alpha  occ. eigenvalues --   -1.14793  -1.14783  -1.14766  -1.14645  -1.14632
 Alpha  occ. eigenvalues --   -1.14567  -1.14547  -1.14486  -1.13982  -1.13936
 Alpha  occ. eigenvalues --   -1.13900  -1.13525  -1.13504  -1.13493  -1.12711
 Alpha  occ. eigenvalues --   -1.12704  -1.12656  -1.12279  -1.12270  -1.12247
 Alpha  occ. eigenvalues --   -0.16488  -0.14821  -0.11739  -0.11414
 Alpha virt. eigenvalues --   -0.06998  -0.05354  -0.04154  -0.03918  -0.03290
 Alpha virt. eigenvalues --   -0.02735  -0.01962  -0.01649  -0.00831  -0.00763
 Alpha virt. eigenvalues --   -0.00131  -0.00043   0.00038   0.00456   0.00639

  Beta  occ. eigenvalues --  -38.45253 -38.45118 -38.45097 -38.44381 -38.44021
  Beta  occ. eigenvalues --  -38.43187 -38.42819  -2.20976  -2.20934  -2.20911
  Beta  occ. eigenvalues --   -2.20136  -2.19868  -2.19003  -2.18617  -1.14767
  Beta  occ. eigenvalues --   -1.14675  -1.14670  -1.14649  -1.14603  -1.14584
  Beta  occ. eigenvalues --   -1.14564  -1.14539  -1.14455  -1.13894  -1.13834
  Beta  occ. eigenvalues --   -1.13793  -1.13524  -1.13521  -1.13476  -1.12694
  Beta  occ. eigenvalues --   -1.12684  -1.12649  -1.12287  -1.12272  -1.12245
  Beta  occ. eigenvalues --   -0.15861  -0.14190  -0.11270
  Beta virt. eigenvalues --   -0.08230  -0.06623  -0.04858  -0.03844  -0.03569
  Beta virt. eigenvalues --   -0.03023  -0.02421  -0.01636  -0.01172  -0.00749
  Beta virt. eigenvalues --   -0.00577  -0.00017   0.00173   0.00194   0.00522

 Mulliken charges and spin densities:
               1          2
     1  Na   0.077906   0.420555
     2  Na   0.803086   0.243660
     3  Na   0.314790   0.264323
     4  Na   0.066281  -0.145715
     5  Na  -0.711007  -0.058329
     6  Na  -0.118969   0.008088
     7  Na  -0.432088   0.267418
 Sum of Mulliken charges =  -0.00000   1.00000

 Dipole moment (field-independent basis, Debye):
    X=             -0.9280    Y=             -0.3483    Z=              0.5847  Tot=              1.1508
 Quadrupole moment (field-independent basis, Debye-Ang):
   XX=            -49.0211   YY=            -72.9289   ZZ=            -71.6177
   XY=              0.6184   XZ=              1.7339   YZ=              1.2544

 Normal termination of Gaussian 16 at Sun Dec  3 19:12:13 2023.
