 Gaussian 16, Revision B.01,
 Gaussian 16:  ES64L-G16RevB.01 20-Dec-2017

 -------------------------
 #P B3LYP/6-311+g(d) force
 -------------------------

 -----
 DPGEN
 -----
 Symbolic Z-matrix:
 Charge =  0 Multiplicity = 2

                         Standard orientation:
 ---------------------------------------------------------------------
 Center     Atomic      Atomic             Coordinates (Angstroms)
 Number     Number       Type             X           Y           Z
 ---------------------------------------------------------------------
      1         11           0       -3.287729   -2.654097    0.213838
      2         11           0       -3.698244    1.203925   -0.543296
      3         11           0       -1.087574    3.565115    0.188177
      4         11           0        2.843170    1.581181   -1.068697
      5         11           0        0.003069   -2.991379   -0.279887
      6         11           0        1.371757    0.871821    1.532514
      7         11           0        3.855551   -1.576566   -0.042649
 ---------------------------------------------------------------------

 SCF Done:  E(UB3LYP) =  -1136.10986693     A.U. after   23 cycles

 The electronic state is 2-A.
 Alpha  occ. eigenvalues --  -38.45989 -38.45000 -38.44369 -38.44242 -38.44143
 Alpha  occ. eigenvalues --  -38.43780 -38.43593  -2.21800  -2.20833  -2.20134
 Alpha  occ. eigenvalues --   -2.20009  -2.19885  -2.19603  -2.19373  -1.15509
 Alpha  occ. eigenvalues --   -1.15472  -1.15408  -1.14519  -1.14490  -1.14424
 Alpha  occ. eigenvalues --   -1.13815  -1.13806  -1.13772  -1.13682  -1.13660
 Alpha  occ. eigenvalues --   -1.13641  -1.13582  -1.13561  -1.13522  -1.13265
 Alpha  occ. eigenvalues --   -1.13247  -1.13223  -1.13036  -1.13014  -1.12991
 Alpha  occ. eigenvalues --   -0.16529  -0.13550  -0.12691  -0.09854
 Alpha virt. eigenvalues --   -0.07099  -0.06138  -0.04802  -0.03104  -0.02766
 Alpha virt. eigenvalues --   -0.02319  -0.02244  -0.02040  -0.01284  -0.01149
 Alpha virt. eigenvalues --   -0.00114   0.00148   0.00223   0.00362   0.00489

  Beta  occ. eigenvalues --  -38.45982 -38.44961 -38.44350 -38.44238 -38.44157
  Beta  occ. eigenvalues --  -38.43713 -38.43517  -2.21791  -2.20761  -2.20101
  Beta  occ. eigenvalues --   -2.20005  -2.19917  -2.19479  -2.19232  -1.15500
  Beta  occ. eigenvalues --   -1.15471  -1.15373  -1.14471  -1.14440  -1.14370
  Beta  occ. eigenvalues --   -1.13794  -1.13785  -1.13740  -1.13681  -1.13657
  Beta  occ. eigenvalues --   -1.13619  -1.13608  -1.13586  -1.13511  -1.13177
  Beta  occ. eigenvalues --   -1.13161  -1.13144  -1.12939  -1.12920  -1.12895
  Beta  occ. eigenvalues --   -0.16094  -0.12966  -0.12136
  Beta virt. eigenvalues --   -0.07095  -0.06618  -0.05967  -0.04439  -0.02635
  Beta virt. eigenvalues --   -0.02416  -0.02190  -0.01900  -0.01792  -0.01203
  Beta virt. eigenvalues --   -0.00928   0.00191   0.00245   0.00417   0.00439

 Mulliken charges and spin densities:
               1          2
     1  Na   0.211927  -0.008227
     2  Na  -0.248535   0.404986
     3  Na   0.156780  -0.065655
     4  Na   0.266204   0.098033
     5  Na  -0.202863   0.074410
     6  Na  -0.281697   0.083375
     7  Na   0.098185   0.413078
 Sum of Mulliken charges =  -0.00000   1.00000

 Dipole moment (field-independent basis, Debye):
    X=              1.5456    Y=              0.4390    Z=             -0.0737  Tot=              1.6085
 Quadrupole moment (field-independent basis, Debye-Ang):
   XX=            -68.8354   YY=            -68.8908   ZZ=            -67.3209
   XY=              7.7528   XZ=             -2.8842   YZ=             -3.4045

 Normal termination of Gaussian 16 at Sun Dec  3 19:48:45 2023.
