 Gaussian 16, Revision B.01,
 Gaussian 16:  ES64L-G16RevB.01 20-Dec-2017

 -------------------------
 #P B3LYP/6-311+g(d) force
 -------------------------

 -----
 DPGEN
 -----
 Symbolic Z-matrix:
 Charge =  0 Multiplicity = 2

                         Standard orientation:
 ---------------------------------------------------------------------
 Center     Atomic      Atomic             Coordinates (Angstroms)
 Number     Number       Type             X           Y           Z
 ---------------------------------------------------------------------
      1         11           0        2.931500    1.836919   -0.605384
      2         11           0       -2.191657   -0.421699    1.877971
      3         11           0        3.928694   -1.751827   -0.452604
      4         11           0        0.909803   -2.226187    1.034652
      5         11           0       -0.022671    3.002004    1.059211
      6         11           0       -4.326015   -0.686811   -1.023252
      7         11           0       -1.229653    0.247600   -1.890593
 ---------------------------------------------------------------------

 SCF Done:  E(UB3LYP) =  -1136.11517409     A.U. after   21 cycles

 The electronic state is 2-A.
 Alpha  occ. eigenvalues --  -38.45887 -38.44856 -38.44630 -38.44288 -38.44021
 Alpha  occ. eigenvalues --  -38.43649 -38.43345  -2.21656  -2.20660  -2.20440
 Alpha  occ. eigenvalues --   -2.20044  -2.19801  -2.19433  -2.19112  -1.15337
 Alpha  occ. eigenvalues --   -1.15312  -1.15271  -1.14320  -1.14314  -1.14288
 Alpha  occ. eigenvalues --   -1.14108  -1.14084  -1.14061  -1.13736  -1.13708
 Alpha  occ. eigenvalues --   -1.13664  -1.13486  -1.13472  -1.13422  -1.13103
 Alpha  occ. eigenvalues --   -1.13086  -1.13076  -1.12787  -1.12768  -1.12746
 Alpha  occ. eigenvalues --   -0.16745  -0.13602  -0.11512  -0.11301
 Alpha virt. eigenvalues --   -0.06955  -0.05514  -0.04937  -0.03128  -0.03047
 Alpha virt. eigenvalues --   -0.02713  -0.02439  -0.01259  -0.01229  -0.00529
 Alpha virt. eigenvalues --   -0.00104  -0.00080   0.00099   0.00182   0.00526

  Beta  occ. eigenvalues --  -38.45848 -38.44821 -38.44566 -38.44279 -38.43996
  Beta  occ. eigenvalues --  -38.43644 -38.43328  -2.21586  -2.20596  -2.20323
  Beta  occ. eigenvalues --   -2.20028  -2.19755  -2.19424  -2.19080  -1.15288
  Beta  occ. eigenvalues --   -1.15266  -1.15209  -1.14273  -1.14258  -1.14252
  Beta  occ. eigenvalues --   -1.14024  -1.14000  -1.13977  -1.13725  -1.13699
  Beta  occ. eigenvalues --   -1.13650  -1.13458  -1.13443  -1.13377  -1.13096
  Beta  occ. eigenvalues --   -1.13075  -1.13072  -1.12764  -1.12745  -1.12724
  Beta  occ. eigenvalues --   -0.16061  -0.13285  -0.11344
  Beta virt. eigenvalues --   -0.07696  -0.06680  -0.05134  -0.04519  -0.02893
  Beta virt. eigenvalues --   -0.02543  -0.02412  -0.02086  -0.01179  -0.00847
  Beta virt. eigenvalues --   -0.00405   0.00018   0.00087   0.00295   0.00301

 Mulliken charges and spin densities:
               1          2
     1  Na  -0.081962   0.083011
     2  Na  -0.020126   0.273795
     3  Na   0.248007   0.089334
     4  Na  -0.220330   0.078868
     5  Na  -0.009363   0.078079
     6  Na   0.329335   0.072594
     7  Na  -0.245562   0.324320
 Sum of Mulliken charges =  -0.00000   1.00000

 Dipole moment (field-independent basis, Debye):
    X=             -1.4008    Y=             -0.1717    Z=             -0.5041  Tot=              1.4986
 Quadrupole moment (field-independent basis, Debye-Ang):
   XX=            -53.1844   YY=            -76.5657   ZZ=            -68.5501
   XY=              1.7385   XZ=             -4.5253   YZ=              1.5845

 Normal termination of Gaussian 16 at Sun Dec  3 23:08:34 2023.
