 Gaussian 16, Revision B.01,
 Gaussian 16:  ES64L-G16RevB.01 20-Dec-2017

 -------------------------
 #P B3LYP/6-311+g(d) force
 -------------------------

 -----
 DPGEN
 -----
 Symbolic Z-matrix:
 Charge =  0 Multiplicity = 2

                         Standard orientation:
 ---------------------------------------------------------------------
 Center     Atomic      Atomic             Coordinates (Angstroms)
 Number     Number       Type             X           Y           Z
 ---------------------------------------------------------------------
      1         11           0       -0.148162   -0.494525    2.090679
      2         11           0        2.976402   -1.621192    0.882567
      3         11           0       -0.281738   -1.851769   -1.249164
      4         11           0        2.880972    0.694347   -1.778318
      5         11           0       -4.277482   -0.551463   -0.032944
      6         11           0       -2.001965    1.186918   -0.784545
      7         11           0        0.851973    2.637683    0.871724
 ---------------------------------------------------------------------

 SCF Done:  E(UB3LYP) =  -1136.11677004     A.U. after   25 cycles

 The electronic state is 2-A.
 Alpha  occ. eigenvalues --  -38.45354 -38.44816 -38.44733 -38.44436 -38.44270
 Alpha  occ. eigenvalues --  -38.43757 -38.42027  -2.21150  -2.20592  -2.20528
 Alpha  occ. eigenvalues --   -2.20224  -2.20132  -2.19647  -2.17836  -1.14873
 Alpha  occ. eigenvalues --   -1.14799  -1.14768  -1.14305  -1.14283  -1.14198
 Alpha  occ. eigenvalues --   -1.14176  -1.14157  -1.14139  -1.13902  -1.13889
 Alpha  occ. eigenvalues --   -1.13860  -1.13796  -1.13770  -1.13731  -1.13351
 Alpha  occ. eigenvalues --   -1.13316  -1.13249  -1.11510  -1.11501  -1.11487
 Alpha  occ. eigenvalues --   -0.17657  -0.13723  -0.11346  -0.10972
 Alpha virt. eigenvalues --   -0.07199  -0.05173  -0.04137  -0.03319  -0.03083
 Alpha virt. eigenvalues --   -0.02787  -0.02643  -0.01301  -0.00595  -0.00240
 Alpha virt. eigenvalues --   -0.00003   0.00009   0.00252   0.00636   0.00675

  Beta  occ. eigenvalues --  -38.45361 -38.44804 -38.44653 -38.44428 -38.44176
  Beta  occ. eigenvalues --  -38.43750 -38.42028  -2.21163  -2.20572  -2.20378
  Beta  occ. eigenvalues --   -2.20215  -2.19960  -2.19636  -2.17841  -1.14881
  Beta  occ. eigenvalues --   -1.14805  -1.14777  -1.14295  -1.14246  -1.14165
  Beta  occ. eigenvalues --   -1.14095  -1.14061  -1.14035  -1.13888  -1.13862
  Beta  occ. eigenvalues --   -1.13853  -1.13684  -1.13653  -1.13603  -1.13345
  Beta  occ. eigenvalues --   -1.13306  -1.13239  -1.11510  -1.11504  -1.11479
  Beta  occ. eigenvalues --   -0.16999  -0.13398  -0.10837
  Beta virt. eigenvalues --   -0.07542  -0.07049  -0.04772  -0.03833  -0.03124
  Beta virt. eigenvalues --   -0.02652  -0.02237  -0.02022  -0.01095  -0.00458
  Beta virt. eigenvalues --   -0.00072   0.00042   0.00091   0.00319   0.00772

 Mulliken charges and spin densities:
               1          2
     1  Na  -0.149988   0.683734
     2  Na   0.271206  -0.095451
     3  Na  -0.103882   0.065460
     4  Na  -0.104083   0.451019
     5  Na   0.406161  -0.095430
     6  Na  -0.261245   0.073165
     7  Na  -0.058169  -0.082497
 Sum of Mulliken charges =  -0.00000   1.00000

 Dipole moment (field-independent basis, Debye):
    X=             -0.8316    Y=             -0.9484    Z=              0.0637  Tot=              1.2630
 Quadrupole moment (field-independent basis, Debye-Ang):
   XX=            -49.9276   YY=            -77.2603   ZZ=            -68.1393
   XY=              1.8280   XZ=             -1.1598   YZ=             -3.4132

 Normal termination of Gaussian 16 at Sun Dec  3 18:22:55 2023.
