 Gaussian 16, Revision B.01,
 Gaussian 16:  ES64L-G16RevB.01 20-Dec-2017

 -------------------------
 #P B3LYP/6-311+g(d) force
 -------------------------

 -----
 DPGEN
 -----
 Symbolic Z-matrix:
 Charge =  0 Multiplicity = 2

                         Standard orientation:
 ---------------------------------------------------------------------
 Center     Atomic      Atomic             Coordinates (Angstroms)
 Number     Number       Type             X           Y           Z
 ---------------------------------------------------------------------
      1         11           0        1.685451   -2.415842    0.101210
      2         11           0       -0.284619    3.114811    0.050304
      3         11           0       -3.076666    0.754982   -0.185400
      4         11           0        3.385945    0.791079   -0.047056
      5         11           0       -0.265970   -0.113812    2.080393
      6         11           0       -1.887158   -2.367415   -0.374118
      7         11           0        0.443016    0.236197   -1.625333
 ---------------------------------------------------------------------

 SCF Done:  E(UB3LYP) =  -1136.13675222     A.U. after   19 cycles

 The electronic state is 2-A.
 Alpha  occ. eigenvalues --  -38.44575 -38.44102 -38.43664 -38.43641 -38.43533
 Alpha  occ. eigenvalues --  -38.43364 -38.43306  -2.20357  -2.19923  -2.19481
 Alpha  occ. eigenvalues --   -2.19464  -2.19399  -2.19231  -2.19205  -1.14035
 Alpha  occ. eigenvalues --   -1.14008  -1.13999  -1.13595  -1.13593  -1.13562
 Alpha  occ. eigenvalues --   -1.13174  -1.13157  -1.13150  -1.13131  -1.13105
 Alpha  occ. eigenvalues --   -1.13096  -1.13061  -1.13025  -1.13012  -1.12919
 Alpha  occ. eigenvalues --   -1.12882  -1.12865  -1.12863  -1.12851  -1.12844
 Alpha  occ. eigenvalues --   -0.18223  -0.12991  -0.12294  -0.10499
 Alpha virt. eigenvalues --   -0.06085  -0.05121  -0.04847  -0.03135  -0.02823
 Alpha virt. eigenvalues --   -0.02450  -0.01796  -0.01171  -0.00666  -0.00476
 Alpha virt. eigenvalues --   -0.00032   0.00333   0.00749   0.00801   0.00859

  Beta  occ. eigenvalues --  -38.44576 -38.44097 -38.43662 -38.43635 -38.43434
  Beta  occ. eigenvalues --  -38.43355 -38.43252  -2.20360  -2.19916  -2.19473
  Beta  occ. eigenvalues --   -2.19462  -2.19217  -2.19191  -2.19133  -1.14025
  Beta  occ. eigenvalues --   -1.14009  -1.14004  -1.13592  -1.13570  -1.13557
  Beta  occ. eigenvalues --   -1.13168  -1.13145  -1.13124  -1.13115  -1.13104
  Beta  occ. eigenvalues --   -1.13098  -1.12943  -1.12901  -1.12882  -1.12864
  Beta  occ. eigenvalues --   -1.12851  -1.12844  -1.12828  -1.12797  -1.12778
  Beta  occ. eigenvalues --   -0.17512  -0.12785  -0.12083
  Beta virt. eigenvalues --   -0.06619  -0.06044  -0.05097  -0.04775  -0.02403
  Beta virt. eigenvalues --   -0.02081  -0.01714  -0.01404  -0.01089  -0.00712
  Beta virt. eigenvalues --   -0.00515   0.00128   0.00371   0.00778   0.00835

 Mulliken charges and spin densities:
               1          2
     1  Na   0.153222  -0.002092
     2  Na  -0.000104  -0.126278
     3  Na   0.140054  -0.005710
     4  Na   0.117885  -0.114225
     5  Na  -0.387732   0.756573
     6  Na   0.046091   0.019003
     7  Na  -0.069415   0.472729
 Sum of Mulliken charges =  -0.00000   1.00000

 Dipole moment (field-independent basis, Debye):
    X=              0.3772    Y=              0.2433    Z=              0.0943  Tot=              0.4587
 Quadrupole moment (field-independent basis, Debye-Ang):
   XX=            -54.8139   YY=            -62.4168   ZZ=            -75.6275
   XY=              0.3240   XZ=              1.5024   YZ=              0.8311

 Normal termination of Gaussian 16 at Thu Dec  7 12:00:26 2023.
