 Gaussian 16, Revision B.01,
 Gaussian 16:  ES64L-G16RevB.01 20-Dec-2017

 -------------------------
 #P B3LYP/6-311+g(d) force
 -------------------------

 -----
 DPGEN
 -----
 Symbolic Z-matrix:
 Charge =  0 Multiplicity = 2

                         Standard orientation:
 ---------------------------------------------------------------------
 Center     Atomic      Atomic             Coordinates (Angstroms)
 Number     Number       Type             X           Y           Z
 ---------------------------------------------------------------------
      1         11           0        2.778852    0.579962    1.174788
      2         11           0        2.941077   -3.030806    0.592314
      3         11           0       -2.887787   -0.715512   -0.533142
      4         11           0        2.554332    3.655559   -0.261592
      5         11           0       -5.471229    0.630019    1.060519
      6         11           0        0.207186   -2.401573   -0.984651
      7         11           0       -0.122431    1.282351   -1.048236
 ---------------------------------------------------------------------

 SCF Done:  E(UB3LYP) =  -1136.12499163     A.U. after   19 cycles

 The electronic state is 2-A.
 Alpha  occ. eigenvalues --  -38.44672 -38.44540 -38.44503 -38.44209 -38.43970
 Alpha  occ. eigenvalues --  -38.43436 -38.43220  -2.20473  -2.20360  -2.20312
 Alpha  occ. eigenvalues --   -2.19999  -2.19806  -2.19254  -2.19057  -1.14173
 Alpha  occ. eigenvalues --   -1.14154  -1.14071  -1.14058  -1.14047  -1.13944
 Alpha  occ. eigenvalues --   -1.13942  -1.13941  -1.13933  -1.13665  -1.13665
 Alpha  occ. eigenvalues --   -1.13623  -1.13495  -1.13475  -1.13441  -1.12909
 Alpha  occ. eigenvalues --   -1.12908  -1.12892  -1.12745  -1.12738  -1.12709
 Alpha  occ. eigenvalues --   -0.16721  -0.13814  -0.12627  -0.11246
 Alpha virt. eigenvalues --   -0.06053  -0.05495  -0.04549  -0.03839  -0.02618
 Alpha virt. eigenvalues --   -0.02223  -0.02067  -0.01737  -0.01067  -0.00978
 Alpha virt. eigenvalues --   -0.00394   0.00097   0.00225   0.00364   0.00653

  Beta  occ. eigenvalues --  -38.44648 -38.44504 -38.44392 -38.44207 -38.43952
  Beta  occ. eigenvalues --  -38.43416 -38.43218  -2.20429  -2.20296  -2.20106
  Beta  occ. eigenvalues --   -2.19997  -2.19776  -2.19216  -2.19064  -1.14142
  Beta  occ. eigenvalues --   -1.14126  -1.14032  -1.14016  -1.14006  -1.13888
  Beta  occ. eigenvalues --   -1.13802  -1.13801  -1.13797  -1.13664  -1.13660
  Beta  occ. eigenvalues --   -1.13623  -1.13478  -1.13457  -1.13401  -1.12886
  Beta  occ. eigenvalues --   -1.12883  -1.12862  -1.12760  -1.12752  -1.12641
  Beta  occ. eigenvalues --   -0.16184  -0.13050  -0.12380
  Beta virt. eigenvalues --   -0.07759  -0.05903  -0.05139  -0.04053  -0.03647
  Beta virt. eigenvalues --   -0.02388  -0.02008  -0.01766  -0.01344  -0.00920
  Beta virt. eigenvalues --   -0.00596  -0.00084   0.00219   0.00382   0.00471

 Mulliken charges and spin densities:
               1          2
     1  Na  -0.333428   0.185395
     2  Na   0.552948   0.188763
     3  Na  -0.529902   0.124619
     4  Na   0.717251  -0.007651
     5  Na   0.367292   0.454826
     6  Na  -0.211825  -0.067176
     7  Na  -0.562335   0.121223
 Sum of Mulliken charges =  -0.00000   1.00000

 Dipole moment (field-independent basis, Debye):
    X=              0.7914    Y=              0.9962    Z=              0.0335  Tot=              1.2728
 Quadrupole moment (field-independent basis, Debye-Ang):
   XX=            -66.3859   YY=            -60.3689   ZZ=            -69.3782
   XY=              1.8608   XZ=             -0.5241   YZ=              0.0860

 Normal termination of Gaussian 16 at Wed Nov 29 01:29:58 2023.
