 Gaussian 16, Revision B.01,
 Gaussian 16:  ES64L-G16RevB.01 20-Dec-2017

 -------------------------
 #P B3LYP/6-311+g(d) force
 -------------------------

 -----
 DPGEN
 -----
 Symbolic Z-matrix:
 Charge =  0 Multiplicity = 2

                         Standard orientation:
 ---------------------------------------------------------------------
 Center     Atomic      Atomic             Coordinates (Angstroms)
 Number     Number       Type             X           Y           Z
 ---------------------------------------------------------------------
      1         11           0       -0.157688   -1.579063   -1.058601
      2         11           0        1.638699    1.062244    1.659833
      3         11           0       -3.416803   -0.847090   -0.710528
      4         11           0       -1.147910   -0.659081    1.961875
      5         11           0       -1.825505    2.152403   -0.227914
      6         11           0        2.842543   -1.861021   -0.155945
      7         11           0        2.066665    1.731607   -1.468720
 ---------------------------------------------------------------------

 SCF Done:  E(UB3LYP) =  -1136.12847866     A.U. after   21 cycles

 The electronic state is 2-A.
 Alpha  occ. eigenvalues --  -38.44318 -38.44223 -38.44078 -38.43863 -38.43803
 Alpha  occ. eigenvalues --  -38.43680 -38.43075  -2.20164  -2.20130  -2.19895
 Alpha  occ. eigenvalues --   -2.19661  -2.19626  -2.19561  -2.18977  -1.13838
 Alpha  occ. eigenvalues --   -1.13826  -1.13818  -1.13808  -1.13757  -1.13730
 Alpha  occ. eigenvalues --   -1.13580  -1.13556  -1.13505  -1.13345  -1.13332
 Alpha  occ. eigenvalues --   -1.13323  -1.13285  -1.13285  -1.13260  -1.13248
 Alpha  occ. eigenvalues --   -1.13206  -1.13174  -1.12675  -1.12632  -1.12603
 Alpha  occ. eigenvalues --   -0.18313  -0.13732  -0.11478  -0.11280
 Alpha virt. eigenvalues --   -0.05823  -0.05629  -0.04647  -0.03307  -0.02798
 Alpha virt. eigenvalues --   -0.02751  -0.01801  -0.01054  -0.00575  -0.00125
 Alpha virt. eigenvalues --    0.00194   0.00305   0.00438   0.00553   0.00712

  Beta  occ. eigenvalues --  -38.44305 -38.44143 -38.44039 -38.43854 -38.43804
  Beta  occ. eigenvalues --  -38.43640 -38.43060  -2.20139  -2.19985  -2.19822
  Beta  occ. eigenvalues --   -2.19648  -2.19629  -2.19492  -2.18951  -1.13811
  Beta  occ. eigenvalues --   -1.13797  -1.13791  -1.13728  -1.13653  -1.13623
  Beta  occ. eigenvalues --   -1.13534  -1.13504  -1.13452  -1.13329  -1.13324
  Beta  occ. eigenvalues --   -1.13315  -1.13280  -1.13277  -1.13259  -1.13190
  Beta  occ. eigenvalues --   -1.13141  -1.13130  -1.12648  -1.12608  -1.12587
  Beta  occ. eigenvalues --   -0.17594  -0.13527  -0.11147
  Beta virt. eigenvalues --   -0.07486  -0.05637  -0.05555  -0.04015  -0.03142
  Beta virt. eigenvalues --   -0.02187  -0.01885  -0.01705  -0.00970  -0.00241
  Beta virt. eigenvalues --   -0.00046   0.00228   0.00356   0.00598   0.00685

 Mulliken charges and spin densities:
               1          2
     1  Na  -0.700102   0.314584
     2  Na   0.305973   0.142362
     3  Na   0.903883   0.043667
     4  Na  -0.034491   0.186655
     5  Na  -0.583711   0.165561
     6  Na   0.203853  -0.016855
     7  Na  -0.095404   0.164026
 Sum of Mulliken charges =  -0.00000   1.00000

 Dipole moment (field-independent basis, Debye):
    X=             -0.4542    Y=             -0.0018    Z=             -0.1135  Tot=              0.4682
 Quadrupole moment (field-independent basis, Debye-Ang):
   XX=            -52.4997   YY=            -74.8213   ZZ=            -67.6797
   XY=              0.1766   XZ=              1.1088   YZ=             -2.4610

 Normal termination of Gaussian 16 at Sun Dec  3 14:29:19 2023.
