 Gaussian 16, Revision B.01,
 Gaussian 16:  ES64L-G16RevB.01 20-Dec-2017

 -------------------------
 #P B3LYP/6-311+g(d) force
 -------------------------

 -----
 DPGEN
 -----
 Symbolic Z-matrix:
 Charge =  0 Multiplicity = 2

                         Standard orientation:
 ---------------------------------------------------------------------
 Center     Atomic      Atomic             Coordinates (Angstroms)
 Number     Number       Type             X           Y           Z
 ---------------------------------------------------------------------
      1         11           0        2.563456    2.181897   -0.449308
      2         11           0       -3.258584    1.673409   -0.328686
      3         11           0        0.079365    3.776232    0.531570
      4         11           0        2.236309   -1.648579    1.917764
      5         11           0       -0.535663   -2.961085   -0.113020
      6         11           0        2.937783   -1.507857   -1.519919
      7         11           0       -4.022666   -1.514019   -0.038402
 ---------------------------------------------------------------------

 SCF Done:  E(UB3LYP) =  -1136.10908226     A.U. after   24 cycles

 The electronic state is 2-A.
 Alpha  occ. eigenvalues --  -38.45491 -38.45226 -38.44904 -38.44427 -38.44081
 Alpha  occ. eigenvalues --  -38.43977 -38.43274  -2.21255  -2.20979  -2.20662
 Alpha  occ. eigenvalues --   -2.20220  -2.19869  -2.19792  -2.19086  -1.14931
 Alpha  occ. eigenvalues --   -1.14902  -1.14890  -1.14660  -1.14644  -1.14610
 Alpha  occ. eigenvalues --   -1.14347  -1.14334  -1.14269  -1.13904  -1.13901
 Alpha  occ. eigenvalues --   -1.13860  -1.13535  -1.13526  -1.13517  -1.13463
 Alpha  occ. eigenvalues --   -1.13432  -1.13408  -1.12755  -1.12734  -1.12720
 Alpha  occ. eigenvalues --   -0.15998  -0.13637  -0.13024  -0.09923
 Alpha virt. eigenvalues --   -0.07262  -0.06466  -0.04147  -0.03258  -0.02872
 Alpha virt. eigenvalues --   -0.02478  -0.02208  -0.01868  -0.01513  -0.01193
 Alpha virt. eigenvalues --   -0.00366  -0.00017   0.00228   0.00398   0.00505

  Beta  occ. eigenvalues --  -38.45469 -38.45211 -38.44876 -38.44415 -38.44072
  Beta  occ. eigenvalues --  -38.43906 -38.43245  -2.21217  -2.20954  -2.20612
  Beta  occ. eigenvalues --   -2.20201  -2.19853  -2.19662  -2.19031  -1.14905
  Beta  occ. eigenvalues --   -1.14870  -1.14853  -1.14645  -1.14630  -1.14577
  Beta  occ. eigenvalues --   -1.14306  -1.14300  -1.14236  -1.13896  -1.13887
  Beta  occ. eigenvalues --   -1.13816  -1.13526  -1.13515  -1.13497  -1.13375
  Beta  occ. eigenvalues --   -1.13344  -1.13306  -1.12720  -1.12695  -1.12682
  Beta  occ. eigenvalues --   -0.15508  -0.13152  -0.12643
  Beta virt. eigenvalues --   -0.07236  -0.06548  -0.06212  -0.03854  -0.02984
  Beta virt. eigenvalues --   -0.02479  -0.02167  -0.02026  -0.01622  -0.01277
  Beta virt. eigenvalues --   -0.01039  -0.00016   0.00287   0.00337   0.00463

 Mulliken charges and spin densities:
               1          2
     1  Na  -0.305378   0.091201
     2  Na  -0.314793   0.091653
     3  Na   0.104891   0.124854
     4  Na   0.269765   0.174869
     5  Na  -0.584393   0.156300
     6  Na   0.370472   0.346427
     7  Na   0.459437   0.014696
 Sum of Mulliken charges =  -0.00000   1.00000

 Dipole moment (field-independent basis, Debye):
    X=             -0.2685    Y=             -0.9214    Z=              0.5574  Tot=              1.1098
 Quadrupole moment (field-independent basis, Debye-Ang):
   XX=            -66.1180   YY=            -67.5081   ZZ=            -69.4497
   XY=             -1.2166   XZ=              4.5139   YZ=              1.9768

 Normal termination of Gaussian 16 at Mon Dec  4 05:17:00 2023.
