 Gaussian 16, Revision B.01,
 Gaussian 16:  ES64L-G16RevB.01 20-Dec-2017

 -------------------------
 #P B3LYP/6-311+g(d) force
 -------------------------

 -----
 DPGEN
 -----
 Symbolic Z-matrix:
 Charge =  0 Multiplicity = 2

                         Standard orientation:
 ---------------------------------------------------------------------
 Center     Atomic      Atomic             Coordinates (Angstroms)
 Number     Number       Type             X           Y           Z
 ---------------------------------------------------------------------
      1         11           0        4.158542   -0.288941    0.187045
      2         11           0       -3.168660    1.310984    1.285219
      3         11           0       -4.352565   -1.023581   -0.837416
      4         11           0       -1.419883   -2.679599   -0.489001
      5         11           0        3.325958    2.659683   -0.714188
      6         11           0       -0.954350    3.506961    0.011744
      7         11           0        2.410958   -3.485507    0.556596
 ---------------------------------------------------------------------

 SCF Done:  E(UB3LYP) =  -1136.10721706     A.U. after   22 cycles

 The electronic state is 2-A.
 Alpha  occ. eigenvalues --  -38.45382 -38.44866 -38.44555 -38.44531 -38.44457
 Alpha  occ. eigenvalues --  -38.44275 -38.43952  -2.21117  -2.20662  -2.20378
 Alpha  occ. eigenvalues --   -2.20314  -2.20221  -2.20070  -2.19728  -1.14814
 Alpha  occ. eigenvalues --   -1.14802  -1.14739  -1.14347  -1.14331  -1.14300
 Alpha  occ. eigenvalues --   -1.14032  -1.14018  -1.14008  -1.14008  -1.13993
 Alpha  occ. eigenvalues --   -1.13962  -1.13886  -1.13880  -1.13847  -1.13721
 Alpha  occ. eigenvalues --   -1.13713  -1.13693  -1.13385  -1.13366  -1.13358
 Alpha  occ. eigenvalues --   -0.15633  -0.14107  -0.12897  -0.11003
 Alpha virt. eigenvalues --   -0.07309  -0.05206  -0.04562  -0.03469  -0.03330
 Alpha virt. eigenvalues --   -0.02378  -0.02343  -0.01915  -0.01320  -0.01073
 Alpha virt. eigenvalues --   -0.00566  -0.00290  -0.00011   0.00432   0.00559

  Beta  occ. eigenvalues --  -38.45381 -38.44848 -38.44520 -38.44512 -38.44419
  Beta  occ. eigenvalues --  -38.44221 -38.43887  -2.21120  -2.20635  -2.20300
  Beta  occ. eigenvalues --   -2.20297  -2.20154  -2.19973  -2.19607  -1.14821
  Beta  occ. eigenvalues --   -1.14809  -1.14711  -1.14331  -1.14314  -1.14255
  Beta  occ. eigenvalues --   -1.13990  -1.13989  -1.13978  -1.13965  -1.13952
  Beta  occ. eigenvalues --   -1.13921  -1.13842  -1.13836  -1.13791  -1.13656
  Beta  occ. eigenvalues --   -1.13649  -1.13621  -1.13303  -1.13288  -1.13277
  Beta  occ. eigenvalues --   -0.15153  -0.13336  -0.12002
  Beta virt. eigenvalues --   -0.07961  -0.07500  -0.04810  -0.04125  -0.03252
  Beta virt. eigenvalues --   -0.03032  -0.02159  -0.02109  -0.01605  -0.01099
  Beta virt. eigenvalues --   -0.00767  -0.00400  -0.00073   0.00169   0.00426

 Mulliken charges and spin densities:
               1          2
     1  Na  -0.437649   0.069043
     2  Na  -0.127423   0.045607
     3  Na   0.391259   0.162053
     4  Na  -0.490066   0.072239
     5  Na   0.405121   0.175998
     6  Na  -0.153483   0.160332
     7  Na   0.412240   0.314727
 Sum of Mulliken charges =  -0.00000   1.00000

 Dipole moment (field-independent basis, Debye):
    X=             -1.3309    Y=              0.0866    Z=             -0.2173  Tot=              1.3513
 Quadrupole moment (field-independent basis, Debye-Ang):
   XX=            -60.7404   YY=            -69.5410   ZZ=            -70.5401
   XY=              0.4608   XZ=              0.9641   YZ=             -2.3358

 Normal termination of Gaussian 16 at Sun Dec  3 23:33:37 2023.
