 Gaussian 16, Revision B.01,
 Gaussian 16:  ES64L-G16RevB.01 20-Dec-2017

 -------------------------
 #P B3LYP/6-311+g(d) force
 -------------------------

 -----
 DPGEN
 -----
 Symbolic Z-matrix:
 Charge =  0 Multiplicity = 2

                         Standard orientation:
 ---------------------------------------------------------------------
 Center     Atomic      Atomic             Coordinates (Angstroms)
 Number     Number       Type             X           Y           Z
 ---------------------------------------------------------------------
      1         11           0        4.493545    0.640281    0.532630
      2         11           0       -4.794903   -0.631782   -1.009530
      3         11           0        1.235863    2.721957    0.169830
      4         11           0       -1.493505    2.102724   -0.750692
      5         11           0       -3.547146   -0.699552    1.665670
      6         11           0        0.673638   -2.021587    0.206614
      7         11           0        3.432508   -2.112042   -0.814522
 ---------------------------------------------------------------------

 SCF Done:  E(UB3LYP) =  -1136.10684435     A.U. after   19 cycles

 The electronic state is 2-A.
 Alpha  occ. eigenvalues --  -38.45350 -38.44984 -38.44487 -38.44279 -38.43872
 Alpha  occ. eigenvalues --  -38.43555 -38.42960  -2.21156  -2.20807  -2.20320
 Alpha  occ. eigenvalues --   -2.20103  -2.19732  -2.19384  -2.18783  -1.14901
 Alpha  occ. eigenvalues --   -1.14807  -1.14789  -1.14445  -1.14445  -1.14425
 Alpha  occ. eigenvalues --   -1.14034  -1.13955  -1.13929  -1.13756  -1.13736
 Alpha  occ. eigenvalues --   -1.13727  -1.13406  -1.13375  -1.13368  -1.13107
 Alpha  occ. eigenvalues --   -1.13045  -1.13014  -1.12447  -1.12441  -1.12419
 Alpha  occ. eigenvalues --   -0.16171  -0.14572  -0.11978  -0.10861
 Alpha virt. eigenvalues --   -0.06726  -0.05448  -0.04637  -0.03585  -0.03131
 Alpha virt. eigenvalues --   -0.02471  -0.02016  -0.01386  -0.00982  -0.00895
 Alpha virt. eigenvalues --   -0.00398  -0.00055   0.00338   0.00431   0.00607

  Beta  occ. eigenvalues --  -38.45351 -38.44959 -38.44407 -38.44182 -38.43872
  Beta  occ. eigenvalues --  -38.43547 -38.42960  -2.21161  -2.20761  -2.20170
  Beta  occ. eigenvalues --   -2.19922  -2.19739  -2.19369  -2.18786  -1.14894
  Beta  occ. eigenvalues --   -1.14811  -1.14788  -1.14414  -1.14410  -1.14399
  Beta  occ. eigenvalues --   -1.13940  -1.13855  -1.13823  -1.13638  -1.13616
  Beta  occ. eigenvalues --   -1.13603  -1.13393  -1.13386  -1.13337  -1.13096
  Beta  occ. eigenvalues --   -1.13034  -1.13005  -1.12447  -1.12439  -1.12413
  Beta  occ. eigenvalues --   -0.15638  -0.14047  -0.11714
  Beta virt. eigenvalues --   -0.07318  -0.06537  -0.05113  -0.04173  -0.03348
  Beta virt. eigenvalues --   -0.02835  -0.02051  -0.01843  -0.01276  -0.00594
  Beta virt. eigenvalues --   -0.00490  -0.00337   0.00162   0.00394   0.00503

 Mulliken charges and spin densities:
               1          2
     1  Na   0.054761   0.506192
     2  Na   0.479786   0.151127
     3  Na  -0.531528   0.034442
     4  Na   0.342460  -0.051802
     5  Na  -0.050854  -0.001682
     6  Na  -0.994400   0.417217
     7  Na   0.699775  -0.055495
 Sum of Mulliken charges =  -0.00000   1.00000

 Dipole moment (field-independent basis, Debye):
    X=             -1.7549    Y=             -0.9268    Z=              0.0763  Tot=              1.9860
 Quadrupole moment (field-independent basis, Debye-Ang):
   XX=            -61.8675   YY=            -77.4952   ZZ=            -62.0797
   XY=             -0.2140   XZ=              2.8073   YZ=              1.1615

 Normal termination of Gaussian 16 at Sun Dec  3 16:45:22 2023.
