 Gaussian 16, Revision B.01,
 Gaussian 16:  ES64L-G16RevB.01 20-Dec-2017

 -------------------------
 #P B3LYP/6-311+g(d) force
 -------------------------

 -----
 DPGEN
 -----
 Symbolic Z-matrix:
 Charge =  0 Multiplicity = 2

                         Standard orientation:
 ---------------------------------------------------------------------
 Center     Atomic      Atomic             Coordinates (Angstroms)
 Number     Number       Type             X           Y           Z
 ---------------------------------------------------------------------
      1         11           0       -0.078843   -0.086176    1.726554
      2         11           0       -2.871785   -0.979405    0.180516
      3         11           0        2.803620   -1.213621    0.029833
      4         11           0        2.736639    2.187552    0.077511
      5         11           0       -2.418899    2.407971   -0.117110
      6         11           0       -0.160243   -2.650329   -0.371253
      7         11           0       -0.010489    0.334008   -1.526051
 ---------------------------------------------------------------------

 SCF Done:  E(UB3LYP) =  -1136.13145582     A.U. after   21 cycles

 The electronic state is 2-A.
 Alpha  occ. eigenvalues --  -38.44290 -38.44170 -38.44155 -38.44003 -38.43294
 Alpha  occ. eigenvalues --  -38.43011 -38.42612  -2.20076  -2.20063  -2.20023
 Alpha  occ. eigenvalues --   -2.19806  -2.19251  -2.18992  -2.18563  -1.13751
 Alpha  occ. eigenvalues --   -1.13750  -1.13743  -1.13729  -1.13726  -1.13699
 Alpha  occ. eigenvalues --   -1.13697  -1.13691  -1.13642  -1.13474  -1.13462
 Alpha  occ. eigenvalues --   -1.13450  -1.12972  -1.12869  -1.12863  -1.12701
 Alpha  occ. eigenvalues --   -1.12634  -1.12596  -1.12243  -1.12213  -1.12200
 Alpha  occ. eigenvalues --   -0.18861  -0.13571  -0.12098  -0.10250
 Alpha virt. eigenvalues --   -0.06099  -0.05804  -0.04232  -0.03212  -0.02466
 Alpha virt. eigenvalues --   -0.02025  -0.01894  -0.01413  -0.00752  -0.00198
 Alpha virt. eigenvalues --    0.00035   0.00312   0.00698   0.00753   0.00906

  Beta  occ. eigenvalues --  -38.44292 -38.44160 -38.44149 -38.44002 -38.43216
  Beta  occ. eigenvalues --  -38.42943 -38.42597  -2.20080  -2.20048  -2.20016
  Beta  occ. eigenvalues --   -2.19805  -2.19109  -2.18869  -2.18541  -1.13756
  Beta  occ. eigenvalues --   -1.13742  -1.13733  -1.13729  -1.13702  -1.13695
  Beta  occ. eigenvalues --   -1.13679  -1.13659  -1.13640  -1.13464  -1.13460
  Beta  occ. eigenvalues --   -1.13447  -1.12876  -1.12769  -1.12757  -1.12616
  Beta  occ. eigenvalues --   -1.12535  -1.12508  -1.12229  -1.12203  -1.12144
  Beta  occ. eigenvalues --   -0.18130  -0.13338  -0.11861
  Beta virt. eigenvalues --   -0.06364  -0.06066  -0.05741  -0.04226  -0.02447
  Beta virt. eigenvalues --   -0.01829  -0.01735  -0.01435  -0.00929  -0.00801
  Beta virt. eigenvalues --   -0.00211   0.00180   0.00347   0.00731   0.00780

 Mulliken charges and spin densities:
               1          2
     1  Na  -0.287626   0.523647
     2  Na   0.407192   0.131589
     3  Na   0.209165   0.031969
     4  Na  -0.072725  -0.075499
     5  Na  -0.078344  -0.077379
     6  Na   0.086275   0.098595
     7  Na  -0.263938   0.367077
 Sum of Mulliken charges =  -0.00000   1.00000

 Dipole moment (field-independent basis, Debye):
    X=              0.1180    Y=              0.4236    Z=              0.1074  Tot=              0.4527
 Quadrupole moment (field-independent basis, Debye-Ang):
   XX=            -52.3821   YY=            -61.7405   ZZ=            -77.2347
   XY=              0.1732   XZ=              0.0515   YZ=              0.8145

 Normal termination of Gaussian 16 at Thu Dec  7 01:44:55 2023.
