 Gaussian 16, Revision B.01,
 Gaussian 16:  ES64L-G16RevB.01 20-Dec-2017

 -------------------------
 #P B3LYP/6-311+g(d) force
 -------------------------

 -----
 DPGEN
 -----
 Symbolic Z-matrix:
 Charge =  0 Multiplicity = 2

                         Standard orientation:
 ---------------------------------------------------------------------
 Center     Atomic      Atomic             Coordinates (Angstroms)
 Number     Number       Type             X           Y           Z
 ---------------------------------------------------------------------
      1         11           0        2.182641   -2.361485   -0.367086
      2         11           0       -2.595618    1.522827   -0.434564
      3         11           0        0.508801    2.792039   -0.319301
      4         11           0        3.223940    0.749528    0.179151
      5         11           0       -0.298204   -0.956024   -1.383849
      6         11           0       -2.992348   -1.665062    0.366704
      7         11           0       -0.029211   -0.081824    1.958945
 ---------------------------------------------------------------------

 SCF Done:  E(UB3LYP) =  -1136.13028706     A.U. after   19 cycles

 The electronic state is 2-A.
 Alpha  occ. eigenvalues --  -38.44742 -38.44441 -38.43971 -38.43771 -38.43678
 Alpha  occ. eigenvalues --  -38.43363 -38.42836  -2.20558  -2.20281  -2.19838
 Alpha  occ. eigenvalues --   -2.19642  -2.19540  -2.19317  -2.18675  -1.14231
 Alpha  occ. eigenvalues --   -1.14211  -1.14209  -1.13951  -1.13943  -1.13924
 Alpha  occ. eigenvalues --   -1.13515  -1.13495  -1.13474  -1.13332  -1.13293
 Alpha  occ. eigenvalues --   -1.13273  -1.13246  -1.13177  -1.13172  -1.12994
 Alpha  occ. eigenvalues --   -1.12947  -1.12928  -1.12347  -1.12342  -1.12325
 Alpha  occ. eigenvalues --   -0.18454  -0.13745  -0.12125  -0.10409
 Alpha virt. eigenvalues --   -0.06421  -0.05624  -0.04355  -0.03379  -0.02585
 Alpha virt. eigenvalues --   -0.02213  -0.02092  -0.01331  -0.00675  -0.00210
 Alpha virt. eigenvalues --   -0.00051   0.00281   0.00621   0.00748   0.00792

  Beta  occ. eigenvalues --  -38.44741 -38.44432 -38.43955 -38.43681 -38.43667
  Beta  occ. eigenvalues --  -38.43318 -38.42832  -2.20557  -2.20267  -2.19811
  Beta  occ. eigenvalues --   -2.19523  -2.19477  -2.19235  -2.18670  -1.14227
  Beta  occ. eigenvalues --   -1.14212  -1.14201  -1.13940  -1.13937  -1.13894
  Beta  occ. eigenvalues --   -1.13492  -1.13467  -1.13451  -1.13271  -1.13219
  Beta  occ. eigenvalues --   -1.13168  -1.13164  -1.13145  -1.13122  -1.12930
  Beta  occ. eigenvalues --   -1.12887  -1.12872  -1.12344  -1.12340  -1.12302
  Beta  occ. eigenvalues --   -0.17789  -0.13538  -0.11846
  Beta virt. eigenvalues --   -0.06655  -0.06289  -0.05574  -0.04189  -0.02715
  Beta virt. eigenvalues --   -0.02041  -0.01865  -0.01333  -0.01135  -0.00694
  Beta virt. eigenvalues --   -0.00205   0.00136   0.00331   0.00712   0.00772

 Mulliken charges and spin densities:
               1          2
     1  Na   0.229312   0.072019
     2  Na   0.143565   0.086325
     3  Na  -0.290651  -0.005751
     4  Na   0.068548   0.006697
     5  Na  -0.166569   0.183169
     6  Na   0.331150   0.132179
     7  Na  -0.315355   0.525362
 Sum of Mulliken charges =  -0.00000   1.00000

 Dipole moment (field-independent basis, Debye):
    X=             -0.0836    Y=             -0.3267    Z=              0.2485  Tot=              0.4189
 Quadrupole moment (field-independent basis, Debye-Ang):
   XX=            -50.0179   YY=            -67.4944   ZZ=            -76.0244
   XY=              1.5846   XZ=              0.0371   YZ=             -1.4374

 Normal termination of Gaussian 16 at Thu Dec  7 16:57:17 2023.
