 Gaussian 16, Revision B.01,
 Gaussian 16:  ES64L-G16RevB.01 20-Dec-2017

 -------------------------
 #P B3LYP/6-311+g(d) force
 -------------------------

 -----
 DPGEN
 -----
 Symbolic Z-matrix:
 Charge =  0 Multiplicity = 2

                         Standard orientation:
 ---------------------------------------------------------------------
 Center     Atomic      Atomic             Coordinates (Angstroms)
 Number     Number       Type             X           Y           Z
 ---------------------------------------------------------------------
      1         11           0       -2.779478   -2.191252   -0.052960
      2         11           0        0.222496   -0.425598    2.115793
      3         11           0        3.616909   -1.463575   -0.045730
      4         11           0        2.644642    2.088094    0.340942
      5         11           0       -3.864379    1.171540    0.217233
      6         11           0       -0.500661    1.928567   -1.021541
      7         11           0        0.660472   -1.107776   -1.553737
 ---------------------------------------------------------------------

 SCF Done:  E(UB3LYP) =  -1136.11267323     A.U. after   33 cycles

 The electronic state is 2-A.
 Alpha  occ. eigenvalues --  -38.45740 -38.45114 -38.44987 -38.44395 -38.44203
 Alpha  occ. eigenvalues --  -38.43549 -38.42699  -2.21486  -2.20885  -2.20770
 Alpha  occ. eigenvalues --   -2.20153  -2.19998  -2.19426  -2.18551  -1.15162
 Alpha  occ. eigenvalues --   -1.15140  -1.15126  -1.14565  -1.14552  -1.14527
 Alpha  occ. eigenvalues --   -1.14448  -1.14407  -1.14379  -1.13828  -1.13813
 Alpha  occ. eigenvalues --   -1.13803  -1.13668  -1.13656  -1.13643  -1.13113
 Alpha  occ. eigenvalues --   -1.13068  -1.13041  -1.12256  -1.12209  -1.12166
 Alpha  occ. eigenvalues --   -0.17624  -0.13626  -0.11088  -0.10614
 Alpha virt. eigenvalues --   -0.07602  -0.06247  -0.03648  -0.03395  -0.03008
 Alpha virt. eigenvalues --   -0.02528  -0.02460  -0.01838  -0.00876  -0.00590
 Alpha virt. eigenvalues --   -0.00130   0.00086   0.00312   0.00476   0.00520

  Beta  occ. eigenvalues --  -38.45739 -38.45123 -38.44905 -38.44397 -38.44195
  Beta  occ. eigenvalues --  -38.43477 -38.42673  -2.21486  -2.20904  -2.20618
  Beta  occ. eigenvalues --   -2.20159  -2.19984  -2.19294  -2.18506  -1.15158
  Beta  occ. eigenvalues --   -1.15139  -1.15126  -1.14568  -1.14563  -1.14535
  Beta  occ. eigenvalues --   -1.14343  -1.14302  -1.14267  -1.13822  -1.13816
  Beta  occ. eigenvalues --   -1.13808  -1.13656  -1.13640  -1.13629  -1.13023
  Beta  occ. eigenvalues --   -1.12968  -1.12948  -1.12222  -1.12161  -1.12139
  Beta  occ. eigenvalues --   -0.16900  -0.13542  -0.10910
  Beta virt. eigenvalues --   -0.07421  -0.06766  -0.06127  -0.03413  -0.02976
  Beta virt. eigenvalues --   -0.02765  -0.02145  -0.01638  -0.01409  -0.00938
  Beta virt. eigenvalues --   -0.00324  -0.00054   0.00085   0.00410   0.00560

 Mulliken charges and spin densities:
               1          2
     1  Na   0.125148   0.029407
     2  Na  -0.254987   0.533953
     3  Na   0.330100  -0.019531
     4  Na   0.052213   0.067079
     5  Na   0.070927  -0.015653
     6  Na  -0.041908   0.076663
     7  Na  -0.281494   0.328081
 Sum of Mulliken charges =  -0.00000   1.00000

 Dipole moment (field-independent basis, Debye):
    X=             -0.2223    Y=             -0.0589    Z=              0.5510  Tot=              0.5971
 Quadrupole moment (field-independent basis, Debye-Ang):
   XX=            -43.0682   YY=            -73.7519   ZZ=            -75.5431
   XY=             -1.2399   XZ=              0.1558   YZ=              0.9728

 Normal termination of Gaussian 16 at Thu Dec  7 02:10:00 2023.
