 Gaussian 16, Revision B.01,
 Gaussian 16:  ES64L-G16RevB.01 20-Dec-2017

 -------------------------
 #P B3LYP/6-311+g(d) force
 -------------------------

 -----
 DPGEN
 -----
 Symbolic Z-matrix:
 Charge =  0 Multiplicity = 2

                         Standard orientation:
 ---------------------------------------------------------------------
 Center     Atomic      Atomic             Coordinates (Angstroms)
 Number     Number       Type             X           Y           Z
 ---------------------------------------------------------------------
      1         11           0        0.104708    1.772837   -0.807572
      2         11           0        2.714871    2.967855    0.385249
      3         11           0        3.152058   -0.339621    1.091233
      4         11           0        2.854711   -3.030564   -0.457102
      5         11           0       -0.254392   -1.528721   -0.440974
      6         11           0       -3.108157    0.829698   -0.830404
      7         11           0       -5.463800   -0.671484    1.059571
 ---------------------------------------------------------------------

 SCF Done:  E(UB3LYP) =  -1136.12394844     A.U. after   21 cycles

 The electronic state is 2-A.
 Alpha  occ. eigenvalues --  -38.44786 -38.44608 -38.44368 -38.43806 -38.43739
 Alpha  occ. eigenvalues --  -38.43505 -38.43144  -2.20591  -2.20437  -2.20221
 Alpha  occ. eigenvalues --   -2.19635  -2.19574  -2.19406  -2.18991  -1.14223
 Alpha  occ. eigenvalues --   -1.14221  -1.14207  -1.14144  -1.14131  -1.14011
 Alpha  occ. eigenvalues --   -1.13917  -1.13883  -1.13850  -1.13324  -1.13308
 Alpha  occ. eigenvalues --   -1.13292  -1.13248  -1.13225  -1.13205  -1.13093
 Alpha  occ. eigenvalues --   -1.13074  -1.13049  -1.12645  -1.12637  -1.12632
 Alpha  occ. eigenvalues --   -0.17092  -0.14212  -0.12385  -0.11391
 Alpha virt. eigenvalues --   -0.05854  -0.05484  -0.04428  -0.03976  -0.02751
 Alpha virt. eigenvalues --   -0.02454  -0.01873  -0.01689  -0.00825  -0.00625
 Alpha virt. eigenvalues --   -0.00212   0.00033   0.00268   0.00297   0.00686

  Beta  occ. eigenvalues --  -38.44671 -38.44574 -38.44339 -38.43804 -38.43737
  Beta  occ. eigenvalues --  -38.43477 -38.43131  -2.20377  -2.20377  -2.20168
  Beta  occ. eigenvalues --   -2.19642  -2.19571  -2.19358  -2.18968  -1.14100
  Beta  occ. eigenvalues --   -1.14088  -1.14077  -1.14075  -1.14067  -1.13968
  Beta  occ. eigenvalues --   -1.13881  -1.13847  -1.13807  -1.13333  -1.13316
  Beta  occ. eigenvalues --   -1.13241  -1.13240  -1.13223  -1.13203  -1.13059
  Beta  occ. eigenvalues --   -1.13045  -1.13003  -1.12629  -1.12621  -1.12611
  Beta  occ. eigenvalues --   -0.16563  -0.13369  -0.12219
  Beta virt. eigenvalues --   -0.07824  -0.05559  -0.05219  -0.03988  -0.03787
  Beta virt. eigenvalues --   -0.02358  -0.02193  -0.01574  -0.01343  -0.00651
  Beta virt. eigenvalues --   -0.00310   0.00048   0.00167   0.00362   0.00452

 Mulliken charges and spin densities:
               1          2
     1  Na  -0.870967  -0.045402
     2  Na   1.572342   0.296389
     3  Na  -0.484578   0.238724
     4  Na   0.798475   0.049939
     5  Na  -1.123029  -0.014259
     6  Na  -0.089606  -0.044597
     7  Na   0.197363   0.519207
 Sum of Mulliken charges =  -0.00000   1.00000

 Dipole moment (field-independent basis, Debye):
    X=              0.2269    Y=             -0.7612    Z=              0.0711  Tot=              0.7975
 Quadrupole moment (field-independent basis, Debye-Ang):
   XX=            -63.5449   YY=            -65.5441   ZZ=            -68.9179
   XY=             -0.9706   XZ=             -0.7940   YZ=             -0.5140

 Normal termination of Gaussian 16 at Wed Nov 29 03:51:37 2023.
