 Gaussian 16, Revision B.01,
 Gaussian 16:  ES64L-G16RevB.01 20-Dec-2017

 -------------------------
 #P B3LYP/6-311+g(d) force
 -------------------------

 -----
 DPGEN
 -----
 Symbolic Z-matrix:
 Charge =  0 Multiplicity = 2

                         Standard orientation:
 ---------------------------------------------------------------------
 Center     Atomic      Atomic             Coordinates (Angstroms)
 Number     Number       Type             X           Y           Z
 ---------------------------------------------------------------------
      1         11           0        1.596077    1.943474   -1.033580
      2         11           0       -1.085166   -1.904711   -1.074234
      3         11           0       -1.531623    2.257494   -0.453864
      4         11           0       -0.335639   -0.231540    1.592515
      5         11           0        2.849181   -0.111074    1.689544
      6         11           0        2.215375   -1.471574   -1.209037
      7         11           0       -3.708205   -0.482069    0.488656
 ---------------------------------------------------------------------

 SCF Done:  E(UB3LYP) =  -1136.12820059     A.U. after   22 cycles

 The electronic state is 2-A.
 Alpha  occ. eigenvalues --  -38.44938 -38.44475 -38.44149 -38.43708 -38.43531
 Alpha  occ. eigenvalues --  -38.43151 -38.42898  -2.20755  -2.20357  -2.20087
 Alpha  occ. eigenvalues --   -2.19589  -2.19404  -2.19016  -2.18748  -1.14432
 Alpha  occ. eigenvalues --   -1.14400  -1.14392  -1.14055  -1.13993  -1.13973
 Alpha  occ. eigenvalues --   -1.13790  -1.13722  -1.13707  -1.13275  -1.13235
 Alpha  occ. eigenvalues --   -1.13230  -1.13097  -1.13054  -1.13015  -1.12710
 Alpha  occ. eigenvalues --   -1.12672  -1.12653  -1.12428  -1.12418  -1.12368
 Alpha  occ. eigenvalues --   -0.18524  -0.14047  -0.11575  -0.11348
 Alpha virt. eigenvalues --   -0.06516  -0.04975  -0.04692  -0.03459  -0.02710
 Alpha virt. eigenvalues --   -0.02421  -0.02328  -0.00806  -0.00704  -0.00076
 Alpha virt. eigenvalues --    0.00209   0.00274   0.00364   0.00760   0.00813

  Beta  occ. eigenvalues --  -38.44936 -38.44413 -38.44097 -38.43674 -38.43503
  Beta  occ. eigenvalues --  -38.43125 -38.42897  -2.20751  -2.20245  -2.19993
  Beta  occ. eigenvalues --   -2.19530  -2.19355  -2.18970  -2.18748  -1.14424
  Beta  occ. eigenvalues --   -1.14401  -1.14389  -1.13964  -1.13919  -1.13896
  Beta  occ. eigenvalues --   -1.13717  -1.13666  -1.13627  -1.13223  -1.13194
  Beta  occ. eigenvalues --   -1.13182  -1.13067  -1.13016  -1.12968  -1.12679
  Beta  occ. eigenvalues --   -1.12632  -1.12622  -1.12429  -1.12409  -1.12364
  Beta  occ. eigenvalues --   -0.17877  -0.13856  -0.11238
  Beta virt. eigenvalues --   -0.07459  -0.06356  -0.04963  -0.04030  -0.03218
  Beta virt. eigenvalues --   -0.02228  -0.02089  -0.01553  -0.00693  -0.00345
  Beta virt. eigenvalues --   -0.00036   0.00244   0.00320   0.00518   0.00794

 Mulliken charges and spin densities:
               1          2
     1  Na  -0.321475   0.255872
     2  Na  -0.071710   0.181986
     3  Na  -0.113521  -0.042736
     4  Na  -1.390205   0.329442
     5  Na   0.787574   0.084072
     6  Na  -0.071801   0.176440
     7  Na   1.181138   0.014923
 Sum of Mulliken charges =  -0.00000   1.00000

 Dipole moment (field-independent basis, Debye):
    X=             -0.6158    Y=             -0.3071    Z=              0.2717  Tot=              0.7398
 Quadrupole moment (field-independent basis, Debye-Ang):
   XX=            -46.9438   YY=            -77.5945   ZZ=            -69.7801
   XY=              0.4031   XZ=             -0.6865   YZ=              0.7516

 Normal termination of Gaussian 16 at Tue Dec  5 10:38:21 2023.
