 Gaussian 16, Revision B.01,
 Gaussian 16:  ES64L-G16RevB.01 20-Dec-2017

 -------------------------
 #P B3LYP/6-311+g(d) force
 -------------------------

 -----
 DPGEN
 -----
 Symbolic Z-matrix:
 Charge =  0 Multiplicity = 2

                         Standard orientation:
 ---------------------------------------------------------------------
 Center     Atomic      Atomic             Coordinates (Angstroms)
 Number     Number       Type             X           Y           Z
 ---------------------------------------------------------------------
      1         11           0        0.032585   -0.582175    1.980792
      2         11           0       -3.128259    0.046224   -0.148429
      3         11           0       -0.854430   -2.551203   -0.339343
      4         11           0       -0.187233    0.449681   -1.659633
      5         11           0       -0.645686    2.786687    0.498013
      6         11           0        2.459739    1.567806   -0.278926
      7         11           0        2.323284   -1.717019   -0.052472
 ---------------------------------------------------------------------

 SCF Done:  E(UB3LYP) =  -1136.13826938     A.U. after   18 cycles

 The electronic state is 2-A.
 Alpha  occ. eigenvalues --  -38.43838 -38.43555 -38.43542 -38.43482 -38.43384
 Alpha  occ. eigenvalues --  -38.43314 -38.43130  -2.19675  -2.19476  -2.19415
 Alpha  occ. eigenvalues --   -2.19366  -2.19285  -2.19238  -2.19139  -1.13360
 Alpha  occ. eigenvalues --   -1.13332  -1.13316  -1.13184  -1.13134  -1.13117
 Alpha  occ. eigenvalues --   -1.13104  -1.13080  -1.13073  -1.13053  -1.13027
 Alpha  occ. eigenvalues --   -1.12992  -1.12975  -1.12939  -1.12915  -1.12910
 Alpha  occ. eigenvalues --   -1.12896  -1.12833  -1.12804  -1.12760  -1.12753
 Alpha  occ. eigenvalues --   -0.19079  -0.12940  -0.12812  -0.10933
 Alpha virt. eigenvalues --   -0.05387  -0.04911  -0.04756  -0.03237  -0.03088
 Alpha virt. eigenvalues --   -0.02554  -0.01352  -0.00997  -0.00183  -0.00072
 Alpha virt. eigenvalues --    0.00016   0.00372   0.00871   0.00926   0.00944

  Beta  occ. eigenvalues --  -38.43835 -38.43543 -38.43476 -38.43455 -38.43379
  Beta  occ. eigenvalues --  -38.43303 -38.43066  -2.19672  -2.19395  -2.19358
  Beta  occ. eigenvalues --   -2.19316  -2.19279  -2.19221  -2.19025  -1.13350
  Beta  occ. eigenvalues --   -1.13325  -1.13309  -1.13118  -1.13097  -1.13068
  Beta  occ. eigenvalues --   -1.13052  -1.13043  -1.13020  -1.13004  -1.12990
  Beta  occ. eigenvalues --   -1.12978  -1.12955  -1.12913  -1.12897  -1.12888
  Beta  occ. eigenvalues --   -1.12852  -1.12824  -1.12730  -1.12679  -1.12670
  Beta  occ. eigenvalues --   -0.18337  -0.12679  -0.12580
  Beta virt. eigenvalues --   -0.06998  -0.05373  -0.04893  -0.04673  -0.02448
  Beta virt. eigenvalues --   -0.02319  -0.01498  -0.01279  -0.00923  -0.00190
  Beta virt. eigenvalues --   -0.00110   0.00133   0.00398   0.00905   0.00929

 Mulliken charges and spin densities:
               1          2
     1  Na  -0.607448   0.689021
     2  Na   0.119593  -0.069860
     3  Na   0.301686  -0.046702
     4  Na  -0.325100   0.426105
     5  Na   0.016059   0.036230
     6  Na   0.224036  -0.024526
     7  Na   0.271174  -0.010269
 Sum of Mulliken charges =  -0.00000   1.00000

 Dipole moment (field-independent basis, Debye):
    X=             -0.2201    Y=              0.1061    Z=              0.1627  Tot=              0.2936
 Quadrupole moment (field-independent basis, Debye-Ang):
   XX=            -58.2999   YY=            -62.8924   ZZ=            -72.9061
   XY=             -0.3314   XZ=             -0.5869   YZ=              2.0444

 Normal termination of Gaussian 16 at Thu Dec  7 16:23:32 2023.
