 Gaussian 16, Revision B.01,
 Gaussian 16:  ES64L-G16RevB.01 20-Dec-2017

 -------------------------
 #P B3LYP/6-311+g(d) force
 -------------------------

 -----
 DPGEN
 -----
 Symbolic Z-matrix:
 Charge =  0 Multiplicity = 2

                         Standard orientation:
 ---------------------------------------------------------------------
 Center     Atomic      Atomic             Coordinates (Angstroms)
 Number     Number       Type             X           Y           Z
 ---------------------------------------------------------------------
      1         11           0        0.059393    0.214310   -1.539234
      2         11           0        3.244902    1.192724    0.081150
      3         11           0       -1.353662   -2.494252   -0.636983
      4         11           0       -3.279483    0.512427   -0.054083
      5         11           0        2.363955   -1.881882    0.003460
      6         11           0       -0.561701   -0.371504    2.309568
      7         11           0       -0.473404    2.828177   -0.163877
 ---------------------------------------------------------------------

 SCF Done:  E(UB3LYP) =  -1136.13150587     A.U. after   19 cycles

 The electronic state is 2-A.
 Alpha  occ. eigenvalues --  -38.44741 -38.44355 -38.44094 -38.43733 -38.43270
 Alpha  occ. eigenvalues --  -38.43235 -38.43166  -2.20545  -2.20154  -2.19922
 Alpha  occ. eigenvalues --   -2.19570  -2.19263  -2.19079  -2.19022  -1.14221
 Alpha  occ. eigenvalues --   -1.14200  -1.14187  -1.13839  -1.13821  -1.13787
 Alpha  occ. eigenvalues --   -1.13571  -1.13548  -1.13543  -1.13250  -1.13235
 Alpha  occ. eigenvalues --   -1.13203  -1.13036  -1.12949  -1.12876  -1.12746
 Alpha  occ. eigenvalues --   -1.12728  -1.12695  -1.12680  -1.12667  -1.12645
 Alpha  occ. eigenvalues --   -0.18272  -0.13242  -0.12004  -0.10843
 Alpha virt. eigenvalues --   -0.06265  -0.05168  -0.04296  -0.03339  -0.02882
 Alpha virt. eigenvalues --   -0.02638  -0.01929  -0.01095  -0.00424  -0.00363
 Alpha virt. eigenvalues --   -0.00077   0.00323   0.00696   0.00782   0.00847

  Beta  occ. eigenvalues --  -38.44739 -38.44356 -38.43990 -38.43731 -38.43231
  Beta  occ. eigenvalues --  -38.43214 -38.43148  -2.20544  -2.20158  -2.19728
  Beta  occ. eigenvalues --   -2.19569  -2.19163  -2.19073  -2.18993  -1.14203
  Beta  occ. eigenvalues --   -1.14194  -1.14190  -1.13843  -1.13814  -1.13790
  Beta  occ. eigenvalues --   -1.13440  -1.13415  -1.13405  -1.13249  -1.13217
  Beta  occ. eigenvalues --   -1.13206  -1.12977  -1.12885  -1.12803  -1.12719
  Beta  occ. eigenvalues --   -1.12710  -1.12681  -1.12661  -1.12630  -1.12629
  Beta  occ. eigenvalues --   -0.17574  -0.13077  -0.11773
  Beta virt. eigenvalues --   -0.06881  -0.06141  -0.05186  -0.04238  -0.02634
  Beta virt. eigenvalues --   -0.02052  -0.01836  -0.01635  -0.01038  -0.00446
  Beta virt. eigenvalues --   -0.00400   0.00114   0.00359   0.00814   0.00852

 Mulliken charges and spin densities:
               1          2
     1  Na   0.077476   0.208868
     2  Na  -0.032654  -0.019441
     3  Na   0.182421   0.036732
     4  Na   0.239461   0.038755
     5  Na   0.119863   0.000944
     6  Na  -0.634863   0.769007
     7  Na   0.048296  -0.034866
 Sum of Mulliken charges =  -0.00000   1.00000

 Dipole moment (field-independent basis, Debye):
    X=             -0.1491    Y=              0.1111    Z=              0.2829  Tot=              0.3386
 Quadrupole moment (field-independent basis, Debye-Ang):
   XX=            -52.6717   YY=            -66.7047   ZZ=            -74.3319
   XY=              0.4361   XZ=              1.3034   YZ=              1.2720

 Normal termination of Gaussian 16 at Fri Dec  8 04:47:47 2023.
