 Gaussian 16, Revision B.01,
 Gaussian 16:  ES64L-G16RevB.01 20-Dec-2017

 -------------------------
 #P B3LYP/6-311+g(d) force
 -------------------------

 -----
 DPGEN
 -----
 Symbolic Z-matrix:
 Charge =  0 Multiplicity = 2

                         Standard orientation:
 ---------------------------------------------------------------------
 Center     Atomic      Atomic             Coordinates (Angstroms)
 Number     Number       Type             X           Y           Z
 ---------------------------------------------------------------------
      1         11           0        1.080638    0.011774    1.884660
      2         11           0       -2.041890   -0.422922    2.313602
      3         11           0        0.284396   -1.324652   -0.752776
      4         11           0       -1.452779    1.976600   -0.292867
      5         11           0        3.450806   -1.751685   -0.429109
      6         11           0        1.686542    2.761042   -0.902095
      7         11           0       -3.007713   -1.250158   -1.821415
 ---------------------------------------------------------------------

 SCF Done:  E(UB3LYP) =  -1136.12323780     A.U. after   23 cycles

 The electronic state is 2-A.
 Alpha  occ. eigenvalues --  -38.44950 -38.44521 -38.44338 -38.43760 -38.43274
 Alpha  occ. eigenvalues --  -38.43256 -38.43200  -2.20799  -2.20432  -2.20133
 Alpha  occ. eigenvalues --   -2.19561  -2.19201  -2.19109  -2.18995  -1.14503
 Alpha  occ. eigenvalues --   -1.14438  -1.14390  -1.14173  -1.14059  -1.14019
 Alpha  occ. eigenvalues --   -1.13798  -1.13782  -1.13742  -1.13249  -1.13212
 Alpha  occ. eigenvalues --   -1.13195  -1.12938  -1.12860  -1.12815  -1.12791
 Alpha  occ. eigenvalues --   -1.12784  -1.12737  -1.12664  -1.12634  -1.12619
 Alpha  occ. eigenvalues --   -0.18095  -0.12851  -0.12282  -0.11501
 Alpha virt. eigenvalues --   -0.05674  -0.05239  -0.04681  -0.03350  -0.03009
 Alpha virt. eigenvalues --   -0.02605  -0.01829  -0.01155  -0.00910   0.00059
 Alpha virt. eigenvalues --    0.00127   0.00215   0.00351   0.00522   0.00705

  Beta  occ. eigenvalues --  -38.44870 -38.44467 -38.44284 -38.43760 -38.43259
  Beta  occ. eigenvalues --  -38.43246 -38.43188  -2.20655  -2.20338  -2.20032
  Beta  occ. eigenvalues --   -2.19561  -2.19175  -2.19093  -2.18973  -1.14386
  Beta  occ. eigenvalues --   -1.14344  -1.14290  -1.14117  -1.13970  -1.13946
  Beta  occ. eigenvalues --   -1.13723  -1.13712  -1.13681  -1.13247  -1.13212
  Beta  occ. eigenvalues --   -1.13196  -1.12906  -1.12839  -1.12798  -1.12771
  Beta  occ. eigenvalues --   -1.12763  -1.12729  -1.12646  -1.12619  -1.12607
  Beta  occ. eigenvalues --   -0.17337  -0.12636  -0.11216
  Beta virt. eigenvalues --   -0.08264  -0.05499  -0.04914  -0.04264  -0.03019
  Beta virt. eigenvalues --   -0.02448  -0.02077  -0.01661  -0.00891  -0.00616
  Beta virt. eigenvalues --    0.00165   0.00218   0.00358   0.00396   0.00685

 Mulliken charges and spin densities:
               1          2
     1  Na   0.223939   0.281616
     2  Na   0.227367   0.147646
     3  Na  -2.429038   0.342197
     4  Na  -0.081526   0.320243
     5  Na   0.898036   0.056544
     6  Na  -0.024230  -0.073420
     7  Na   1.185452  -0.074825
 Sum of Mulliken charges =  -0.00000   1.00000

 Dipole moment (field-independent basis, Debye):
    X=             -0.2805    Y=             -0.3262    Z=              0.3575  Tot=              0.5593
 Quadrupole moment (field-independent basis, Debye-Ang):
   XX=            -53.6872   YY=            -76.1347   ZZ=            -64.0236
   XY=              0.5734   XZ=             -1.3820   YZ=              0.0811

 Normal termination of Gaussian 16 at Wed Nov 29 03:24:38 2023.
