 Gaussian 16, Revision B.01,
 Gaussian 16:  ES64L-G16RevB.01 20-Dec-2017

 -------------------------
 #P B3LYP/6-311+g(d) force
 -------------------------

 -----
 DPGEN
 -----
 Symbolic Z-matrix:
 Charge =  0 Multiplicity = 2

                         Standard orientation:
 ---------------------------------------------------------------------
 Center     Atomic      Atomic             Coordinates (Angstroms)
 Number     Number       Type             X           Y           Z
 ---------------------------------------------------------------------
      1         11           0        0.805254   -1.312799    1.965109
      2         11           0        2.620443    1.632474    0.242820
      3         11           0        2.706260   -1.304700   -1.183926
      4         11           0       -2.225931   -2.038596    0.582356
      5         11           0       -0.112384    0.171528   -1.872311
      6         11           0       -2.832421    0.783889   -1.243486
      7         11           0       -0.961222    2.068204    1.509437
 ---------------------------------------------------------------------

 SCF Done:  E(UB3LYP) =  -1136.12348603     A.U. after   29 cycles

 The electronic state is 2-A.
 Alpha  occ. eigenvalues --  -38.45178 -38.44589 -38.44561 -38.43818 -38.43666
 Alpha  occ. eigenvalues --  -38.43292 -38.42713  -2.20990  -2.20421  -2.20408
 Alpha  occ. eigenvalues --   -2.19755  -2.19565  -2.19106  -2.18541  -1.14649
 Alpha  occ. eigenvalues --   -1.14618  -1.14611  -1.14121  -1.14115  -1.14075
 Alpha  occ. eigenvalues --   -1.14061  -1.14033  -1.13999  -1.13595  -1.13398
 Alpha  occ. eigenvalues --   -1.13381  -1.13194  -1.13182  -1.13164  -1.12779
 Alpha  occ. eigenvalues --   -1.12765  -1.12751  -1.12226  -1.12209  -1.12168
 Alpha  occ. eigenvalues --   -0.18300  -0.13642  -0.12244  -0.11032
 Alpha virt. eigenvalues --   -0.05791  -0.05390  -0.04792  -0.03653  -0.03053
 Alpha virt. eigenvalues --   -0.02851  -0.01572  -0.01020  -0.00542  -0.00122
 Alpha virt. eigenvalues --    0.00225   0.00326   0.00469   0.00559   0.00765

  Beta  occ. eigenvalues --  -38.45092 -38.44576 -38.44525 -38.43775 -38.43658
  Beta  occ. eigenvalues --  -38.43289 -38.42699  -2.20830  -2.20386  -2.20355
  Beta  occ. eigenvalues --   -2.19679  -2.19552  -2.19103  -2.18517  -1.14537
  Beta  occ. eigenvalues --   -1.14505  -1.14500  -1.14095  -1.14062  -1.14046
  Beta  occ. eigenvalues --   -1.14042  -1.13988  -1.13966  -1.13550  -1.13348
  Beta  occ. eigenvalues --   -1.13320  -1.13178  -1.13164  -1.13143  -1.12773
  Beta  occ. eigenvalues --   -1.12764  -1.12746  -1.12208  -1.12177  -1.12157
  Beta  occ. eigenvalues --   -0.17525  -0.13448  -0.10891
  Beta virt. eigenvalues --   -0.08245  -0.05484  -0.05040  -0.04392  -0.03135
  Beta virt. eigenvalues --   -0.02566  -0.02220  -0.01514  -0.00672  -0.00347
  Beta virt. eigenvalues --    0.00026   0.00348   0.00387   0.00534   0.00658

 Mulliken charges and spin densities:
               1          2
     1  Na  -0.343014   0.249369
     2  Na   0.000587   0.147664
     3  Na   0.832316   0.003297
     4  Na  -0.242726  -0.134014
     5  Na  -0.938296   0.295132
     6  Na   0.847387   0.142286
     7  Na  -0.156254   0.296266
 Sum of Mulliken charges =  -0.00000   1.00000

 Dipole moment (field-independent basis, Debye):
    X=              0.5356    Y=              0.5290    Z=             -0.0356  Tot=              0.7537
 Quadrupole moment (field-independent basis, Debye-Ang):
   XX=            -55.6376   YY=            -70.4426   ZZ=            -70.9374
   XY=             -0.9268   XZ=             -0.2891   YZ=              9.0955

 Normal termination of Gaussian 16 at Sun Dec  3 20:50:59 2023.
