 Gaussian 16, Revision B.01,
 Gaussian 16:  ES64L-G16RevB.01 20-Dec-2017

 -------------------------
 #P B3LYP/6-311+g(d) force
 -------------------------

 -----
 DPGEN
 -----
 Symbolic Z-matrix:
 Charge =  0 Multiplicity = 2

                         Standard orientation:
 ---------------------------------------------------------------------
 Center     Atomic      Atomic             Coordinates (Angstroms)
 Number     Number       Type             X           Y           Z
 ---------------------------------------------------------------------
      1         11           0       -3.290182   -0.198517    0.398075
      2         11           0       -1.333199   -2.469470   -0.763116
      3         11           0        0.798518    0.391162   -1.564637
      4         11           0        1.744234   -2.112963    0.542596
      5         11           0        0.301146    0.482982    1.765143
      6         11           0       -1.393285    2.871876   -0.276665
      7         11           0        3.172767    1.034931   -0.101397
 ---------------------------------------------------------------------

 SCF Done:  E(UB3LYP) =  -1136.12757555     A.U. after   21 cycles

 The electronic state is 2-A.
 Alpha  occ. eigenvalues --  -38.44755 -38.44654 -38.43770 -38.43615 -38.43402
 Alpha  occ. eigenvalues --  -38.43341 -38.43025  -2.20641  -2.20451  -2.19567
 Alpha  occ. eigenvalues --   -2.19520  -2.19341  -2.19340  -2.18881  -1.14405
 Alpha  occ. eigenvalues --   -1.14274  -1.14251  -1.14132  -1.14123  -1.14080
 Alpha  occ. eigenvalues --   -1.13247  -1.13245  -1.13232  -1.13203  -1.13184
 Alpha  occ. eigenvalues --   -1.13144  -1.13053  -1.13010  -1.12980  -1.12963
 Alpha  occ. eigenvalues --   -1.12942  -1.12926  -1.12548  -1.12539  -1.12527
 Alpha  occ. eigenvalues --   -0.18677  -0.13425  -0.12221  -0.10612
 Alpha virt. eigenvalues --   -0.06388  -0.05210  -0.04379  -0.03350  -0.02798
 Alpha virt. eigenvalues --   -0.02289  -0.01895  -0.01144  -0.00500  -0.00206
 Alpha virt. eigenvalues --    0.00072   0.00305   0.00631   0.00770   0.00813

  Beta  occ. eigenvalues --  -38.44742 -38.44656 -38.43770 -38.43595 -38.43324
  Beta  occ. eigenvalues --  -38.43275 -38.43013  -2.20623  -2.20456  -2.19569
  Beta  occ. eigenvalues --   -2.19487  -2.19219  -2.19200  -2.18859  -1.14382
  Beta  occ. eigenvalues --   -1.14253  -1.14227  -1.14135  -1.14118  -1.14085
  Beta  occ. eigenvalues --   -1.13240  -1.13230  -1.13215  -1.13203  -1.13135
  Beta  occ. eigenvalues --   -1.13119  -1.12968  -1.12923  -1.12886  -1.12867
  Beta  occ. eigenvalues --   -1.12840  -1.12832  -1.12535  -1.12522  -1.12504
  Beta  occ. eigenvalues --   -0.17966  -0.13216  -0.11985
  Beta virt. eigenvalues --   -0.06710  -0.06319  -0.05151  -0.04291  -0.02643
  Beta virt. eigenvalues --   -0.02116  -0.01837  -0.01318  -0.01031  -0.00509
  Beta virt. eigenvalues --   -0.00121   0.00170   0.00365   0.00729   0.00825

 Mulliken charges and spin densities:
               1          2
     1  Na  -0.108563   0.013306
     2  Na  -0.102919  -0.024165
     3  Na  -0.038799   0.383461
     4  Na   0.052599   0.217631
     5  Na  -0.089063   0.308611
     6  Na  -0.045480  -0.006659
     7  Na   0.332225   0.107815
 Sum of Mulliken charges =  -0.00000   1.00000

 Dipole moment (field-independent basis, Debye):
    X=              0.1678    Y=              0.4291    Z=              0.2504  Tot=              0.5244
 Quadrupole moment (field-independent basis, Debye-Ang):
   XX=            -52.7414   YY=            -65.5743   ZZ=            -74.9271
   XY=             -0.0878   XZ=              0.4823   YZ=             -0.4452

 Normal termination of Gaussian 16 at Tue Dec  5 12:06:35 2023.
