 Gaussian 16, Revision B.01,
 Gaussian 16:  ES64L-G16RevB.01 20-Dec-2017

 -------------------------
 #P B3LYP/6-311+g(d) force
 -------------------------

 -----
 DPGEN
 -----
 Symbolic Z-matrix:
 Charge =  0 Multiplicity = 2

                         Standard orientation:
 ---------------------------------------------------------------------
 Center     Atomic      Atomic             Coordinates (Angstroms)
 Number     Number       Type             X           Y           Z
 ---------------------------------------------------------------------
      1         11           0       -1.965291   -3.082910   -0.243497
      2         11           0       -2.746502    3.021552    0.016829
      3         11           0        0.052564    2.869211    1.167144
      4         11           0        3.573007    1.915371   -0.778927
      5         11           0        4.081554   -1.187413   -0.552717
      6         11           0       -3.753646   -0.614628   -0.941665
      7         11           0        0.758314   -2.921183    1.332833
 ---------------------------------------------------------------------

 SCF Done:  E(UB3LYP) =  -1136.10670773     A.U. after   19 cycles

 The electronic state is 2-A.
 Alpha  occ. eigenvalues --  -38.45019 -38.44688 -38.44579 -38.44413 -38.44254
 Alpha  occ. eigenvalues --  -38.44236 -38.43873  -2.20794  -2.20479  -2.20383
 Alpha  occ. eigenvalues --   -2.20213  -2.20077  -2.20049  -2.19708  -1.14479
 Alpha  occ. eigenvalues --   -1.14460  -1.14439  -1.14136  -1.14123  -1.14116
 Alpha  occ. eigenvalues --   -1.14113  -1.14034  -1.14020  -1.13870  -1.13855
 Alpha  occ. eigenvalues --   -1.13835  -1.13761  -1.13719  -1.13718  -1.13690
 Alpha  occ. eigenvalues --   -1.13688  -1.13672  -1.13369  -1.13367  -1.13362
 Alpha  occ. eigenvalues --   -0.15638  -0.13840  -0.13426  -0.10910
 Alpha virt. eigenvalues --   -0.07277  -0.04778  -0.04653  -0.03726  -0.03442
 Alpha virt. eigenvalues --   -0.02099  -0.01879  -0.01689  -0.01349  -0.01202
 Alpha virt. eigenvalues --   -0.00762  -0.00126   0.00008   0.00407   0.00756

  Beta  occ. eigenvalues --  -38.45011 -38.44661 -38.44546 -38.44415 -38.44170
  Beta  occ. eigenvalues --  -38.44157 -38.43875  -2.20783  -2.20431  -2.20322
  Beta  occ. eigenvalues --   -2.20220  -2.19920  -2.19902  -2.19719  -1.14464
  Beta  occ. eigenvalues --   -1.14455  -1.14420  -1.14104  -1.14093  -1.14081
  Beta  occ. eigenvalues --   -1.14072  -1.13993  -1.13978  -1.13878  -1.13860
  Beta  occ. eigenvalues --   -1.13812  -1.13663  -1.13628  -1.13612  -1.13587
  Beta  occ. eigenvalues --   -1.13584  -1.13572  -1.13382  -1.13379  -1.13306
  Beta  occ. eigenvalues --   -0.15083  -0.13184  -0.12833
  Beta virt. eigenvalues --   -0.07698  -0.07298  -0.04355  -0.04146  -0.03535
  Beta virt. eigenvalues --   -0.03062  -0.01952  -0.01753  -0.01512  -0.01116
  Beta virt. eigenvalues --   -0.00862  -0.00518   0.00108   0.00248   0.00415

 Mulliken charges and spin densities:
               1          2
     1  Na   0.054672  -0.043779
     2  Na   0.306734  -0.043740
     3  Na  -0.487170   0.172302
     4  Na   0.215398   0.108079
     5  Na   0.054653   0.018713
     6  Na   0.157850   0.407147
     7  Na  -0.302137   0.381278
 Sum of Mulliken charges =  -0.00000   1.00000

 Dipole moment (field-independent basis, Debye):
    X=              0.8074    Y=              0.6126    Z=             -0.1393  Tot=              1.0231
 Quadrupole moment (field-independent basis, Debye-Ang):
   XX=            -63.7638   YY=            -66.6091   ZZ=            -71.4340
   XY=             -4.4265   XZ=              1.7808   YZ=             -0.6054

 Normal termination of Gaussian 16 at Mon Dec  4 03:21:32 2023.
