 Gaussian 16, Revision B.01,
 Gaussian 16:  ES64L-G16RevB.01 20-Dec-2017

 -------------------------
 #P B3LYP/6-311+g(d) force
 -------------------------

 -----
 DPGEN
 -----
 Symbolic Z-matrix:
 Charge =  0 Multiplicity = 2

                         Standard orientation:
 ---------------------------------------------------------------------
 Center     Atomic      Atomic             Coordinates (Angstroms)
 Number     Number       Type             X           Y           Z
 ---------------------------------------------------------------------
      1         11           0        2.845207   -1.697689    0.540460
      2         11           0       -0.273989   -0.265111    2.131954
      3         11           0        2.222834    2.261999   -0.353328
      4         11           0        0.378655    0.204018   -2.070738
      5         11           0       -1.454508    2.234733    0.632660
      6         11           0       -0.711573   -2.322047   -0.484849
      7         11           0       -3.006627   -0.415904   -0.396158
 ---------------------------------------------------------------------

 SCF Done:  E(UB3LYP) =  -1136.12951843     A.U. after   20 cycles

 The electronic state is 2-A.
 Alpha  occ. eigenvalues --  -38.44405 -38.44189 -38.44185 -38.43870 -38.43674
 Alpha  occ. eigenvalues --  -38.43217 -38.43033  -2.20305  -2.20090  -2.19954
 Alpha  occ. eigenvalues --   -2.19772  -2.19473  -2.19096  -2.18976  -1.13981
 Alpha  occ. eigenvalues --   -1.13954  -1.13910  -1.13772  -1.13737  -1.13705
 Alpha  occ. eigenvalues --   -1.13631  -1.13600  -1.13594  -1.13492  -1.13430
 Alpha  occ. eigenvalues --   -1.13406  -1.13164  -1.13121  -1.13103  -1.12802
 Alpha  occ. eigenvalues --   -1.12756  -1.12702  -1.12669  -1.12639  -1.12586
 Alpha  occ. eigenvalues --   -0.18663  -0.12873  -0.12135  -0.11727
 Alpha virt. eigenvalues --   -0.05570  -0.05225  -0.03948  -0.03609  -0.03302
 Alpha virt. eigenvalues --   -0.03177  -0.01514  -0.00998  -0.00219   0.00013
 Alpha virt. eigenvalues --    0.00141   0.00348   0.00724   0.00789   0.00899

  Beta  occ. eigenvalues --  -38.44318 -38.44174 -38.44112 -38.43864 -38.43669
  Beta  occ. eigenvalues --  -38.43204 -38.43018  -2.20145  -2.19949  -2.19935
  Beta  occ. eigenvalues --   -2.19763  -2.19467  -2.19076  -2.18954  -1.13875
  Beta  occ. eigenvalues --   -1.13841  -1.13792  -1.13676  -1.13633  -1.13609
  Beta  occ. eigenvalues --   -1.13607  -1.13586  -1.13583  -1.13487  -1.13428
  Beta  occ. eigenvalues --   -1.13374  -1.13146  -1.13116  -1.13103  -1.12775
  Beta  occ. eigenvalues --   -1.12739  -1.12686  -1.12652  -1.12611  -1.12555
  Beta  occ. eigenvalues --   -0.17876  -0.12634  -0.11834
  Beta virt. eigenvalues --   -0.07818  -0.05431  -0.05145  -0.03896  -0.02895
  Beta virt. eigenvalues --   -0.02456  -0.02311  -0.01384  -0.00906  -0.00105
  Beta virt. eigenvalues --    0.00051   0.00100   0.00380   0.00836   0.00898

 Mulliken charges and spin densities:
               1          2
     1  Na   0.042232   0.000465
     2  Na  -0.514348   0.504432
     3  Na   0.026198  -0.060909
     4  Na  -0.396973   0.374650
     5  Na   0.281904   0.095121
     6  Na   0.411085   0.118071
     7  Na   0.149902  -0.031830
 Sum of Mulliken charges =  -0.00000   1.00000

 Dipole moment (field-independent basis, Debye):
    X=              0.2948    Y=             -0.0087    Z=              0.1265  Tot=              0.3209
 Quadrupole moment (field-independent basis, Debye-Ang):
   XX=            -58.0699   YY=            -69.2161   ZZ=            -68.7806
   XY=             -0.3761   XZ=              1.9866   YZ=              0.0089

 Normal termination of Gaussian 16 at Sun Dec  3 12:49:34 2023.
