 Gaussian 16, Revision B.01,
 Gaussian 16:  ES64L-G16RevB.01 20-Dec-2017

 -------------------------
 #P B3LYP/6-311+g(d) force
 -------------------------

 -----
 DPGEN
 -----
 Symbolic Z-matrix:
 Charge =  0 Multiplicity = 2

                         Standard orientation:
 ---------------------------------------------------------------------
 Center     Atomic      Atomic             Coordinates (Angstroms)
 Number     Number       Type             X           Y           Z
 ---------------------------------------------------------------------
      1         11           0       -0.282794   -0.134776    1.953009
      2         11           0        2.974314   -1.040725    0.253910
      3         11           0       -2.899573   -0.420273    0.220757
      4         11           0        1.759665    2.012110    0.050556
      5         11           0       -1.230542    2.478534   -0.341723
      6         11           0        0.165343   -0.092191   -1.705394
      7         11           0       -0.486413   -2.802680   -0.431114
 ---------------------------------------------------------------------

 SCF Done:  E(UB3LYP) =  -1136.13565580     A.U. after   19 cycles

 The electronic state is 2-A.
 Alpha  occ. eigenvalues --  -38.43835 -38.43694 -38.43633 -38.43486 -38.43248
 Alpha  occ. eigenvalues --  -38.43244 -38.43094  -2.19664  -2.19589  -2.19577
 Alpha  occ. eigenvalues --   -2.19363  -2.19278  -2.19198  -2.19027  -1.13352
 Alpha  occ. eigenvalues --   -1.13343  -1.13330  -1.13304  -1.13254  -1.13229
 Alpha  occ. eigenvalues --   -1.13226  -1.13192  -1.13166  -1.13139  -1.13022
 Alpha  occ. eigenvalues --   -1.13005  -1.12971  -1.12908  -1.12903  -1.12881
 Alpha  occ. eigenvalues --   -1.12839  -1.12820  -1.12684  -1.12659  -1.12641
 Alpha  occ. eigenvalues --   -0.19281  -0.13098  -0.12668  -0.11123
 Alpha virt. eigenvalues --   -0.05448  -0.04778  -0.04603  -0.03306  -0.03051
 Alpha virt. eigenvalues --   -0.02665  -0.01376  -0.00981  -0.00152   0.00013
 Alpha virt. eigenvalues --    0.00102   0.00365   0.00901   0.00923   0.00982

  Beta  occ. eigenvalues --  -38.43831 -38.43686 -38.43547 -38.43473 -38.43241
  Beta  occ. eigenvalues --  -38.43169 -38.43085  -2.19661  -2.19576  -2.19421
  Beta  occ. eigenvalues --   -2.19342  -2.19190  -2.19141  -2.19013  -1.13343
  Beta  occ. eigenvalues --   -1.13311  -1.13309  -1.13301  -1.13226  -1.13212
  Beta  occ. eigenvalues --   -1.13139  -1.13102  -1.13086  -1.13066  -1.12983
  Beta  occ. eigenvalues --   -1.12968  -1.12961  -1.12881  -1.12836  -1.12814
  Beta  occ. eigenvalues --   -1.12793  -1.12761  -1.12665  -1.12643  -1.12618
  Beta  occ. eigenvalues --   -0.18536  -0.12827  -0.12384
  Beta virt. eigenvalues --   -0.07171  -0.05403  -0.04756  -0.04599  -0.02481
  Beta virt. eigenvalues --   -0.02258  -0.01601  -0.01282  -0.00905  -0.00161
  Beta virt. eigenvalues --    0.00037   0.00132   0.00385   0.00919   0.00931

 Mulliken charges and spin densities:
               1          2
     1  Na  -0.530020   0.645834
     2  Na   0.004045  -0.059421
     3  Na   0.338742   0.025927
     4  Na   0.159507   0.016848
     5  Na   0.256071   0.012063
     6  Na  -0.322622   0.449940
     7  Na   0.094277  -0.091191
 Sum of Mulliken charges =  -0.00000   1.00000

 Dipole moment (field-independent basis, Debye):
    X=              0.0333    Y=             -0.3351    Z=              0.2101  Tot=              0.3969
 Quadrupole moment (field-independent basis, Debye-Ang):
   XX=            -58.3302   YY=            -63.4026   ZZ=            -72.5937
   XY=             -0.8600   XZ=              1.0465   YZ=             -0.0699

 Normal termination of Gaussian 16 at Thu Dec  7 06:41:03 2023.
