 Gaussian 16, Revision B.01,
 Gaussian 16:  ES64L-G16RevB.01 20-Dec-2017

 -------------------------
 #P B3LYP/6-311+g(d) force
 -------------------------

 -----
 DPGEN
 -----
 Symbolic Z-matrix:
 Charge =  0 Multiplicity = 2

                         Standard orientation:
 ---------------------------------------------------------------------
 Center     Atomic      Atomic             Coordinates (Angstroms)
 Number     Number       Type             X           Y           Z
 ---------------------------------------------------------------------
      1         11           0        0.134593    0.157692   -1.638277
      2         11           0       -0.020569   -0.385078    2.091400
      3         11           0        2.138751    2.344384   -0.069332
      4         11           0       -3.019799   -0.419047   -0.023305
      5         11           0       -0.521153   -2.776742   -0.441062
      6         11           0       -1.563968    2.452974    0.026777
      7         11           0        2.852147   -1.374183    0.053799
 ---------------------------------------------------------------------

 SCF Done:  E(UB3LYP) =  -1136.13932379     A.U. after   18 cycles

 The electronic state is 2-A.
 Alpha  occ. eigenvalues --  -38.44075 -38.43780 -38.43676 -38.43662 -38.43449
 Alpha  occ. eigenvalues --  -38.43326 -38.43108  -2.19883  -2.19587  -2.19544
 Alpha  occ. eigenvalues --   -2.19537  -2.19313  -2.19201  -2.19093  -1.13560
 Alpha  occ. eigenvalues --   -1.13547  -1.13519  -1.13274  -1.13249  -1.13238
 Alpha  occ. eigenvalues --   -1.13221  -1.13212  -1.13204  -1.13191  -1.13167
 Alpha  occ. eigenvalues --   -1.13150  -1.13006  -1.12969  -1.12937  -1.12921
 Alpha  occ. eigenvalues --   -1.12857  -1.12820  -1.12766  -1.12715  -1.12709
 Alpha  occ. eigenvalues --   -0.18646  -0.12917  -0.12521  -0.10769
 Alpha virt. eigenvalues --   -0.05579  -0.05262  -0.04658  -0.03138  -0.02935
 Alpha virt. eigenvalues --   -0.02603  -0.01461  -0.01189  -0.00361  -0.00337
 Alpha virt. eigenvalues --   -0.00016   0.00362   0.00797   0.00863   0.00911

  Beta  occ. eigenvalues --  -38.44072 -38.43779 -38.43673 -38.43567 -38.43445
  Beta  occ. eigenvalues --  -38.43312 -38.43044  -2.19881  -2.19588  -2.19540
  Beta  occ. eigenvalues --   -2.19362  -2.19308  -2.19180  -2.18977  -1.13548
  Beta  occ. eigenvalues --   -1.13536  -1.13522  -1.13266  -1.13242  -1.13237
  Beta  occ. eigenvalues --   -1.13224  -1.13200  -1.13173  -1.13086  -1.13046
  Beta  occ. eigenvalues --   -1.13026  -1.12997  -1.12948  -1.12937  -1.12893
  Beta  occ. eigenvalues --   -1.12822  -1.12807  -1.12689  -1.12634  -1.12625
  Beta  occ. eigenvalues --   -0.17911  -0.12704  -0.12284
  Beta virt. eigenvalues --   -0.06828  -0.05571  -0.05231  -0.04615  -0.02351
  Beta virt. eigenvalues --   -0.02177  -0.01531  -0.01365  -0.01122  -0.00400
  Beta virt. eigenvalues --   -0.00397   0.00132   0.00388   0.00838   0.00876

 Mulliken charges and spin densities:
               1          2
     1  Na  -0.190009   0.428062
     2  Na  -0.568654   0.783627
     3  Na   0.041562  -0.093073
     4  Na   0.229604   0.015513
     5  Na   0.290083  -0.007273
     6  Na   0.095350  -0.053655
     7  Na   0.102065  -0.073201
 Sum of Mulliken charges =  -0.00000   1.00000

 Dipole moment (field-independent basis, Debye):
    X=              0.2932    Y=             -0.0365    Z=              0.1855  Tot=              0.3489
 Quadrupole moment (field-independent basis, Debye-Ang):
   XX=            -56.8889   YY=            -62.2128   ZZ=            -74.3091
   XY=              0.0405   XZ=              0.3660   YZ=              1.1537

 Normal termination of Gaussian 16 at Fri Dec  8 07:22:13 2023.
