 Gaussian 16, Revision B.01,
 Gaussian 16:  ES64L-G16RevB.01 20-Dec-2017

 -------------------------
 #P B3LYP/6-311+g(d) force
 -------------------------

 -----
 DPGEN
 -----
 Symbolic Z-matrix:
 Charge =  0 Multiplicity = 2

                         Standard orientation:
 ---------------------------------------------------------------------
 Center     Atomic      Atomic             Coordinates (Angstroms)
 Number     Number       Type             X           Y           Z
 ---------------------------------------------------------------------
      1         11           0        2.988688    0.781605    1.017400
      2         11           0        4.009622   -2.554769   -0.005001
      3         11           0       -2.517981   -1.010939   -0.292163
      4         11           0        1.365094    3.583585   -0.115704
      5         11           0       -5.763860   -0.584974    0.678667
      6         11           0        0.899858   -1.654194   -0.502832
      7         11           0       -0.981420    1.439687   -0.780368
 ---------------------------------------------------------------------

 SCF Done:  E(UB3LYP) =  -1136.12309833     A.U. after   19 cycles

 The electronic state is 2-A.
 Alpha  occ. eigenvalues --  -38.44704 -38.44685 -38.44201 -38.44188 -38.43885
 Alpha  occ. eigenvalues --  -38.43225 -38.43218  -2.20511  -2.20494  -2.20095
 Alpha  occ. eigenvalues --   -2.19994  -2.19760  -2.19114  -2.19051  -1.14195
 Alpha  occ. eigenvalues --   -1.14179  -1.14140  -1.14139  -1.14122  -1.14082
 Alpha  occ. eigenvalues --   -1.13810  -1.13757  -1.13736  -1.13671  -1.13655
 Alpha  occ. eigenvalues --   -1.13626  -1.13453  -1.13446  -1.13349  -1.12825
 Alpha  occ. eigenvalues --   -1.12768  -1.12746  -1.12719  -1.12706  -1.12694
 Alpha  occ. eigenvalues --   -0.17113  -0.14080  -0.12534  -0.11341
 Alpha virt. eigenvalues --   -0.06146  -0.05152  -0.04525  -0.04023  -0.02499
 Alpha virt. eigenvalues --   -0.02202  -0.02091  -0.01795  -0.01007  -0.00895
 Alpha virt. eigenvalues --   -0.00161   0.00126   0.00195   0.00391   0.00701

  Beta  occ. eigenvalues --  -38.44660 -38.44581 -38.44185 -38.44181 -38.43851
  Beta  occ. eigenvalues --  -38.43220 -38.43209  -2.20449  -2.20282  -2.20067
  Beta  occ. eigenvalues --   -2.19982  -2.19700  -2.19109  -2.19042  -1.14163
  Beta  occ. eigenvalues --   -1.14151  -1.14046  -1.13984  -1.13983  -1.13971
  Beta  occ. eigenvalues --   -1.13794  -1.13726  -1.13720  -1.13661  -1.13646
  Beta  occ. eigenvalues --   -1.13615  -1.13416  -1.13410  -1.13283  -1.12826
  Beta  occ. eigenvalues --   -1.12775  -1.12712  -1.12701  -1.12686  -1.12669
  Beta  occ. eigenvalues --   -0.16574  -0.13386  -0.12283
  Beta virt. eigenvalues --   -0.07668  -0.06009  -0.04783  -0.04089  -0.03839
  Beta virt. eigenvalues --   -0.02301  -0.01948  -0.01749  -0.01248  -0.00849
  Beta virt. eigenvalues --   -0.00553   0.00094   0.00248   0.00386   0.00499

 Mulliken charges and spin densities:
               1          2
     1  Na  -0.288472   0.214104
     2  Na   1.086424   0.094847
     3  Na   0.122791   0.216934
     4  Na   0.539090   0.042403
     5  Na   0.226120   0.488524
     6  Na  -0.886484   0.005609
     7  Na  -0.799469  -0.062422
 Sum of Mulliken charges =  -0.00000   1.00000

 Dipole moment (field-independent basis, Debye):
    X=              1.0210    Y=             -0.2532    Z=              0.1080  Tot=              1.0574
 Quadrupole moment (field-independent basis, Debye-Ang):
   XX=            -59.0644   YY=            -65.0633   ZZ=            -70.8795
   XY=             -5.6568   XZ=              0.3982   YZ=             -0.1581

 Normal termination of Gaussian 16 at Tue Nov 28 23:22:35 2023.
