 Gaussian 16, Revision B.01,
 Gaussian 16:  ES64L-G16RevB.01 20-Dec-2017

 -------------------------
 #P B3LYP/6-311+g(d) force
 -------------------------

 -----
 DPGEN
 -----
 Symbolic Z-matrix:
 Charge =  0 Multiplicity = 2

                         Standard orientation:
 ---------------------------------------------------------------------
 Center     Atomic      Atomic             Coordinates (Angstroms)
 Number     Number       Type             X           Y           Z
 ---------------------------------------------------------------------
      1         11           0        0.132314   -1.530742    1.630653
      2         11           0       -0.043165    0.082487   -1.873719
      3         11           0       -2.473264    0.572656    0.423618
      4         11           0        3.711645   -0.716877   -0.718630
      5         11           0       -0.771467    3.315699   -0.354067
      6         11           0        1.399530    1.034613    1.457444
      7         11           0       -1.955592   -2.757835   -0.565298
 ---------------------------------------------------------------------

 SCF Done:  E(UB3LYP) =  -1136.12952026     A.U. after   19 cycles

 The electronic state is 2-A.
 Alpha  occ. eigenvalues --  -38.44272 -38.44198 -38.43875 -38.43686 -38.43535
 Alpha  occ. eigenvalues --  -38.43533 -38.43300  -2.20067  -2.20030  -2.19760
 Alpha  occ. eigenvalues --   -2.19629  -2.19449  -2.19375  -2.19127  -1.13761
 Alpha  occ. eigenvalues --   -1.13700  -1.13699  -1.13694  -1.13687  -1.13651
 Alpha  occ. eigenvalues --   -1.13506  -1.13454  -1.13445  -1.13371  -1.13263
 Alpha  occ. eigenvalues --   -1.13229  -1.13094  -1.13079  -1.13033  -1.13030
 Alpha  occ. eigenvalues --   -1.13015  -1.13003  -1.12792  -1.12785  -1.12770
 Alpha  occ. eigenvalues --   -0.18403  -0.12662  -0.12341  -0.11263
 Alpha virt. eigenvalues --   -0.05789  -0.05227  -0.04251  -0.03439  -0.02956
 Alpha virt. eigenvalues --   -0.02796  -0.01613  -0.01359  -0.00453  -0.00080
 Alpha virt. eigenvalues --    0.00268   0.00313   0.00733   0.00745   0.00805

  Beta  occ. eigenvalues --  -38.44252 -38.44130 -38.43868 -38.43627 -38.43530
  Beta  occ. eigenvalues --  -38.43490 -38.43300  -2.19993  -2.19941  -2.19751
  Beta  occ. eigenvalues --   -2.19525  -2.19374  -2.19367  -2.19129  -1.13678
  Beta  occ. eigenvalues --   -1.13674  -1.13657  -1.13631  -1.13604  -1.13600
  Beta  occ. eigenvalues --   -1.13451  -1.13422  -1.13406  -1.13370  -1.13193
  Beta  occ. eigenvalues --   -1.13152  -1.13049  -1.13032  -1.13014  -1.13008
  Beta  occ. eigenvalues --   -1.12978  -1.12964  -1.12794  -1.12777  -1.12772
  Beta  occ. eigenvalues --   -0.17652  -0.12460  -0.12155
  Beta virt. eigenvalues --   -0.07357  -0.05502  -0.05158  -0.04087  -0.02872
  Beta virt. eigenvalues --   -0.02464  -0.01851  -0.01422  -0.01299  -0.00227
  Beta virt. eigenvalues --   -0.00044   0.00334   0.00365   0.00750   0.00853

 Mulliken charges and spin densities:
               1          2
     1  Na   0.219254   0.133054
     2  Na  -0.393530   0.699983
     3  Na  -0.139169   0.168580
     4  Na  -0.166944  -0.012962
     5  Na   0.326334  -0.155375
     6  Na  -0.016695   0.193295
     7  Na   0.170750  -0.026575
 Sum of Mulliken charges =  -0.00000   1.00000

 Dipole moment (field-independent basis, Debye):
    X=             -0.0325    Y=             -0.1675    Z=             -0.4120  Tot=              0.4459
 Quadrupole moment (field-independent basis, Debye-Ang):
   XX=            -61.2759   YY=            -62.0091   ZZ=            -70.5495
   XY=              0.6190   XZ=             -1.7675   YZ=              1.6047

 Normal termination of Gaussian 16 at Tue Dec  5 10:30:18 2023.
