 Gaussian 16, Revision B.01,
 Gaussian 16:  ES64L-G16RevB.01 20-Dec-2017

 -------------------------
 #P B3LYP/6-311+g(d) force
 -------------------------

 -----
 DPGEN
 -----
 Symbolic Z-matrix:
 Charge =  0 Multiplicity = 2

                         Standard orientation:
 ---------------------------------------------------------------------
 Center     Atomic      Atomic             Coordinates (Angstroms)
 Number     Number       Type             X           Y           Z
 ---------------------------------------------------------------------
      1         11           0        2.913994   -2.555576   -0.246066
      2         11           0        0.303631    0.019827    0.047304
      3         11           0        3.584317    1.816825    0.130655
      4         11           0       -0.383348    3.497504   -0.315037
      5         11           0       -3.337910    1.164110    0.020798
      6         11           0       -1.721833   -2.197803   -1.860680
      7         11           0       -1.358851   -1.744888    2.223027
 ---------------------------------------------------------------------

 SCF Done:  E(UB3LYP) =  -1136.11293038     A.U. after   22 cycles

 The electronic state is 2-A.
 Alpha  occ. eigenvalues --  -38.45445 -38.45063 -38.45034 -38.44064 -38.44061
 Alpha  occ. eigenvalues --  -38.43731 -38.43088  -2.21156  -2.20781  -2.20777
 Alpha  occ. eigenvalues --   -2.19853  -2.19818  -2.19557  -2.18999  -1.14835
 Alpha  occ. eigenvalues --   -1.14807  -1.14798  -1.14468  -1.14457  -1.14434
 Alpha  occ. eigenvalues --   -1.14434  -1.14417  -1.14415  -1.13520  -1.13500
 Alpha  occ. eigenvalues --   -1.13491  -1.13479  -1.13472  -1.13439  -1.13237
 Alpha  occ. eigenvalues --   -1.13174  -1.13166  -1.12738  -1.12646  -1.12627
 Alpha  occ. eigenvalues --   -0.16768  -0.12571  -0.12157  -0.10213
 Alpha virt. eigenvalues --   -0.06910  -0.06106  -0.04924  -0.02759  -0.02517
 Alpha virt. eigenvalues --   -0.02275  -0.02177  -0.01834  -0.01299  -0.00964
 Alpha virt. eigenvalues --   -0.00359   0.00195   0.00289   0.00487   0.00534

  Beta  occ. eigenvalues --  -38.45451 -38.45071 -38.45033 -38.44059 -38.43982
  Beta  occ. eigenvalues --  -38.43632 -38.43077  -2.21166  -2.20794  -2.20778
  Beta  occ. eigenvalues --   -2.19815  -2.19701  -2.19374  -2.18983  -1.14837
  Beta  occ. eigenvalues --   -1.14816  -1.14804  -1.14477  -1.14443  -1.14442
  Beta  occ. eigenvalues --   -1.14435  -1.14426  -1.14418  -1.13497  -1.13490
  Beta  occ. eigenvalues --   -1.13439  -1.13414  -1.13374  -1.13369  -1.13110
  Beta  occ. eigenvalues --   -1.13047  -1.13042  -1.12684  -1.12644  -1.12622
  Beta  occ. eigenvalues --   -0.16243  -0.12451  -0.11936
  Beta virt. eigenvalues --   -0.06840  -0.06184  -0.06067  -0.04624  -0.02424
  Beta virt. eigenvalues --   -0.02202  -0.02007  -0.01840  -0.01561  -0.01164
  Beta virt. eigenvalues --   -0.00660   0.00054   0.00263   0.00346   0.00519

 Mulliken charges and spin densities:
               1          2
     1  Na   0.428886   0.008044
     2  Na  -2.115468   0.481588
     3  Na   0.099494  -0.140246
     4  Na   0.484164  -0.161168
     5  Na   0.732691   0.140979
     6  Na   0.144560   0.422207
     7  Na   0.225673   0.248597
 Sum of Mulliken charges =  -0.00000   1.00000

 Dipole moment (field-independent basis, Debye):
    X=              0.6048    Y=              0.1083    Z=              0.0611  Tot=              0.6175
 Quadrupole moment (field-independent basis, Debye-Ang):
   XX=            -51.7580   YY=            -60.7589   ZZ=            -77.8338
   XY=             -2.9399   XZ=             -0.3490   YZ=             -0.1272

 Normal termination of Gaussian 16 at Sat Dec  9 05:53:50 2023.
