 Gaussian 16, Revision B.01,
 Gaussian 16:  ES64L-G16RevB.01 20-Dec-2017

 -------------------------
 #P B3LYP/6-311+g(d) force
 -------------------------

 -----
 DPGEN
 -----
 Symbolic Z-matrix:
 Charge =  0 Multiplicity = 2

                         Standard orientation:
 ---------------------------------------------------------------------
 Center     Atomic      Atomic             Coordinates (Angstroms)
 Number     Number       Type             X           Y           Z
 ---------------------------------------------------------------------
      1         11           0       -3.252077    0.161915   -0.429364
      2         11           0       -3.441841   -3.184235    0.181804
      3         11           0        3.764498   -1.404604    0.245341
      4         11           0       -2.394586    3.790552   -0.041228
      5         11           0        5.937767    0.561719   -0.305593
      6         11           0       -0.481418   -1.735680   -0.194329
      7         11           0       -0.132343    1.810332    0.543368
 ---------------------------------------------------------------------

 SCF Done:  E(UB3LYP) =  -1136.11997014     A.U. after   19 cycles

 The electronic state is 2-A.
 Alpha  occ. eigenvalues --  -38.44756 -38.44442 -38.44236 -38.44186 -38.43752
 Alpha  occ. eigenvalues --  -38.43601 -38.43519  -2.20605  -2.20292  -2.20062
 Alpha  occ. eigenvalues --   -2.20016  -2.19625  -2.19429  -2.19319  -1.14315
 Alpha  occ. eigenvalues --   -1.14303  -1.14185  -1.13977  -1.13961  -1.13952
 Alpha  occ. eigenvalues --   -1.13726  -1.13717  -1.13691  -1.13667  -1.13664
 Alpha  occ. eigenvalues --   -1.13630  -1.13316  -1.13298  -1.13215  -1.13198
 Alpha  occ. eigenvalues --   -1.13063  -1.13061  -1.12983  -1.12964  -1.12910
 Alpha  occ. eigenvalues --   -0.17018  -0.13333  -0.13172  -0.10606
 Alpha virt. eigenvalues --   -0.06148  -0.05594  -0.04512  -0.03907  -0.02614
 Alpha virt. eigenvalues --   -0.02336  -0.02138  -0.01771  -0.01103  -0.00987
 Alpha virt. eigenvalues --   -0.00276  -0.00028   0.00323   0.00437   0.00621

  Beta  occ. eigenvalues --  -38.44731 -38.44415 -38.44212 -38.44172 -38.43698
  Beta  occ. eigenvalues --  -38.43548 -38.43527  -2.20559  -2.20245  -2.20018
  Beta  occ. eigenvalues --   -2.19988  -2.19529  -2.19344  -2.19325  -1.14278
  Beta  occ. eigenvalues --   -1.14266  -1.14147  -1.13941  -1.13928  -1.13913
  Beta  occ. eigenvalues --   -1.13691  -1.13688  -1.13662  -1.13646  -1.13642
  Beta  occ. eigenvalues --   -1.13611  -1.13252  -1.13234  -1.13156  -1.13126
  Beta  occ. eigenvalues --   -1.13017  -1.13000  -1.12980  -1.12966  -1.12871
  Beta  occ. eigenvalues --   -0.16395  -0.13030  -0.12740
  Beta virt. eigenvalues --   -0.07185  -0.05971  -0.05098  -0.04176  -0.03548
  Beta virt. eigenvalues --   -0.02317  -0.02159  -0.02018  -0.01645  -0.00889
  Beta virt. eigenvalues --   -0.00512   0.00020   0.00163   0.00417   0.00588

 Mulliken charges and spin densities:
               1          2
     1  Na  -0.299586   0.355626
     2  Na   1.443595   0.249722
     3  Na  -0.731108  -0.153307
     4  Na   1.161437   0.143355
     5  Na   0.334510   0.269567
     6  Na  -0.930926   0.115444
     7  Na  -0.977923   0.019594
 Sum of Mulliken charges =  -0.00000   1.00000

 Dipole moment (field-independent basis, Debye):
    X=             -1.9725    Y=              0.5078    Z=              0.0785  Tot=              2.0384
 Quadrupole moment (field-independent basis, Debye-Ang):
   XX=            -70.0812   YY=            -55.0135   ZZ=            -72.8366
   XY=              4.8057   XZ=             -0.4772   YZ=             -1.8212

 Normal termination of Gaussian 16 at Wed Nov 29 02:50:30 2023.
