 Gaussian 16, Revision B.01,
 Gaussian 16:  ES64L-G16RevB.01 20-Dec-2017

 -------------------------
 #P B3LYP/6-311+g(d) force
 -------------------------

 -----
 DPGEN
 -----
 Symbolic Z-matrix:
 Charge =  0 Multiplicity = 2

                         Standard orientation:
 ---------------------------------------------------------------------
 Center     Atomic      Atomic             Coordinates (Angstroms)
 Number     Number       Type             X           Y           Z
 ---------------------------------------------------------------------
      1         11           0       -1.007726    3.149880   -0.155703
      2         11           0        3.325181   -2.229906   -0.268557
      3         11           0        4.529191    0.894011    0.066651
      4         11           0        1.197787    1.699645    0.160492
      5         11           0       -0.264721   -2.442102    0.281198
      6         11           0       -3.980527    1.176309    0.016627
      7         11           0       -3.799183   -2.247838   -0.100708
 ---------------------------------------------------------------------

 SCF Done:  E(UB3LYP) =  -1136.10923200     A.U. after   22 cycles

 The electronic state is 2-A.
 Alpha  occ. eigenvalues --  -38.45247 -38.45187 -38.44660 -38.44217 -38.44169
 Alpha  occ. eigenvalues --  -38.43959 -38.43751  -2.21023  -2.20965  -2.20554
 Alpha  occ. eigenvalues --   -2.20006  -2.19997  -2.19745  -2.19640  -1.14708
 Alpha  occ. eigenvalues --   -1.14680  -1.14672  -1.14641  -1.14614  -1.14591
 Alpha  occ. eigenvalues --   -1.14423  -1.14190  -1.14177  -1.13671  -1.13658
 Alpha  occ. eigenvalues --   -1.13655  -1.13648  -1.13645  -1.13624  -1.13419
 Alpha  occ. eigenvalues --   -1.13408  -1.13353  -1.13302  -1.13243  -1.13229
 Alpha  occ. eigenvalues --   -0.16438  -0.14231  -0.12951  -0.10799
 Alpha virt. eigenvalues --   -0.07393  -0.04753  -0.04338  -0.03904  -0.03444
 Alpha virt. eigenvalues --   -0.02522  -0.01952  -0.01690  -0.00857  -0.00688
 Alpha virt. eigenvalues --   -0.00268  -0.00083   0.00210   0.00588   0.00666

  Beta  occ. eigenvalues --  -38.45236 -38.45143 -38.44636 -38.44217 -38.44094
  Beta  occ. eigenvalues --  -38.43902 -38.43737  -2.21009  -2.20886  -2.20514
  Beta  occ. eigenvalues --   -2.20000  -2.19866  -2.19641  -2.19618  -1.14705
  Beta  occ. eigenvalues --   -1.14674  -1.14615  -1.14588  -1.14564  -1.14526
  Beta  occ. eigenvalues --   -1.14376  -1.14166  -1.14145  -1.13676  -1.13665
  Beta  occ. eigenvalues --   -1.13629  -1.13557  -1.13550  -1.13536  -1.13348
  Beta  occ. eigenvalues --   -1.13337  -1.13281  -1.13273  -1.13230  -1.13218
  Beta  occ. eigenvalues --   -0.15881  -0.13578  -0.12525
  Beta virt. eigenvalues --   -0.07510  -0.07293  -0.04536  -0.03890  -0.03501
  Beta virt. eigenvalues --   -0.02842  -0.02334  -0.01828  -0.01590  -0.00789
  Beta virt. eigenvalues --   -0.00330  -0.00038   0.00323   0.00367   0.00629

 Mulliken charges and spin densities:
               1          2
     1  Na   1.247605  -0.227397
     2  Na   0.328923  -0.032809
     3  Na   0.792103   0.402428
     4  Na  -1.926819   0.284766
     5  Na  -0.412302   0.173151
     6  Na  -0.467503   0.270089
     7  Na   0.437993   0.129771
 Sum of Mulliken charges =  -0.00000   1.00000

 Dipole moment (field-independent basis, Debye):
    X=              0.1563    Y=             -0.2234    Z=             -0.1328  Tot=              0.3033
 Quadrupole moment (field-independent basis, Debye-Ang):
   XX=            -59.2536   YY=            -64.5807   ZZ=            -73.5970
   XY=             -4.4212   XZ=             -0.1974   YZ=              0.8780

 Normal termination of Gaussian 16 at Mon Dec  4 03:08:02 2023.
