 Gaussian 16, Revision B.01,
 Gaussian 16:  ES64L-G16RevB.01 20-Dec-2017

 -------------------------
 #P B3LYP/6-311+g(d) force
 -------------------------

 -----
 DPGEN
 -----
 Symbolic Z-matrix:
 Charge =  0 Multiplicity = 2

                         Standard orientation:
 ---------------------------------------------------------------------
 Center     Atomic      Atomic             Coordinates (Angstroms)
 Number     Number       Type             X           Y           Z
 ---------------------------------------------------------------------
      1         11           0       -2.921899   -1.822519   -1.067915
      2         11           0       -1.407477    2.552063   -0.545807
      3         11           0       -1.675960    0.047527    1.601946
      4         11           0        1.504030    0.787109    2.024819
      5         11           0        0.478569   -1.954414    0.648427
      6         11           0        0.448623    1.054827   -1.584691
      7         11           0        3.574114   -0.664592   -1.076779
 ---------------------------------------------------------------------

 SCF Done:  E(UB3LYP) =  -1136.11816928     A.U. after   21 cycles

 The electronic state is 2-A.
 Alpha  occ. eigenvalues --  -38.44823 -38.44418 -38.44373 -38.43634 -38.43606
 Alpha  occ. eigenvalues --  -38.43308 -38.43030  -2.20702  -2.20204  -2.20158
 Alpha  occ. eigenvalues --   -2.19591  -2.19571  -2.19207  -2.18956  -1.14404
 Alpha  occ. eigenvalues --   -1.14320  -1.14310  -1.13872  -1.13862  -1.13825
 Alpha  occ. eigenvalues --   -1.13820  -1.13800  -1.13777  -1.13557  -1.13333
 Alpha  occ. eigenvalues --   -1.13234  -1.13219  -1.13190  -1.13171  -1.12930
 Alpha  occ. eigenvalues --   -1.12884  -1.12784  -1.12564  -1.12549  -1.12528
 Alpha  occ. eigenvalues --   -0.18620  -0.13003  -0.12006  -0.11705
 Alpha virt. eigenvalues --   -0.05758  -0.05223  -0.04151  -0.03421  -0.02985
 Alpha virt. eigenvalues --   -0.02885  -0.01727  -0.01247  -0.00474   0.00124
 Alpha virt. eigenvalues --    0.00237   0.00318   0.00522   0.00625   0.00835

  Beta  occ. eigenvalues --  -38.44748 -38.44390 -38.44329 -38.43602 -38.43580
  Beta  occ. eigenvalues --  -38.43302 -38.43030  -2.20569  -2.20152  -2.20076
  Beta  occ. eigenvalues --   -2.19539  -2.19524  -2.19202  -2.18957  -1.14306
  Beta  occ. eigenvalues --   -1.14230  -1.14206  -1.13831  -1.13824  -1.13790
  Beta  occ. eigenvalues --   -1.13767  -1.13742  -1.13726  -1.13525  -1.13299
  Beta  occ. eigenvalues --   -1.13202  -1.13161  -1.13144  -1.13134  -1.12920
  Beta  occ. eigenvalues --   -1.12849  -1.12790  -1.12560  -1.12540  -1.12524
  Beta  occ. eigenvalues --   -0.17844  -0.12684  -0.11528
  Beta virt. eigenvalues --   -0.08124  -0.05479  -0.04728  -0.03979  -0.03182
  Beta virt. eigenvalues --   -0.02447  -0.02143  -0.01573  -0.00808  -0.00405
  Beta virt. eigenvalues --    0.00275   0.00314   0.00383   0.00620   0.00697

 Mulliken charges and spin densities:
               1          2
     1  Na  -0.071044   0.107626
     2  Na   0.136545   0.141661
     3  Na   0.550145   0.061526
     4  Na   0.121426   0.146107
     5  Na  -0.501814   0.340885
     6  Na  -0.584881   0.229331
     7  Na   0.349623  -0.027137
 Sum of Mulliken charges =  -0.00000   1.00000

 Dipole moment (field-independent basis, Debye):
    X=              0.5661    Y=             -0.3262    Z=              0.0962  Tot=              0.6604
 Quadrupole moment (field-independent basis, Debye-Ang):
   XX=            -55.9440   YY=            -73.0997   ZZ=            -65.7405
   XY=             -0.2805   XZ=              1.3307   YZ=              7.0359

 Normal termination of Gaussian 16 at Thu Dec  7 11:14:18 2023.
