 Gaussian 16, Revision B.01,
 Gaussian 16:  ES64L-G16RevB.01 20-Dec-2017

 -------------------------
 #P B3LYP/6-311+g(d) force
 -------------------------

 -----
 DPGEN
 -----
 Symbolic Z-matrix:
 Charge =  0 Multiplicity = 2

                         Standard orientation:
 ---------------------------------------------------------------------
 Center     Atomic      Atomic             Coordinates (Angstroms)
 Number     Number       Type             X           Y           Z
 ---------------------------------------------------------------------
      1         11           0       -0.990118   -2.365902   -0.183839
      2         11           0        2.715561   -2.028162    0.381061
      3         11           0        1.427035    0.419582    2.357785
      4         11           0        1.180440    3.001636   -0.511141
      5         11           0        1.650989    0.012245   -2.265505
      6         11           0       -3.696516   -0.851679   -0.191050
      7         11           0       -2.287392    1.812280    0.412690
 ---------------------------------------------------------------------

 SCF Done:  E(UB3LYP) =  -1136.12336416     A.U. after   19 cycles

 The electronic state is 2-A.
 Alpha  occ. eigenvalues --  -38.44673 -38.44486 -38.44413 -38.44268 -38.44047
 Alpha  occ. eigenvalues --  -38.43812 -38.43519  -2.20478  -2.20304  -2.20208
 Alpha  occ. eigenvalues --   -2.20067  -2.19861  -2.19675  -2.19306  -1.14138
 Alpha  occ. eigenvalues --   -1.14120  -1.14086  -1.13965  -1.13942  -1.13918
 Alpha  occ. eigenvalues --   -1.13900  -1.13885  -1.13851  -1.13759  -1.13749
 Alpha  occ. eigenvalues --   -1.13716  -1.13531  -1.13525  -1.13501  -1.13330
 Alpha  occ. eigenvalues --   -1.13320  -1.13311  -1.12981  -1.12967  -1.12949
 Alpha  occ. eigenvalues --   -0.17192  -0.13574  -0.12107  -0.11357
 Alpha virt. eigenvalues --   -0.06185  -0.05447  -0.04728  -0.03410  -0.03210
 Alpha virt. eigenvalues --   -0.03165  -0.01606  -0.01078  -0.00686  -0.00412
 Alpha virt. eigenvalues --   -0.00245   0.00347   0.00353   0.00585   0.00791

  Beta  occ. eigenvalues --  -38.44579 -38.44413 -38.44400 -38.44265 -38.44040
  Beta  occ. eigenvalues --  -38.43815 -38.43513  -2.20304  -2.20208  -2.20144
  Beta  occ. eigenvalues --   -2.20064  -2.19852  -2.19681  -2.19297  -1.14019
  Beta  occ. eigenvalues --   -1.14005  -1.13960  -1.13900  -1.13880  -1.13856
  Beta  occ. eigenvalues --   -1.13854  -1.13838  -1.13801  -1.13756  -1.13737
  Beta  occ. eigenvalues --   -1.13718  -1.13523  -1.13508  -1.13479  -1.13334
  Beta  occ. eigenvalues --   -1.13323  -1.13313  -1.12967  -1.12964  -1.12932
  Beta  occ. eigenvalues --   -0.16587  -0.13287  -0.11977
  Beta virt. eigenvalues --   -0.07453  -0.06110  -0.05229  -0.04358  -0.02930
  Beta virt. eigenvalues --   -0.02659  -0.02331  -0.01602  -0.01058  -0.00588
  Beta virt. eigenvalues --   -0.00350   0.00027   0.00423   0.00677   0.00762

 Mulliken charges and spin densities:
               1          2
     1  Na  -0.699102   0.134027
     2  Na   0.294941   0.273526
     3  Na   0.054284   0.305396
     4  Na   0.073100   0.091854
     5  Na   0.000902   0.283421
     6  Na   0.826003  -0.206913
     7  Na  -0.550128   0.118690
 Sum of Mulliken charges =  -0.00000   1.00000

 Dipole moment (field-independent basis, Debye):
    X=             -0.0723    Y=             -0.2490    Z=              0.0392  Tot=              0.2622
 Quadrupole moment (field-independent basis, Debye-Ang):
   XX=            -60.6642   YY=            -68.2866   ZZ=            -70.3006
   XY=             -1.4195   XZ=              0.1051   YZ=              0.5413

 Normal termination of Gaussian 16 at Mon Dec  4 01:53:32 2023.
