 Gaussian 16, Revision B.01,
 Gaussian 16:  ES64L-G16RevB.01 20-Dec-2017

 -------------------------
 #P B3LYP/6-311+g(d) force
 -------------------------

 -----
 DPGEN
 -----
 Symbolic Z-matrix:
 Charge =  0 Multiplicity = 2

                         Standard orientation:
 ---------------------------------------------------------------------
 Center     Atomic      Atomic             Coordinates (Angstroms)
 Number     Number       Type             X           Y           Z
 ---------------------------------------------------------------------
      1         11           0        1.867206    0.209114    1.380361
      2         11           0       -3.412291   -2.048266    0.273979
      3         11           0        3.995972   -1.468859   -0.204048
      4         11           0        0.410912   -1.938326   -1.064620
      5         11           0       -1.876536    0.530437    1.453488
      6         11           0       -1.617075    1.199667   -1.556253
      7         11           0        0.631811    3.516233   -0.282907
 ---------------------------------------------------------------------

 SCF Done:  E(UB3LYP) =  -1136.12307509     A.U. after   20 cycles

 The electronic state is 2-A.
 Alpha  occ. eigenvalues --  -38.44547 -38.44326 -38.44236 -38.43898 -38.43884
 Alpha  occ. eigenvalues --  -38.43768 -38.43759  -2.20346  -2.20128  -2.20029
 Alpha  occ. eigenvalues --   -2.19781  -2.19767  -2.19617  -2.19535  -1.14038
 Alpha  occ. eigenvalues --   -1.14005  -1.13978  -1.13828  -1.13807  -1.13720
 Alpha  occ. eigenvalues --   -1.13709  -1.13693  -1.13660  -1.13574  -1.13458
 Alpha  occ. eigenvalues --   -1.13430  -1.13385  -1.13360  -1.13343  -1.13308
 Alpha  occ. eigenvalues --   -1.13277  -1.13222  -1.13209  -1.13199  -1.13166
 Alpha  occ. eigenvalues --   -0.17585  -0.13509  -0.12054  -0.10409
 Alpha virt. eigenvalues --   -0.06476  -0.05673  -0.04632  -0.03180  -0.02824
 Alpha virt. eigenvalues --   -0.02326  -0.02114  -0.01762  -0.00500  -0.00350
 Alpha virt. eigenvalues --   -0.00095   0.00220   0.00359   0.00582   0.00652

  Beta  occ. eigenvalues --  -38.44553 -38.44280 -38.44230 -38.43848 -38.43837
  Beta  occ. eigenvalues --  -38.43772 -38.43723  -2.20358  -2.20043  -2.20020
  Beta  occ. eigenvalues --   -2.19695  -2.19675  -2.19551  -2.19543  -1.14042
  Beta  occ. eigenvalues --   -1.14013  -1.13983  -1.13771  -1.13736  -1.13702
  Beta  occ. eigenvalues --   -1.13688  -1.13656  -1.13644  -1.13508  -1.13397
  Beta  occ. eigenvalues --   -1.13361  -1.13320  -1.13296  -1.13283  -1.13263
  Beta  occ. eigenvalues --   -1.13227  -1.13216  -1.13192  -1.13177  -1.13167
  Beta  occ. eigenvalues --   -0.16927  -0.13356  -0.11842
  Beta virt. eigenvalues --   -0.06748  -0.06169  -0.05649  -0.04097  -0.02917
  Beta virt. eigenvalues --   -0.02365  -0.02099  -0.01673  -0.01388  -0.00429
  Beta virt. eigenvalues --   -0.00120   0.00117   0.00297   0.00536   0.00675

 Mulliken charges and spin densities:
               1          2
     1  Na  -0.127767   0.192302
     2  Na   0.426194  -0.081001
     3  Na   0.434728  -0.025219
     4  Na  -0.625308   0.233455
     5  Na  -0.230182   0.378955
     6  Na   0.129760   0.437040
     7  Na  -0.007424  -0.135531
 Sum of Mulliken charges =  -0.00000   1.00000

 Dipole moment (field-independent basis, Debye):
    X=              0.6335    Y=             -0.4724    Z=             -0.4268  Tot=              0.8981
 Quadrupole moment (field-independent basis, Debye-Ang):
   XX=            -53.4337   YY=            -64.4953   ZZ=            -74.4745
   XY=              2.1393   XZ=             -0.3957   YZ=              1.1214

 Normal termination of Gaussian 16 at Sun Dec  3 14:51:14 2023.
