 Gaussian 16, Revision B.01,
 Gaussian 16:  ES64L-G16RevB.01 20-Dec-2017

 -------------------------
 #P B3LYP/6-311+g(d) force
 -------------------------

 -----
 DPGEN
 -----
 Symbolic Z-matrix:
 Charge =  0 Multiplicity = 2

                         Standard orientation:
 ---------------------------------------------------------------------
 Center     Atomic      Atomic             Coordinates (Angstroms)
 Number     Number       Type             X           Y           Z
 ---------------------------------------------------------------------
      1         11           0        1.253958    2.687859    0.151185
      2         11           0        3.274667   -0.178158   -0.412317
      3         11           0       -0.503768   -0.219140   -1.534932
      4         11           0        1.089470   -2.621370   -0.175040
      5         11           0       -2.889913   -1.859721    0.342297
      6         11           0       -2.553747    2.128761   -0.357555
      7         11           0        0.329333    0.061769    1.986362
 ---------------------------------------------------------------------

 SCF Done:  E(UB3LYP) =  -1136.13336909     A.U. after   20 cycles

 The electronic state is 2-A.
 Alpha  occ. eigenvalues --  -38.44515 -38.44167 -38.44145 -38.43471 -38.43444
 Alpha  occ. eigenvalues --  -38.43402 -38.43254  -2.20285  -2.19975  -2.19955
 Alpha  occ. eigenvalues --   -2.19360  -2.19277  -2.19272  -2.19200  -1.13961
 Alpha  occ. eigenvalues --   -1.13937  -1.13925  -1.13646  -1.13644  -1.13635
 Alpha  occ. eigenvalues --   -1.13618  -1.13609  -1.13583  -1.13054  -1.13027
 Alpha  occ. eigenvalues --   -1.13004  -1.12980  -1.12941  -1.12934  -1.12922
 Alpha  occ. eigenvalues --   -1.12897  -1.12896  -1.12879  -1.12822  -1.12816
 Alpha  occ. eigenvalues --   -0.18265  -0.13023  -0.12295  -0.10403
 Alpha virt. eigenvalues --   -0.05948  -0.05673  -0.04511  -0.03138  -0.02755
 Alpha virt. eigenvalues --   -0.02283  -0.01826  -0.01430  -0.00605  -0.00417
 Alpha virt. eigenvalues --   -0.00029   0.00301   0.00712   0.00764   0.00863

  Beta  occ. eigenvalues --  -38.44510 -38.44158 -38.44135 -38.43439 -38.43393
  Beta  occ. eigenvalues --  -38.43378 -38.43207  -2.20278  -2.19958  -2.19940
  Beta  occ. eigenvalues --   -2.19266  -2.19264  -2.19189  -2.19113  -1.13947
  Beta  occ. eigenvalues --   -1.13933  -1.13918  -1.13638  -1.13623  -1.13618
  Beta  occ. eigenvalues --   -1.13596  -1.13595  -1.13575  -1.13003  -1.12976
  Beta  occ. eigenvalues --   -1.12933  -1.12924  -1.12902  -1.12895  -1.12876
  Beta  occ. eigenvalues --   -1.12860  -1.12833  -1.12817  -1.12766  -1.12752
  Beta  occ. eigenvalues --   -0.17582  -0.12782  -0.12043
  Beta virt. eigenvalues --   -0.06637  -0.05862  -0.05562  -0.04480  -0.02460
  Beta virt. eigenvalues --   -0.02044  -0.01702  -0.01356  -0.01268  -0.00634
  Beta virt. eigenvalues --   -0.00444   0.00121   0.00351   0.00774   0.00788

 Mulliken charges and spin densities:
               1          2
     1  Na   0.102685  -0.035266
     2  Na   0.021186   0.028701
     3  Na  -0.109189   0.316004
     4  Na   0.291686   0.071481
     5  Na   0.012961  -0.003435
     6  Na   0.001739  -0.077566
     7  Na  -0.321069   0.700081
 Sum of Mulliken charges =  -0.00000   1.00000

 Dipole moment (field-independent basis, Debye):
    X=             -0.3775    Y=             -0.0555    Z=              0.1210  Tot=              0.4003
 Quadrupole moment (field-independent basis, Debye-Ang):
   XX=            -53.3699   YY=            -63.0132   ZZ=            -75.8620
   XY=              0.8673   XZ=             -2.1412   YZ=             -1.0213

 Normal termination of Gaussian 16 at Tue Dec  5 10:27:51 2023.
