 Gaussian 16, Revision B.01,
 Gaussian 16:  ES64L-G16RevB.01 20-Dec-2017

 -------------------------
 #P B3LYP/6-311+g(d) force
 -------------------------

 -----
 DPGEN
 -----
 Symbolic Z-matrix:
 Charge =  0 Multiplicity = 2

                         Standard orientation:
 ---------------------------------------------------------------------
 Center     Atomic      Atomic             Coordinates (Angstroms)
 Number     Number       Type             X           Y           Z
 ---------------------------------------------------------------------
      1         11           0        0.101162   -0.276462   -1.573785
      2         11           0        1.628652   -2.557274    0.284679
      3         11           0       -0.583176    0.023837    1.710960
      4         11           0       -2.358151   -2.112868   -0.266040
      5         11           0       -2.539122    1.618937   -0.067823
      6         11           0        3.113779    0.496959   -0.020260
      7         11           0        0.636856    2.806872   -0.067731
 ---------------------------------------------------------------------

 SCF Done:  E(UB3LYP) =  -1136.13742864     A.U. after   22 cycles

 The electronic state is 2-A.
 Alpha  occ. eigenvalues --  -38.43959 -38.43908 -38.43901 -38.43811 -38.43266
 Alpha  occ. eigenvalues --  -38.43004 -38.42836  -2.19795  -2.19790  -2.19741
 Alpha  occ. eigenvalues --   -2.19649  -2.19140  -2.18983  -2.18836  -1.13509
 Alpha  occ. eigenvalues --   -1.13473  -1.13461  -1.13449  -1.13429  -1.13415
 Alpha  occ. eigenvalues --   -1.13405  -1.13404  -1.13403  -1.13327  -1.13311
 Alpha  occ. eigenvalues --   -1.13269  -1.12823  -1.12807  -1.12778  -1.12679
 Alpha  occ. eigenvalues --   -1.12613  -1.12589  -1.12521  -1.12464  -1.12451
 Alpha  occ. eigenvalues --   -0.18864  -0.13182  -0.12660  -0.10241
 Alpha virt. eigenvalues --   -0.05670  -0.05411  -0.04805  -0.03027  -0.02755
 Alpha virt. eigenvalues --   -0.01988  -0.01547  -0.01333  -0.00514  -0.00367
 Alpha virt. eigenvalues --    0.00039   0.00352   0.00814   0.00849   0.00880

  Beta  occ. eigenvalues --  -38.43949 -38.43901 -38.43899 -38.43803 -38.43261
  Beta  occ. eigenvalues --  -38.42929 -38.42769  -2.19783  -2.19778  -2.19741
  Beta  occ. eigenvalues --   -2.19637  -2.19134  -2.18844  -2.18714  -1.13497
  Beta  occ. eigenvalues --   -1.13459  -1.13432  -1.13425  -1.13419  -1.13415
  Beta  occ. eigenvalues --   -1.13408  -1.13396  -1.13385  -1.13317  -1.13285
  Beta  occ. eigenvalues --   -1.13266  -1.12819  -1.12788  -1.12764  -1.12586
  Beta  occ. eigenvalues --   -1.12512  -1.12491  -1.12433  -1.12377  -1.12359
  Beta  occ. eigenvalues --   -0.18166  -0.12939  -0.12399
  Beta virt. eigenvalues --   -0.06386  -0.05653  -0.05352  -0.04785  -0.02262
  Beta virt. eigenvalues --   -0.02000  -0.01459  -0.01255  -0.01003  -0.00561
  Beta virt. eigenvalues --   -0.00413   0.00179   0.00391   0.00833   0.00872

 Mulliken charges and spin densities:
               1          2
     1  Na  -0.331526   0.601571
     2  Na   0.086163  -0.060298
     3  Na  -0.377107   0.695565
     4  Na   0.128728  -0.096499
     5  Na   0.399601  -0.027024
     6  Na   0.029323  -0.041254
     7  Na   0.064819  -0.072060
 Sum of Mulliken charges =  -0.00000   1.00000

 Dipole moment (field-independent basis, Debye):
    X=             -0.1055    Y=             -0.2264    Z=              0.0167  Tot=              0.2504
 Quadrupole moment (field-independent basis, Debye-Ang):
   XX=            -55.0216   YY=            -59.7563   ZZ=            -76.9043
   XY=              0.2910   XZ=              1.4606   YZ=             -0.7310

 Normal termination of Gaussian 16 at Thu Dec  7 10:59:56 2023.
