 Gaussian 16, Revision B.01,
 Gaussian 16:  ES64L-G16RevB.01 20-Dec-2017

 -------------------------
 #P B3LYP/6-311+g(d) force
 -------------------------

 -----
 DPGEN
 -----
 Symbolic Z-matrix:
 Charge =  0 Multiplicity = 2

                         Standard orientation:
 ---------------------------------------------------------------------
 Center     Atomic      Atomic             Coordinates (Angstroms)
 Number     Number       Type             X           Y           Z
 ---------------------------------------------------------------------
      1         11           0       -2.388107   -1.693746   -0.034442
      2         11           0       -2.450777    2.008464   -0.013403
      3         11           0        2.990069   -0.170511    0.133927
      4         11           0        1.313727    2.623112   -0.159658
      5         11           0       -0.130298    0.133193   -1.616408
      6         11           0        0.767100   -2.689216   -0.396542
      7         11           0       -0.101714   -0.211295    2.086526
 ---------------------------------------------------------------------

 SCF Done:  E(UB3LYP) =  -1136.13947114     A.U. after   19 cycles

 The electronic state is 2-A.
 Alpha  occ. eigenvalues --  -38.43797 -38.43660 -38.43643 -38.43571 -38.43549
 Alpha  occ. eigenvalues --  -38.43223 -38.43065  -2.19609  -2.19553  -2.19521
 Alpha  occ. eigenvalues --   -2.19430  -2.19416  -2.19126  -2.19082  -1.13292
 Alpha  occ. eigenvalues --   -1.13273  -1.13249  -1.13237  -1.13208  -1.13204
 Alpha  occ. eigenvalues --   -1.13172  -1.13160  -1.13153  -1.13145  -1.13112
 Alpha  occ. eigenvalues --   -1.13082  -1.13078  -1.13069  -1.13015  -1.12860
 Alpha  occ. eigenvalues --   -1.12774  -1.12754  -1.12746  -1.12707  -1.12684
 Alpha  occ. eigenvalues --   -0.18905  -0.12954  -0.12620  -0.10890
 Alpha virt. eigenvalues --   -0.05405  -0.05128  -0.04700  -0.03154  -0.02956
 Alpha virt. eigenvalues --   -0.02664  -0.01331  -0.01157  -0.00271  -0.00198
 Alpha virt. eigenvalues --    0.00000   0.00368   0.00851   0.00892   0.00929

  Beta  occ. eigenvalues --  -38.43796 -38.43637 -38.43567 -38.43563 -38.43546
  Beta  occ. eigenvalues --  -38.43211 -38.43000  -2.19609  -2.19513  -2.19426
  Beta  occ. eigenvalues --   -2.19413  -2.19372  -2.19109  -2.18965  -1.13285
  Beta  occ. eigenvalues --   -1.13263  -1.13250  -1.13214  -1.13164  -1.13158
  Beta  occ. eigenvalues --   -1.13145  -1.13101  -1.13098  -1.13078  -1.13067
  Beta  occ. eigenvalues --   -1.13051  -1.13045  -1.13029  -1.13016  -1.12829
  Beta  occ. eigenvalues --   -1.12747  -1.12738  -1.12671  -1.12625  -1.12605
  Beta  occ. eigenvalues --   -0.18161  -0.12716  -0.12377
  Beta virt. eigenvalues --   -0.06928  -0.05420  -0.05078  -0.04677  -0.02338
  Beta virt. eigenvalues --   -0.02187  -0.01569  -0.01253  -0.01083  -0.00320
  Beta virt. eigenvalues --   -0.00248   0.00132   0.00386   0.00874   0.00910

 Mulliken charges and spin densities:
               1          2
     1  Na   0.268094  -0.029493
     2  Na   0.041796  -0.096665
     3  Na   0.147669   0.017982
     4  Na   0.121821  -0.076392
     5  Na  -0.282002   0.379583
     6  Na   0.297469   0.031105
     7  Na  -0.594848   0.773879
 Sum of Mulliken charges =  -0.00000   1.00000

 Dipole moment (field-independent basis, Debye):
    X=             -0.1905    Y=              0.1448    Z=              0.2242  Tot=              0.3279
 Quadrupole moment (field-independent basis, Debye-Ang):
   XX=            -58.3843   YY=            -61.5455   ZZ=            -73.7590
   XY=             -0.3609   XZ=             -0.0501   YZ=              0.7463

 Normal termination of Gaussian 16 at Thu Dec  7 08:07:29 2023.
