 Gaussian 16, Revision B.01,
 Gaussian 16:  ES64L-G16RevB.01 20-Dec-2017

 -------------------------
 #P B3LYP/6-311+g(d) force
 -------------------------

 -----
 DPGEN
 -----
 Symbolic Z-matrix:
 Charge =  0 Multiplicity = 2

                         Standard orientation:
 ---------------------------------------------------------------------
 Center     Atomic      Atomic             Coordinates (Angstroms)
 Number     Number       Type             X           Y           Z
 ---------------------------------------------------------------------
      1         11           0       -0.106259   -0.537958   -1.924459
      2         11           0       -2.763853    1.567470    0.209085
      3         11           0        1.609698   -2.370142    0.264692
      4         11           0        3.231678    0.272440    0.087810
      5         11           0        0.928794    2.685307   -0.457221
      6         11           0       -0.159015    0.109673    1.966343
      7         11           0       -2.741044   -1.726791   -0.146252
 ---------------------------------------------------------------------

 SCF Done:  E(UB3LYP) =  -1136.13368149     A.U. after   19 cycles

 The electronic state is 2-A.
 Alpha  occ. eigenvalues --  -38.44437 -38.44192 -38.44118 -38.43909 -38.43722
 Alpha  occ. eigenvalues --  -38.43263 -38.42892  -2.20287  -2.20015  -2.19944
 Alpha  occ. eigenvalues --   -2.19790  -2.19614  -2.19143  -2.18719  -1.13972
 Alpha  occ. eigenvalues --   -1.13945  -1.13935  -1.13706  -1.13690  -1.13660
 Alpha  occ. eigenvalues --   -1.13619  -1.13593  -1.13570  -1.13464  -1.13421
 Alpha  occ. eigenvalues --   -1.13409  -1.13289  -1.13251  -1.13233  -1.12819
 Alpha  occ. eigenvalues --   -1.12799  -1.12782  -1.12395  -1.12384  -1.12357
 Alpha  occ. eigenvalues --   -0.18444  -0.13551  -0.11840  -0.10938
 Alpha virt. eigenvalues --   -0.06102  -0.05463  -0.04059  -0.03591  -0.02914
 Alpha virt. eigenvalues --   -0.02608  -0.01827  -0.01155  -0.00368  -0.00226
 Alpha virt. eigenvalues --   -0.00058   0.00352   0.00691   0.00756   0.00848

  Beta  occ. eigenvalues --  -38.44436 -38.44188 -38.44114 -38.43830 -38.43643
  Beta  occ. eigenvalues --  -38.43254 -38.42882  -2.20288  -2.20010  -2.19940
  Beta  occ. eigenvalues --   -2.19643  -2.19469  -2.19131  -2.18704  -1.13975
  Beta  occ. eigenvalues --   -1.13939  -1.13923  -1.13705  -1.13670  -1.13654
  Beta  occ. eigenvalues --   -1.13602  -1.13586  -1.13568  -1.13367  -1.13317
  Beta  occ. eigenvalues --   -1.13303  -1.13193  -1.13150  -1.13125  -1.12815
  Beta  occ. eigenvalues --   -1.12781  -1.12757  -1.12384  -1.12364  -1.12344
  Beta  occ. eigenvalues --   -0.17707  -0.13336  -0.11598
  Beta virt. eigenvalues --   -0.07070  -0.05992  -0.05458  -0.04003  -0.02796
  Beta virt. eigenvalues --   -0.02124  -0.01742  -0.01626  -0.01093  -0.00426
  Beta virt. eigenvalues --   -0.00237   0.00089   0.00375   0.00778   0.00836

 Mulliken charges and spin densities:
               1          2
     1  Na  -0.233674   0.666409
     2  Na   0.023522  -0.017795
     3  Na   0.262150  -0.061047
     4  Na   0.034504  -0.022006
     5  Na  -0.071299  -0.021703
     6  Na  -0.213185   0.563949
     7  Na   0.197982  -0.107806
 Sum of Mulliken charges =  -0.00000   1.00000

 Dipole moment (field-independent basis, Debye):
    X=             -0.3066    Y=             -0.1360    Z=              0.0937  Tot=              0.3483
 Quadrupole moment (field-independent basis, Debye-Ang):
   XX=            -53.5693   YY=            -68.0797   ZZ=            -73.1490
   XY=             -0.0110   XZ=              0.1197   YZ=             -1.1313

 Normal termination of Gaussian 16 at Tue Dec  5 22:22:12 2023.
