 Gaussian 16, Revision B.01,
 Gaussian 16:  ES64L-G16RevB.01 20-Dec-2017

 -------------------------
 #P B3LYP/6-311+g(d) force
 -------------------------

 -----
 DPGEN
 -----
 Symbolic Z-matrix:
 Charge =  0 Multiplicity = 2

                         Standard orientation:
 ---------------------------------------------------------------------
 Center     Atomic      Atomic             Coordinates (Angstroms)
 Number     Number       Type             X           Y           Z
 ---------------------------------------------------------------------
      1         11           0       -1.294193   -2.290326   -1.150765
      2         11           0       -2.029665    2.567605   -0.473859
      3         11           0        0.364112   -0.865656    2.102023
      4         11           0        1.637116   -1.708228   -1.613017
      5         11           0        1.456609    1.955693   -1.581749
      6         11           0       -3.030428   -0.256949    1.036378
      7         11           0        2.896449    0.597860    1.680988
 ---------------------------------------------------------------------

 SCF Done:  E(UB3LYP) =  -1136.11973797     A.U. after   22 cycles

 The electronic state is 2-A.
 Alpha  occ. eigenvalues --  -38.45071 -38.44645 -38.44340 -38.44130 -38.43781
 Alpha  occ. eigenvalues --  -38.43677 -38.43572  -2.20944  -2.20484  -2.20125
 Alpha  occ. eigenvalues --   -2.19983  -2.19612  -2.19448  -2.19420  -1.14681
 Alpha  occ. eigenvalues --   -1.14580  -1.14554  -1.14167  -1.14110  -1.14079
 Alpha  occ. eigenvalues --   -1.13801  -1.13773  -1.13749  -1.13702  -1.13628
 Alpha  occ. eigenvalues --   -1.13593  -1.13293  -1.13279  -1.13253  -1.13125
 Alpha  occ. eigenvalues --   -1.13106  -1.13102  -1.13084  -1.13063  -1.13046
 Alpha  occ. eigenvalues --   -0.17621  -0.13119  -0.12465  -0.11929
 Alpha virt. eigenvalues --   -0.05569  -0.05315  -0.04989  -0.03763  -0.03380
 Alpha virt. eigenvalues --   -0.03126  -0.01295  -0.00673  -0.00614  -0.00224
 Alpha virt. eigenvalues --   -0.00119   0.00224   0.00353   0.00411   0.00704

  Beta  occ. eigenvalues --  -38.44989 -38.44601 -38.44295 -38.44084 -38.43773
  Beta  occ. eigenvalues --  -38.43677 -38.43563  -2.20795  -2.20408  -2.20041
  Beta  occ. eigenvalues --   -2.19899  -2.19596  -2.19450  -2.19405  -1.14570
  Beta  occ. eigenvalues --   -1.14480  -1.14447  -1.14094  -1.14063  -1.14024
  Beta  occ. eigenvalues --   -1.13737  -1.13717  -1.13694  -1.13643  -1.13562
  Beta  occ. eigenvalues --   -1.13539  -1.13275  -1.13270  -1.13247  -1.13125
  Beta  occ. eigenvalues --   -1.13108  -1.13083  -1.13081  -1.13057  -1.13027
  Beta  occ. eigenvalues --   -0.16880  -0.12873  -0.11607
  Beta virt. eigenvalues --   -0.08596  -0.05295  -0.04987  -0.04597  -0.03399
  Beta virt. eigenvalues --   -0.02814  -0.02514  -0.01190  -0.00565  -0.00350
  Beta virt. eigenvalues --   -0.00060   0.00025   0.00375   0.00410   0.00449

 Mulliken charges and spin densities:
               1          2
     1  Na   0.069649   0.012776
     2  Na   0.003722  -0.116347
     3  Na  -0.515587   0.504469
     4  Na  -0.102294   0.139908
     5  Na  -0.243816   0.401537
     6  Na   0.268429   0.110704
     7  Na   0.519898  -0.053046
 Sum of Mulliken charges =  -0.00000   1.00000

 Dipole moment (field-independent basis, Debye):
    X=              0.5895    Y=             -0.1371    Z=              0.2802  Tot=              0.6670
 Quadrupole moment (field-independent basis, Debye-Ang):
   XX=            -61.1514   YY=            -73.2550   ZZ=            -65.6732
   XY=              2.1560   XZ=             -0.7493   YZ=             -0.9782

 Normal termination of Gaussian 16 at Sun Dec  3 16:20:40 2023.
