 Gaussian 16, Revision B.01,
 Gaussian 16:  ES64L-G16RevB.01 20-Dec-2017

 -------------------------
 #P B3LYP/6-311+g(d) force
 -------------------------

 -----
 DPGEN
 -----
 Symbolic Z-matrix:
 Charge =  0 Multiplicity = 2

                         Standard orientation:
 ---------------------------------------------------------------------
 Center     Atomic      Atomic             Coordinates (Angstroms)
 Number     Number       Type             X           Y           Z
 ---------------------------------------------------------------------
      1         11           0       -3.195286    0.429980   -0.263215
      2         11           0       -0.072372   -0.103298    1.843392
      3         11           0       -0.549304    2.606848    0.304763
      4         11           0        2.435737   -1.875901    0.217898
      5         11           0       -1.581161   -2.342184   -0.032038
      6         11           0        0.272445   -0.086385   -1.840210
      7         11           0        2.689941    1.370941   -0.230590
 ---------------------------------------------------------------------

 SCF Done:  E(UB3LYP) =  -1136.13688358     A.U. after   19 cycles

 The electronic state is 2-A.
 Alpha  occ. eigenvalues --  -38.44328 -38.43871 -38.43754 -38.43542 -38.43372
 Alpha  occ. eigenvalues --  -38.43294 -38.42742  -2.20169  -2.19751  -2.19605
 Alpha  occ. eigenvalues --   -2.19489  -2.19340  -2.19173  -2.18635  -1.13840
 Alpha  occ. eigenvalues --   -1.13830  -1.13814  -1.13457  -1.13421  -1.13389
 Alpha  occ. eigenvalues --   -1.13276  -1.13267  -1.13235  -1.13166  -1.13123
 Alpha  occ. eigenvalues --   -1.13101  -1.13023  -1.13003  -1.12951  -1.12842
 Alpha  occ. eigenvalues --   -1.12835  -1.12798  -1.12333  -1.12292  -1.12256
 Alpha  occ. eigenvalues --   -0.18988  -0.13488  -0.12133  -0.10915
 Alpha virt. eigenvalues --   -0.05886  -0.05221  -0.04101  -0.03462  -0.02763
 Alpha virt. eigenvalues --   -0.02592  -0.01732  -0.01032  -0.00209  -0.00123
 Alpha virt. eigenvalues --    0.00015   0.00356   0.00771   0.00896   0.00937

  Beta  occ. eigenvalues --  -38.44324 -38.43864 -38.43748 -38.43466 -38.43288
  Beta  occ. eigenvalues --  -38.43286 -38.42733  -2.20164  -2.19742  -2.19598
  Beta  occ. eigenvalues --   -2.19351  -2.19183  -2.19166  -2.18622  -1.13841
  Beta  occ. eigenvalues --   -1.13817  -1.13804  -1.13445  -1.13406  -1.13374
  Beta  occ. eigenvalues --   -1.13265  -1.13248  -1.13228  -1.13076  -1.13024
  Beta  occ. eigenvalues --   -1.13003  -1.12926  -1.12901  -1.12843  -1.12823
  Beta  occ. eigenvalues --   -1.12805  -1.12783  -1.12319  -1.12260  -1.12250
  Beta  occ. eigenvalues --   -0.18246  -0.13242  -0.11862
  Beta virt. eigenvalues --   -0.07001  -0.05816  -0.05225  -0.04100  -0.02651
  Beta virt. eigenvalues --   -0.01976  -0.01634  -0.01525  -0.00971  -0.00266
  Beta virt. eigenvalues --   -0.00125   0.00118   0.00380   0.00840   0.00886

 Mulliken charges and spin densities:
               1          2
     1  Na  -0.007864  -0.022055
     2  Na  -0.331251   0.678037
     3  Na   0.175547  -0.053731
     4  Na   0.136473  -0.104350
     5  Na   0.167178  -0.101201
     6  Na  -0.366418   0.608293
     7  Na   0.226335  -0.004993
 Sum of Mulliken charges =  -0.00000   1.00000

 Dipole moment (field-independent basis, Debye):
    X=             -0.0008    Y=             -0.1106    Z=             -0.1095  Tot=              0.1557
 Quadrupole moment (field-independent basis, Debye-Ang):
   XX=            -53.6049   YY=            -66.5447   ZZ=            -73.4976
   XY=             -0.5282   XZ=              0.9336   YZ=             -0.3846

 Normal termination of Gaussian 16 at Thu Dec  7 10:54:42 2023.
