 Gaussian 16, Revision B.01,
 Gaussian 16:  ES64L-G16RevB.01 20-Dec-2017

 -------------------------
 #P B3LYP/6-311+g(d) force
 -------------------------

 -----
 DPGEN
 -----
 Symbolic Z-matrix:
 Charge =  0 Multiplicity = 2

                         Standard orientation:
 ---------------------------------------------------------------------
 Center     Atomic      Atomic             Coordinates (Angstroms)
 Number     Number       Type             X           Y           Z
 ---------------------------------------------------------------------
      1         11           0        2.534636   -1.791550    0.173155
      2         11           0       -0.275791    0.183877    2.184232
      3         11           0       -0.781026   -2.498475   -0.191073
      4         11           0        2.410318    1.770989   -0.238686
      5         11           0        0.312024   -0.051606   -1.518981
      6         11           0       -0.948358    2.669481   -0.115173
      7         11           0       -3.251803   -0.282717   -0.293474
 ---------------------------------------------------------------------

 SCF Done:  E(UB3LYP) =  -1136.13589385     A.U. after   18 cycles

 The electronic state is 2-A.
 Alpha  occ. eigenvalues --  -38.44050 -38.43753 -38.43720 -38.43645 -38.43354
 Alpha  occ. eigenvalues --  -38.43164 -38.43142  -2.19866  -2.19628  -2.19590
 Alpha  occ. eigenvalues --   -2.19496  -2.19217  -2.19201  -2.19087  -1.13535
 Alpha  occ. eigenvalues --   -1.13532  -1.13507  -1.13335  -1.13290  -1.13259
 Alpha  occ. eigenvalues --   -1.13247  -1.13235  -1.13215  -1.13181  -1.13152
 Alpha  occ. eigenvalues --   -1.13136  -1.12986  -1.12929  -1.12887  -1.12845
 Alpha  occ. eigenvalues --   -1.12833  -1.12788  -1.12734  -1.12716  -1.12687
 Alpha  occ. eigenvalues --   -0.18877  -0.12976  -0.12583  -0.10878
 Alpha virt. eigenvalues --   -0.05586  -0.05139  -0.04482  -0.03149  -0.02959
 Alpha virt. eigenvalues --   -0.02644  -0.01572  -0.01082  -0.00261  -0.00103
 Alpha virt. eigenvalues --   -0.00023   0.00339   0.00794   0.00894   0.00932

  Beta  occ. eigenvalues --  -38.44046 -38.43713 -38.43649 -38.43642 -38.43348
  Beta  occ. eigenvalues --  -38.43155 -38.43087  -2.19861  -2.19582  -2.19494
  Beta  occ. eigenvalues --   -2.19435  -2.19210  -2.19103  -2.19072  -1.13535
  Beta  occ. eigenvalues --   -1.13513  -1.13503  -1.13319  -1.13221  -1.13213
  Beta  occ. eigenvalues --   -1.13179  -1.13161  -1.13138  -1.13133  -1.13120
  Beta  occ. eigenvalues --   -1.13105  -1.12940  -1.12913  -1.12856  -1.12833
  Beta  occ. eigenvalues --   -1.12779  -1.12725  -1.12707  -1.12678  -1.12669
  Beta  occ. eigenvalues --   -0.18149  -0.12751  -0.12336
  Beta virt. eigenvalues --   -0.06912  -0.05545  -0.05122  -0.04460  -0.02380
  Beta virt. eigenvalues --   -0.02143  -0.01559  -0.01487  -0.01018  -0.00310
  Beta virt. eigenvalues --   -0.00140   0.00130   0.00370   0.00855   0.00889

 Mulliken charges and spin densities:
               1          2
     1  Na   0.190714   0.043238
     2  Na  -0.712512   0.748113
     3  Na   0.342196   0.047742
     4  Na   0.330075  -0.013985
     5  Na  -0.490074   0.240153
     6  Na   0.238530  -0.034663
     7  Na   0.101072  -0.030598
 Sum of Mulliken charges =  -0.00000   1.00000

 Dipole moment (field-independent basis, Debye):
    X=             -0.0332    Y=              0.1345    Z=              0.2759  Tot=              0.3088
 Quadrupole moment (field-independent basis, Debye-Ang):
   XX=            -55.3341   YY=            -64.3043   ZZ=            -73.7358
   XY=             -0.7090   XZ=              1.4091   YZ=             -0.6861

 Normal termination of Gaussian 16 at Thu Dec  7 03:17:40 2023.
