 Gaussian 16, Revision B.01,
 Gaussian 16:  ES64L-G16RevB.01 20-Dec-2017

 -------------------------
 #P B3LYP/6-311+g(d) force
 -------------------------

 -----
 DPGEN
 -----
 Symbolic Z-matrix:
 Charge =  0 Multiplicity = 2

                         Standard orientation:
 ---------------------------------------------------------------------
 Center     Atomic      Atomic             Coordinates (Angstroms)
 Number     Number       Type             X           Y           Z
 ---------------------------------------------------------------------
      1         11           0       -0.223926    0.104202    1.673248
      2         11           0       -2.962093   -1.801953   -0.364771
      3         11           0        3.608498    0.036992   -0.584498
      4         11           0        0.065947   -0.165145   -1.592851
      5         11           0       -2.601251    1.676090   -0.141614
      6         11           0        0.834707    2.860479    0.341646
      7         11           0        1.278117   -2.710664    0.668840
 ---------------------------------------------------------------------

 SCF Done:  E(UB3LYP) =  -1136.13254841     A.U. after   20 cycles

 The electronic state is 2-A.
 Alpha  occ. eigenvalues --  -38.44565 -38.44030 -38.43969 -38.43805 -38.43568
 Alpha  occ. eigenvalues --  -38.43204 -38.43095  -2.20334  -2.19822  -2.19820
 Alpha  occ. eigenvalues --   -2.19711  -2.19386  -2.19067  -2.19041  -1.14007
 Alpha  occ. eigenvalues --   -1.13980  -1.13964  -1.13518  -1.13509  -1.13496
 Alpha  occ. eigenvalues --   -1.13478  -1.13464  -1.13436  -1.13419  -1.13352
 Alpha  occ. eigenvalues --   -1.13309  -1.13077  -1.13042  -1.13006  -1.12794
 Alpha  occ. eigenvalues --   -1.12743  -1.12702  -1.12691  -1.12664  -1.12637
 Alpha  occ. eigenvalues --   -0.18260  -0.13101  -0.12119  -0.10393
 Alpha virt. eigenvalues --   -0.06150  -0.05339  -0.04635  -0.03098  -0.02681
 Alpha virt. eigenvalues --   -0.02097  -0.02083  -0.01336  -0.00697  -0.00362
 Alpha virt. eigenvalues --   -0.00048   0.00252   0.00689   0.00770   0.00796

  Beta  occ. eigenvalues --  -38.44540 -38.44023 -38.43964 -38.43762 -38.43543
  Beta  occ. eigenvalues --  -38.43199 -38.43017  -2.20288  -2.19814  -2.19812
  Beta  occ. eigenvalues --   -2.19633  -2.19344  -2.19035  -2.18925  -1.13965
  Beta  occ. eigenvalues --   -1.13949  -1.13936  -1.13514  -1.13494  -1.13483
  Beta  occ. eigenvalues --   -1.13465  -1.13453  -1.13407  -1.13377  -1.13303
  Beta  occ. eigenvalues --   -1.13248  -1.13037  -1.13009  -1.12976  -1.12753
  Beta  occ. eigenvalues --   -1.12695  -1.12657  -1.12652  -1.12595  -1.12545
  Beta  occ. eigenvalues --   -0.17639  -0.12760  -0.11834
  Beta virt. eigenvalues --   -0.06762  -0.05882  -0.05337  -0.04534  -0.02507
  Beta virt. eigenvalues --   -0.02045  -0.01854  -0.01308  -0.01195  -0.00654
  Beta virt. eigenvalues --   -0.00343   0.00087   0.00322   0.00761   0.00802

 Mulliken charges and spin densities:
               1          2
     1  Na   0.335556   0.312099
     2  Na  -0.014465   0.008008
     3  Na  -0.051978   0.134631
     4  Na  -0.202972   0.488500
     5  Na   0.062527  -0.003550
     6  Na  -0.053911   0.001833
     7  Na  -0.074756   0.058478
 Sum of Mulliken charges =  -0.00000   1.00000

 Dipole moment (field-independent basis, Debye):
    X=             -0.0188    Y=             -0.0316    Z=             -0.0699  Tot=              0.0790
 Quadrupole moment (field-independent basis, Debye-Ang):
   XX=            -53.6118   YY=            -63.0431   ZZ=            -75.3392
   XY=              0.3127   XZ=              0.2324   YZ=             -0.5333

 Normal termination of Gaussian 16 at Thu Dec  7 21:06:26 2023.
