 Gaussian 16, Revision B.01,
 Gaussian 16:  ES64L-G16RevB.01 20-Dec-2017

 -------------------------
 #P B3LYP/6-311+g(d) force
 -------------------------

 -----
 DPGEN
 -----
 Symbolic Z-matrix:
 Charge =  0 Multiplicity = 2

                         Standard orientation:
 ---------------------------------------------------------------------
 Center     Atomic      Atomic             Coordinates (Angstroms)
 Number     Number       Type             X           Y           Z
 ---------------------------------------------------------------------
      1         11           0       -0.355798    1.366654   -2.063742
      2         11           0       -1.270625    2.446364    1.694370
      3         11           0        0.475860   -2.371873   -0.855752
      4         11           0        2.420167    1.656049   -0.471683
      5         11           0        3.458805   -1.073629    0.896466
      6         11           0       -1.739692   -1.296184    1.808367
      7         11           0       -2.988716   -0.727382   -1.008026
 ---------------------------------------------------------------------

 SCF Done:  E(UB3LYP) =  -1136.12169266     A.U. after   21 cycles

 The electronic state is 2-A.
 Alpha  occ. eigenvalues --  -38.44622 -38.44619 -38.44319 -38.44226 -38.43982
 Alpha  occ. eigenvalues --  -38.43756 -38.43524  -2.20453  -2.20385  -2.20156
 Alpha  occ. eigenvalues --   -2.20006  -2.19776  -2.19582  -2.19371  -1.14159
 Alpha  occ. eigenvalues --   -1.14114  -1.14081  -1.14055  -1.14026  -1.14000
 Alpha  occ. eigenvalues --   -1.13818  -1.13809  -1.13773  -1.13691  -1.13690
 Alpha  occ. eigenvalues --   -1.13615  -1.13471  -1.13436  -1.13407  -1.13297
 Alpha  occ. eigenvalues --   -1.13243  -1.13200  -1.13037  -1.13014  -1.12987
 Alpha  occ. eigenvalues --   -0.17438  -0.13245  -0.11770  -0.11486
 Alpha virt. eigenvalues --   -0.06180  -0.05617  -0.04269  -0.03666  -0.03361
 Alpha virt. eigenvalues --   -0.02936  -0.01629  -0.00796  -0.00744  -0.00268
 Alpha virt. eigenvalues --   -0.00071   0.00126   0.00370   0.00397   0.00779

  Beta  occ. eigenvalues --  -38.44603 -38.44556 -38.44281 -38.44217 -38.43975
  Beta  occ. eigenvalues --  -38.43757 -38.43472  -2.20426  -2.20264  -2.20086
  Beta  occ. eigenvalues --   -2.19991  -2.19763  -2.19585  -2.19275  -1.14132
  Beta  occ. eigenvalues --   -1.14082  -1.14062  -1.13968  -1.13945  -1.13914
  Beta  occ. eigenvalues --   -1.13773  -1.13768  -1.13710  -1.13681  -1.13666
  Beta  occ. eigenvalues --   -1.13604  -1.13462  -1.13426  -1.13400  -1.13286
  Beta  occ. eigenvalues --   -1.13242  -1.13204  -1.12975  -1.12950  -1.12915
  Beta  occ. eigenvalues --   -0.16756  -0.13039  -0.11511
  Beta virt. eigenvalues --   -0.07755  -0.05991  -0.05325  -0.03754  -0.03310
  Beta virt. eigenvalues --   -0.03047  -0.02116  -0.01547  -0.00689  -0.00502
  Beta virt. eigenvalues --   -0.00155   0.00022   0.00326   0.00432   0.00506

 Mulliken charges and spin densities:
               1          2
     1  Na   0.081707   0.318046
     2  Na  -0.293884   0.264111
     3  Na  -0.582481   0.030675
     4  Na  -0.111355  -0.001011
     5  Na   0.207761  -0.002345
     6  Na   0.153398   0.372388
     7  Na   0.544854   0.018137
 Sum of Mulliken charges =  -0.00000   1.00000

 Dipole moment (field-independent basis, Debye):
    X=             -0.4983    Y=             -0.2221    Z=              0.3388  Tot=              0.6422
 Quadrupole moment (field-independent basis, Debye-Ang):
   XX=            -60.5806   YY=            -71.4334   ZZ=            -66.4009
   XY=              0.6053   XZ=              2.9328   YZ=              2.2019

 Normal termination of Gaussian 16 at Sun Dec  3 18:32:28 2023.
