 Gaussian 16, Revision B.01,
 Gaussian 16:  ES64L-G16RevB.01 20-Dec-2017

 -------------------------
 #P B3LYP/6-311+g(d) force
 -------------------------

 -----
 DPGEN
 -----
 Symbolic Z-matrix:
 Charge =  0 Multiplicity = 2

                         Standard orientation:
 ---------------------------------------------------------------------
 Center     Atomic      Atomic             Coordinates (Angstroms)
 Number     Number       Type             X           Y           Z
 ---------------------------------------------------------------------
      1         11           0        2.243074    2.008164   -0.571836
      2         11           0       -2.141187   -1.732164   -0.837658
      3         11           0        1.276825   -1.364014   -1.363433
      4         11           0        0.346579    0.081200    1.919865
      5         11           0       -4.073092    0.045593    1.009839
      6         11           0        3.985319   -0.843019    0.786259
      7         11           0       -1.637518    1.804241   -0.943036
 ---------------------------------------------------------------------

 SCF Done:  E(UB3LYP) =  -1136.11634390     A.U. after   31 cycles

 The electronic state is 2-A.
 Alpha  occ. eigenvalues --  -38.46617 -38.44840 -38.44576 -38.43626 -38.43431
 Alpha  occ. eigenvalues --  -38.43400 -38.43376  -2.22377  -2.20666  -2.20387
 Alpha  occ. eigenvalues --   -2.19437  -2.19266  -2.19242  -2.19238  -1.16073
 Alpha  occ. eigenvalues --   -1.16019  -1.15997  -1.14327  -1.14316  -1.14290
 Alpha  occ. eigenvalues --   -1.14055  -1.14034  -1.14011  -1.13133  -1.13102
 Alpha  occ. eigenvalues --   -1.13067  -1.12968  -1.12940  -1.12920  -1.12914
 Alpha  occ. eigenvalues --   -1.12910  -1.12904  -1.12889  -1.12867  -1.12855
 Alpha  occ. eigenvalues --   -0.17949  -0.14503  -0.11017  -0.10522
 Alpha virt. eigenvalues --   -0.07534  -0.05432  -0.05026  -0.03202  -0.03061
 Alpha virt. eigenvalues --   -0.02352  -0.02040  -0.01560  -0.01152  -0.00453
 Alpha virt. eigenvalues --   -0.00131   0.00150   0.00213   0.00401   0.00615

  Beta  occ. eigenvalues --  -38.46593 -38.44793 -38.44540 -38.43629 -38.43422
  Beta  occ. eigenvalues --  -38.43352 -38.43351  -2.22331  -2.20578  -2.20318
  Beta  occ. eigenvalues --   -2.19448  -2.19228  -2.19200  -2.19178  -1.16034
  Beta  occ. eigenvalues --   -1.15990  -1.15961  -1.14269  -1.14255  -1.14230
  Beta  occ. eigenvalues --   -1.14008  -1.13986  -1.13967  -1.13134  -1.13109
  Beta  occ. eigenvalues --   -1.13063  -1.12928  -1.12910  -1.12904  -1.12882
  Beta  occ. eigenvalues --   -1.12871  -1.12851  -1.12844  -1.12832  -1.12792
  Beta  occ. eigenvalues --   -0.17330  -0.14149  -0.10301
  Beta virt. eigenvalues --   -0.07410  -0.07227  -0.05374  -0.04407  -0.02920
  Beta virt. eigenvalues --   -0.02805  -0.01891  -0.01539  -0.01179  -0.00926
  Beta virt. eigenvalues --   -0.00381  -0.00026   0.00224   0.00312   0.00532

 Mulliken charges and spin densities:
               1          2
     1  Na   0.081234  -0.006904
     2  Na  -0.120976   0.041649
     3  Na  -0.556759   0.199683
     4  Na  -0.505388   0.117339
     5  Na   0.610003   0.354219
     6  Na   0.802409   0.239469
     7  Na  -0.310523   0.054545
 Sum of Mulliken charges =  -0.00000   1.00000

 Dipole moment (field-independent basis, Debye):
    X=              0.1052    Y=              0.3289    Z=              1.0029  Tot=              1.0607
 Quadrupole moment (field-independent basis, Debye-Ang):
   XX=            -50.3681   YY=            -81.6296   ZZ=            -66.0484
   XY=              0.0188   XZ=             -1.5960   YZ=             -1.8740

 Normal termination of Gaussian 16 at Thu Dec  7 07:22:32 2023.
