 Gaussian 16, Revision B.01,
 Gaussian 16:  ES64L-G16RevB.01 20-Dec-2017

 -------------------------
 #P B3LYP/6-311+g(d) force
 -------------------------

 -----
 DPGEN
 -----
 Symbolic Z-matrix:
 Charge =  0 Multiplicity = 2

                         Standard orientation:
 ---------------------------------------------------------------------
 Center     Atomic      Atomic             Coordinates (Angstroms)
 Number     Number       Type             X           Y           Z
 ---------------------------------------------------------------------
      1         11           0        2.366413    1.532796   -1.254099
      2         11           0       -0.186230    0.405798    1.395987
      3         11           0       -3.122520    0.552560    1.025945
      4         11           0        0.795296   -1.655780   -1.007267
      5         11           0        3.098830   -1.029029    1.496912
      6         11           0       -1.991452   -2.778857   -0.971651
      7         11           0       -0.960337    2.972512   -0.685827
 ---------------------------------------------------------------------

 SCF Done:  E(UB3LYP) =  -1136.12594704     A.U. after   20 cycles

 The electronic state is 2-A.
 Alpha  occ. eigenvalues --  -38.44361 -38.44267 -38.44121 -38.43901 -38.43783
 Alpha  occ. eigenvalues --  -38.43390 -38.43233  -2.20187  -2.20110  -2.19938
 Alpha  occ. eigenvalues --   -2.19741  -2.19704  -2.19215  -2.19156  -1.13883
 Alpha  occ. eigenvalues --   -1.13845  -1.13840  -1.13798  -1.13749  -1.13703
 Alpha  occ. eigenvalues --   -1.13623  -1.13589  -1.13551  -1.13441  -1.13404
 Alpha  occ. eigenvalues --   -1.13380  -1.13368  -1.13340  -1.13319  -1.13003
 Alpha  occ. eigenvalues --   -1.12865  -1.12853  -1.12816  -1.12810  -1.12715
 Alpha  occ. eigenvalues --   -0.17896  -0.13320  -0.12382  -0.10977
 Alpha virt. eigenvalues --   -0.05621  -0.05432  -0.04922  -0.03395  -0.03040
 Alpha virt. eigenvalues --   -0.02191  -0.01767  -0.01103  -0.00707  -0.00256
 Alpha virt. eigenvalues --    0.00027   0.00234   0.00426   0.00609   0.00789

  Beta  occ. eigenvalues --  -38.44304 -38.44244 -38.44081 -38.43894 -38.43747
  Beta  occ. eigenvalues --  -38.43366 -38.43212  -2.20082  -2.20069  -2.19867
  Beta  occ. eigenvalues --   -2.19694  -2.19676  -2.19174  -2.19119  -1.13844
  Beta  occ. eigenvalues --   -1.13770  -1.13761  -1.13733  -1.13720  -1.13681
  Beta  occ. eigenvalues --   -1.13570  -1.13544  -1.13494  -1.13398  -1.13383
  Beta  occ. eigenvalues --   -1.13371  -1.13325  -1.13308  -1.13286  -1.12969
  Beta  occ. eigenvalues --   -1.12836  -1.12827  -1.12791  -1.12768  -1.12684
  Beta  occ. eigenvalues --   -0.17357  -0.13025  -0.11867
  Beta virt. eigenvalues --   -0.07496  -0.05458  -0.05041  -0.04611  -0.03053
  Beta virt. eigenvalues --   -0.02557  -0.01788  -0.01335  -0.00915  -0.00415
  Beta virt. eigenvalues --   -0.00117   0.00121   0.00310   0.00575   0.00725

 Mulliken charges and spin densities:
               1          2
     1  Na  -0.172408   0.114918
     2  Na  -1.099885   0.127654
     3  Na   1.048674   0.160290
     4  Na   0.191535   0.469261
     5  Na   0.611763   0.075547
     6  Na  -0.424060  -0.055436
     7  Na  -0.155620   0.107766
 Sum of Mulliken charges =  -0.00000   1.00000

 Dipole moment (field-independent basis, Debye):
    X=              0.1515    Y=              0.4852    Z=              0.1279  Tot=              0.5241
 Quadrupole moment (field-independent basis, Debye-Ang):
   XX=            -53.5438   YY=            -69.4004   ZZ=            -70.8635
   XY=             -1.2102   XZ=              0.7831   YZ=             -3.0135

 Normal termination of Gaussian 16 at Mon Dec  4 03:36:23 2023.
