 Gaussian 16, Revision B.01,
 Gaussian 16:  ES64L-G16RevB.01 20-Dec-2017

 -------------------------
 #P B3LYP/6-311+g(d) force
 -------------------------

 -----
 DPGEN
 -----
 Symbolic Z-matrix:
 Charge =  0 Multiplicity = 2

                         Standard orientation:
 ---------------------------------------------------------------------
 Center     Atomic      Atomic             Coordinates (Angstroms)
 Number     Number       Type             X           Y           Z
 ---------------------------------------------------------------------
      1         11           0       -3.036552    1.412354   -0.097367
      2         11           0       -3.257560   -2.095267   -0.094895
      3         11           0       -0.005584   -0.506153    1.996430
      4         11           0        0.346673    2.533512    0.183885
      5         11           0        3.114597    0.940952   -0.134622
      6         11           0       -0.150221   -0.153452   -1.688876
      7         11           0        2.988647   -2.131946   -0.164555
 ---------------------------------------------------------------------

 SCF Done:  E(UB3LYP) =  -1136.12224458     A.U. after   24 cycles

 The electronic state is 2-A.
 Alpha  occ. eigenvalues --  -38.45010 -38.44583 -38.44527 -38.44335 -38.43978
 Alpha  occ. eigenvalues --  -38.43869 -38.42263  -2.20810  -2.20459  -2.20383
 Alpha  occ. eigenvalues --   -2.20095  -2.19789  -2.19708  -2.18169  -1.14492
 Alpha  occ. eigenvalues --   -1.14469  -1.14441  -1.14148  -1.14120  -1.14114
 Alpha  occ. eigenvalues --   -1.14085  -1.14031  -1.13988  -1.13769  -1.13759
 Alpha  occ. eigenvalues --   -1.13735  -1.13470  -1.13437  -1.13426  -1.13380
 Alpha  occ. eigenvalues --   -1.13335  -1.13314  -1.11857  -1.11826  -1.11815
 Alpha  occ. eigenvalues --   -0.18148  -0.13822  -0.11454  -0.10471
 Alpha virt. eigenvalues --   -0.06663  -0.06312  -0.03779  -0.03520  -0.02652
 Alpha virt. eigenvalues --   -0.02458  -0.02250  -0.01585  -0.01023  -0.00188
 Alpha virt. eigenvalues --   -0.00116   0.00194   0.00533   0.00593   0.00629

  Beta  occ. eigenvalues --  -38.45006 -38.44577 -38.44476 -38.44340 -38.43978
  Beta  occ. eigenvalues --  -38.43764 -38.42254  -2.20805  -2.20451  -2.20289
  Beta  occ. eigenvalues --   -2.20106  -2.19791  -2.19513  -2.18157  -1.14472
  Beta  occ. eigenvalues --   -1.14464  -1.14442  -1.14146  -1.14114  -1.14085
  Beta  occ. eigenvalues --   -1.14018  -1.13962  -1.13919  -1.13778  -1.13756
  Beta  occ. eigenvalues --   -1.13744  -1.13474  -1.13430  -1.13420  -1.13249
  Beta  occ. eigenvalues --   -1.13193  -1.13179  -1.11852  -1.11822  -1.11772
  Beta  occ. eigenvalues --   -0.17428  -0.13660  -0.11283
  Beta virt. eigenvalues --   -0.06576  -0.06460  -0.06330  -0.03792  -0.02836
  Beta virt. eigenvalues --   -0.02315  -0.01803  -0.01659  -0.01188  -0.01076
  Beta virt. eigenvalues --   -0.00161   0.00043   0.00241   0.00620   0.00638

 Mulliken charges and spin densities:
               1          2
     1  Na   0.296469   0.043572
     2  Na   0.091119  -0.051292
     3  Na  -0.535806   0.571670
     4  Na   0.021936   0.055120
     5  Na   0.249790   0.097753
     6  Na  -0.380057   0.280370
     7  Na   0.256548   0.002808
 Sum of Mulliken charges =  -0.00000   1.00000

 Dipole moment (field-independent basis, Debye):
    X=             -0.5157    Y=             -0.0509    Z=             -0.0890  Tot=              0.5257
 Quadrupole moment (field-independent basis, Debye-Ang):
   XX=            -52.6439   YY=            -66.4486   ZZ=            -75.9587
   XY=             -0.4062   XZ=             -0.2341   YZ=              0.9896

 Normal termination of Gaussian 16 at Fri Dec  8 00:30:36 2023.
