 Gaussian 16, Revision B.01,
 Gaussian 16:  ES64L-G16RevB.01 20-Dec-2017

 -------------------------
 #P B3LYP/6-311+g(d) force
 -------------------------

 -----
 DPGEN
 -----
 Symbolic Z-matrix:
 Charge =  0 Multiplicity = 2

                         Standard orientation:
 ---------------------------------------------------------------------
 Center     Atomic      Atomic             Coordinates (Angstroms)
 Number     Number       Type             X           Y           Z
 ---------------------------------------------------------------------
      1         11           0        1.158971   -2.193189   -0.832673
      2         11           0       -5.324314   -0.506862    0.161644
      3         11           0       -1.725840   -1.339630    0.225477
      4         11           0       -3.048796    2.279302   -0.291692
      5         11           0        0.339226    1.080164   -0.047815
      6         11           0        3.196772   -0.198440    1.314200
      7         11           0        5.403981    0.878655   -0.529141
 ---------------------------------------------------------------------

 SCF Done:  E(UB3LYP) =  -1136.11885635     A.U. after   21 cycles

 The electronic state is 2-A.
 Alpha  occ. eigenvalues --  -38.44248 -38.44179 -38.44144 -38.43988 -38.43938
 Alpha  occ. eigenvalues --  -38.43918 -38.43812  -2.20159  -2.20047  -2.19939
 Alpha  occ. eigenvalues --   -2.19857  -2.19827  -2.19711  -2.19609  -1.13850
 Alpha  occ. eigenvalues --   -1.13847  -1.13776  -1.13737  -1.13719  -1.13676
 Alpha  occ. eigenvalues --   -1.13622  -1.13600  -1.13563  -1.13558  -1.13523
 Alpha  occ. eigenvalues --   -1.13522  -1.13503  -1.13484  -1.13377  -1.13365
 Alpha  occ. eigenvalues --   -1.13365  -1.13346  -1.13265  -1.13261  -1.13219
 Alpha  occ. eigenvalues --   -0.17412  -0.14251  -0.11630  -0.11081
 Alpha virt. eigenvalues --   -0.06207  -0.05770  -0.04849  -0.03164  -0.03049
 Alpha virt. eigenvalues --   -0.02459  -0.01903  -0.01590  -0.01009  -0.00511
 Alpha virt. eigenvalues --   -0.00371  -0.00006   0.00348   0.00462   0.00598

  Beta  occ. eigenvalues --  -38.44184 -38.44176 -38.44117 -38.43967 -38.43922
  Beta  occ. eigenvalues --  -38.43918 -38.43753  -2.20043  -2.20040  -2.19893
  Beta  occ. eigenvalues --   -2.19817  -2.19792  -2.19718  -2.19499  -1.13777
  Beta  occ. eigenvalues --   -1.13774  -1.13732  -1.13722  -1.13693  -1.13641
  Beta  occ. eigenvalues --   -1.13596  -1.13565  -1.13531  -1.13504  -1.13493
  Beta  occ. eigenvalues --   -1.13484  -1.13470  -1.13456  -1.13370  -1.13368
  Beta  occ. eigenvalues --   -1.13351  -1.13349  -1.13190  -1.13180  -1.13153
  Beta  occ. eigenvalues --   -0.16892  -0.13879  -0.11398
  Beta virt. eigenvalues --   -0.07349  -0.05937  -0.05514  -0.04448  -0.03012
  Beta virt. eigenvalues --   -0.02641  -0.01995  -0.01545  -0.01357  -0.00856
  Beta virt. eigenvalues --   -0.00252  -0.00202   0.00185   0.00448   0.00577

 Mulliken charges and spin densities:
               1          2
     1  Na   0.511755   0.030635
     2  Na   0.257855   0.361789
     3  Na  -0.722056   0.119546
     4  Na  -0.100361  -0.182927
     5  Na  -0.813156   0.634351
     6  Na   0.681582   0.061942
     7  Na   0.184382  -0.025336
 Sum of Mulliken charges =  -0.00000   1.00000

 Dipole moment (field-independent basis, Debye):
    X=              0.3852    Y=             -0.2950    Z=             -0.5144  Tot=              0.7071
 Quadrupole moment (field-independent basis, Debye-Ang):
   XX=            -66.7658   YY=            -68.0825   ZZ=            -67.0808
   XY=             -2.8035   XZ=             -4.2475   YZ=             -1.3544

 Normal termination of Gaussian 16 at Wed Nov 29 02:12:06 2023.
