 Gaussian 16, Revision B.01,
 Gaussian 16:  ES64L-G16RevB.01 20-Dec-2017

 -------------------------
 #P B3LYP/6-311+g(d) force
 -------------------------

 -----
 DPGEN
 -----
 Symbolic Z-matrix:
 Charge =  0 Multiplicity = 2

                         Standard orientation:
 ---------------------------------------------------------------------
 Center     Atomic      Atomic             Coordinates (Angstroms)
 Number     Number       Type             X           Y           Z
 ---------------------------------------------------------------------
      1         11           0       -0.765829    1.640310   -0.517940
      2         11           0        1.941541    3.324363    0.548353
      3         11           0        3.085446    0.365128   -0.565742
      4         11           0        0.443805   -1.529097   -0.703111
      5         11           0       -3.104250   -1.110284   -0.646941
      6         11           0        3.971693   -2.523535    0.952855
      7         11           0       -5.572406   -0.166886    0.932526
 ---------------------------------------------------------------------

 SCF Done:  E(UB3LYP) =  -1136.12334559     A.U. after   20 cycles

 The electronic state is 2-A.
 Alpha  occ. eigenvalues --  -38.44556 -38.44268 -38.44255 -38.44113 -38.44028
 Alpha  occ. eigenvalues --  -38.43503 -38.43399  -2.20387  -2.20122  -2.20105
 Alpha  occ. eigenvalues --   -2.19903  -2.19893  -2.19360  -2.19227  -1.14046
 Alpha  occ. eigenvalues --   -1.14009  -1.14005  -1.13858  -1.13812  -1.13798
 Alpha  occ. eigenvalues --   -1.13784  -1.13711  -1.13690  -1.13613  -1.13588
 Alpha  occ. eigenvalues --   -1.13567  -1.13557  -1.13523  -1.13458  -1.13041
 Alpha  occ. eigenvalues --   -1.13033  -1.13014  -1.12893  -1.12881  -1.12854
 Alpha  occ. eigenvalues --   -0.17119  -0.14235  -0.12114  -0.11356
 Alpha virt. eigenvalues --   -0.05950  -0.05284  -0.04639  -0.03851  -0.02544
 Alpha virt. eigenvalues --   -0.02382  -0.02278  -0.01482  -0.00898  -0.00630
 Alpha virt. eigenvalues --   -0.00415  -0.00007   0.00130   0.00469   0.00716

  Beta  occ. eigenvalues --  -38.44457 -38.44256 -38.44200 -38.44095 -38.44014
  Beta  occ. eigenvalues --  -38.43497 -38.43379  -2.20204  -2.20085  -2.20024
  Beta  occ. eigenvalues --   -2.19879  -2.19858  -2.19360  -2.19188  -1.13926
  Beta  occ. eigenvalues --   -1.13884  -1.13881  -1.13809  -1.13789  -1.13761
  Beta  occ. eigenvalues --   -1.13733  -1.13689  -1.13619  -1.13584  -1.13560
  Beta  occ. eigenvalues --   -1.13540  -1.13534  -1.13502  -1.13438  -1.13044
  Beta  occ. eigenvalues --   -1.13040  -1.12944  -1.12862  -1.12855  -1.12833
  Beta  occ. eigenvalues --   -0.16501  -0.13433  -0.11930
  Beta virt. eigenvalues --   -0.07858  -0.05758  -0.04868  -0.04287  -0.03614
  Beta virt. eigenvalues --   -0.02354  -0.02148  -0.01683  -0.01236  -0.00781
  Beta virt. eigenvalues --   -0.00372  -0.00112   0.00166   0.00289   0.00562

 Mulliken charges and spin densities:
               1          2
     1  Na  -0.504001  -0.085844
     2  Na   0.498043   0.102092
     3  Na  -0.360695   0.228046
     4  Na  -0.140859   0.122664
     5  Na  -0.347570   0.060333
     6  Na   0.575492   0.187996
     7  Na   0.279589   0.384713
 Sum of Mulliken charges =  -0.00000   1.00000

 Dipole moment (field-independent basis, Debye):
    X=              0.2615    Y=             -0.0110    Z=              0.5633  Tot=              0.6212
 Quadrupole moment (field-independent basis, Debye-Ang):
   XX=            -62.0868   YY=            -65.9836   ZZ=            -68.5974
   XY=             -3.0302   XZ=              0.6261   YZ=             -0.0821

 Normal termination of Gaussian 16 at Wed Nov 29 02:03:14 2023.
