 Gaussian 16, Revision B.01,
 Gaussian 16:  ES64L-G16RevB.01 20-Dec-2017

 -------------------------
 #P B3LYP/6-311+g(d) force
 -------------------------

 -----
 DPGEN
 -----
 Symbolic Z-matrix:
 Charge =  0 Multiplicity = 2

                         Standard orientation:
 ---------------------------------------------------------------------
 Center     Atomic      Atomic             Coordinates (Angstroms)
 Number     Number       Type             X           Y           Z
 ---------------------------------------------------------------------
      1         11           0       -3.751135    0.156146    0.288947
      2         11           0       -1.241742    3.588849   -0.358284
      3         11           0       -2.056723   -2.374352   -0.329000
      4         11           0        1.042774   -3.576744    0.430929
      5         11           0        0.166902   -0.018706   -0.261272
      6         11           0        2.008406    2.541130    0.723833
      7         11           0        3.831517   -0.316323   -0.495152
 ---------------------------------------------------------------------

 SCF Done:  E(UB3LYP) =  -1136.12512686     A.U. after   19 cycles

 The electronic state is 2-A.
 Alpha  occ. eigenvalues --  -38.44389 -38.44151 -38.43960 -38.43919 -38.43767
 Alpha  occ. eigenvalues --  -38.43735 -38.43685  -2.20209  -2.20029  -2.19758
 Alpha  occ. eigenvalues --   -2.19708  -2.19585  -2.19580  -2.19568  -1.13925
 Alpha  occ. eigenvalues --   -1.13889  -1.13820  -1.13771  -1.13695  -1.13636
 Alpha  occ. eigenvalues --   -1.13424  -1.13394  -1.13383  -1.13375  -1.13347
 Alpha  occ. eigenvalues --   -1.13340  -1.13335  -1.13272  -1.13259  -1.13238
 Alpha  occ. eigenvalues --   -1.13219  -1.13212  -1.13201  -1.13181  -1.13131
 Alpha  occ. eigenvalues --   -0.16970  -0.13868  -0.12976  -0.10011
 Alpha virt. eigenvalues --   -0.06166  -0.05711  -0.04711  -0.03049  -0.02360
 Alpha virt. eigenvalues --   -0.02326  -0.02123  -0.01911  -0.01442  -0.00175
 Alpha virt. eigenvalues --   -0.00041   0.00112   0.00429   0.00489   0.00729

  Beta  occ. eigenvalues --  -38.44385 -38.44168 -38.43906 -38.43872 -38.43710
  Beta  occ. eigenvalues --  -38.43680 -38.43670  -2.20207  -2.20056  -2.19659
  Beta  occ. eigenvalues --   -2.19621  -2.19565  -2.19476  -2.19470  -1.13934
  Beta  occ. eigenvalues --   -1.13893  -1.13787  -1.13776  -1.13722  -1.13662
  Beta  occ. eigenvalues --   -1.13356  -1.13324  -1.13317  -1.13316  -1.13292
  Beta  occ. eigenvalues --   -1.13286  -1.13276  -1.13258  -1.13226  -1.13167
  Beta  occ. eigenvalues --   -1.13150  -1.13146  -1.13135  -1.13115  -1.13058
  Beta  occ. eigenvalues --   -0.16740  -0.13090  -0.12227
  Beta virt. eigenvalues --   -0.06905  -0.06097  -0.05432  -0.04492  -0.02535
  Beta virt. eigenvalues --   -0.02160  -0.02022  -0.01824  -0.01469  -0.01362
  Beta virt. eigenvalues --   -0.00099   0.00246   0.00444   0.00466   0.00514

 Mulliken charges and spin densities:
               1          2
     1  Na   0.735983   0.247775
     2  Na   0.042248   0.245194
     3  Na  -0.072495   0.234164
     4  Na   0.733522   0.228772
     5  Na  -2.855431  -0.273118
     6  Na   1.015811   0.044406
     7  Na   0.400362   0.272808
 Sum of Mulliken charges =  -0.00000   1.00000

 Dipole moment (field-independent basis, Debye):
    X=              0.3776    Y=              0.2289    Z=              0.2167  Tot=              0.4919
 Quadrupole moment (field-independent basis, Debye-Ang):
   XX=            -62.9871   YY=            -63.5086   ZZ=            -70.4467
   XY=             -3.3706   XZ=              0.8537   YZ=              1.0180

 Normal termination of Gaussian 16 at Sat Dec  9 07:23:47 2023.
