 Gaussian 16, Revision B.01,
 Gaussian 16:  ES64L-G16RevB.01 20-Dec-2017

 -------------------------
 #P B3LYP/6-311+g(d) force
 -------------------------

 -----
 DPGEN
 -----
 Symbolic Z-matrix:
 Charge =  0 Multiplicity = 2

                         Standard orientation:
 ---------------------------------------------------------------------
 Center     Atomic      Atomic             Coordinates (Angstroms)
 Number     Number       Type             X           Y           Z
 ---------------------------------------------------------------------
      1         11           0        0.037229    0.031256    2.511544
      2         11           0        0.983671    3.172477   -0.693025
      3         11           0       -2.784168    2.073545    0.412200
      4         11           0       -3.807462   -1.139389   -1.299451
      5         11           0       -0.994254   -2.297776   -0.061737
      6         11           0        2.670543   -2.610277   -0.092482
      7         11           0        3.894441    0.770165   -0.777049
 ---------------------------------------------------------------------

 SCF Done:  E(UB3LYP) =  -1136.11182841     A.U. after   22 cycles

 The electronic state is 2-A.
 Alpha  occ. eigenvalues --  -38.45336 -38.45094 -38.44493 -38.44445 -38.44395
 Alpha  occ. eigenvalues --  -38.44229 -38.43934  -2.21114  -2.20821  -2.20242
 Alpha  occ. eigenvalues --   -2.20202  -2.20115  -2.20038  -2.19736  -1.14766
 Alpha  occ. eigenvalues --   -1.14749  -1.14718  -1.14509  -1.14485  -1.14458
 Alpha  occ. eigenvalues --   -1.13927  -1.13903  -1.13890  -1.13878  -1.13850
 Alpha  occ. eigenvalues --   -1.13826  -1.13807  -1.13784  -1.13745  -1.13705
 Alpha  occ. eigenvalues --   -1.13685  -1.13657  -1.13425  -1.13417  -1.13360
 Alpha  occ. eigenvalues --   -0.16346  -0.13330  -0.12051  -0.11163
 Alpha virt. eigenvalues --   -0.06867  -0.06359  -0.04247  -0.03519  -0.03245
 Alpha virt. eigenvalues --   -0.02364  -0.02041  -0.01932  -0.01349  -0.00659
 Alpha virt. eigenvalues --   -0.00549   0.00160   0.00321   0.00389   0.00466

  Beta  occ. eigenvalues --  -38.45226 -38.45095 -38.44499 -38.44409 -38.44401
  Beta  occ. eigenvalues --  -38.44168 -38.43929  -2.20910  -2.20824  -2.20253
  Beta  occ. eigenvalues --   -2.20136  -2.20126  -2.19924  -2.19731  -1.14628
  Beta  occ. eigenvalues --   -1.14611  -1.14571  -1.14507  -1.14487  -1.14453
  Beta  occ. eigenvalues --   -1.13935  -1.13910  -1.13888  -1.13832  -1.13816
  Beta  occ. eigenvalues --   -1.13810  -1.13794  -1.13780  -1.13745  -1.13630
  Beta  occ. eigenvalues --   -1.13608  -1.13582  -1.13423  -1.13403  -1.13339
  Beta  occ. eigenvalues --   -0.15682  -0.12790  -0.11979
  Beta virt. eigenvalues --   -0.07659  -0.06729  -0.05927  -0.03697  -0.03343
  Beta virt. eigenvalues --   -0.02596  -0.02048  -0.01891  -0.01705  -0.01192
  Beta virt. eigenvalues --   -0.00639  -0.00207   0.00319   0.00405   0.00495

 Mulliken charges and spin densities:
               1          2
     1  Na   0.183746   0.474198
     2  Na   0.032325  -0.044252
     3  Na  -0.232936   0.084175
     4  Na   0.709595   0.189872
     5  Na  -0.818544   0.117892
     6  Na   0.249345  -0.021585
     7  Na  -0.123531   0.199700
 Sum of Mulliken charges =  -0.00000   1.00000

 Dipole moment (field-independent basis, Debye):
    X=             -0.2072    Y=              0.1097    Z=              0.3226  Tot=              0.3988
 Quadrupole moment (field-independent basis, Debye-Ang):
   XX=            -60.5184   YY=            -68.5316   ZZ=            -70.4535
   XY=             -4.8958   XZ=              1.1532   YZ=              0.6313

 Normal termination of Gaussian 16 at Sun Dec  3 18:05:54 2023.
