 Gaussian 16, Revision B.01,
 Gaussian 16:  ES64L-G16RevB.01 20-Dec-2017

 -------------------------
 #P B3LYP/6-311+g(d) force
 -------------------------

 -----
 DPGEN
 -----
 Symbolic Z-matrix:
 Charge =  0 Multiplicity = 2

                         Standard orientation:
 ---------------------------------------------------------------------
 Center     Atomic      Atomic             Coordinates (Angstroms)
 Number     Number       Type             X           Y           Z
 ---------------------------------------------------------------------
      1         11           0       -0.971460    2.109512    0.071419
      2         11           0        4.478527   -0.688908   -1.119568
      3         11           0       -3.921867    1.494721   -0.699017
      4         11           0       -3.067865   -2.308351    0.149190
      5         11           0        2.892359    1.561989    1.032564
      6         11           0        0.183791   -1.252063    1.871172
      7         11           0        0.406514   -0.916901   -1.305760
 ---------------------------------------------------------------------

 SCF Done:  E(UB3LYP) =  -1136.11173371     A.U. after   23 cycles

 The electronic state is 2-A.
 Alpha  occ. eigenvalues --  -38.45980 -38.44873 -38.44687 -38.44472 -38.44311
 Alpha  occ. eigenvalues --  -38.43316 -38.43000  -2.21771  -2.20645  -2.20435
 Alpha  occ. eigenvalues --   -2.20271  -2.20142  -2.19130  -2.18840  -1.15485
 Alpha  occ. eigenvalues --   -1.15453  -1.15359  -1.14331  -1.14300  -1.14293
 Alpha  occ. eigenvalues --   -1.14124  -1.14088  -1.14058  -1.13920  -1.13912
 Alpha  occ. eigenvalues --   -1.13882  -1.13830  -1.13804  -1.13730  -1.12824
 Alpha  occ. eigenvalues --   -1.12785  -1.12763  -1.12541  -1.12505  -1.12448
 Alpha  occ. eigenvalues --   -0.17360  -0.13781  -0.11196  -0.10982
 Alpha virt. eigenvalues --   -0.07317  -0.05860  -0.04527  -0.03153  -0.03100
 Alpha virt. eigenvalues --   -0.02556  -0.02146  -0.01879  -0.01097  -0.00477
 Alpha virt. eigenvalues --   -0.00318   0.00090   0.00232   0.00273   0.00456

  Beta  occ. eigenvalues --  -38.45978 -38.44866 -38.44673 -38.44383 -38.44267
  Beta  occ. eigenvalues --  -38.43294 -38.42992  -2.21770  -2.20637  -2.20411
  Beta  occ. eigenvalues --   -2.20106  -2.20062  -2.19088  -2.18828  -1.15467
  Beta  occ. eigenvalues --   -1.15452  -1.15362  -1.14328  -1.14294  -1.14256
  Beta  occ. eigenvalues --   -1.14107  -1.14068  -1.14038  -1.13806  -1.13798
  Beta  occ. eigenvalues --   -1.13778  -1.13775  -1.13749  -1.13667  -1.12802
  Beta  occ. eigenvalues --   -1.12757  -1.12731  -1.12537  -1.12497  -1.12420
  Beta  occ. eigenvalues --   -0.16800  -0.13162  -0.11125
  Beta virt. eigenvalues --   -0.07551  -0.07110  -0.05428  -0.03953  -0.02954
  Beta virt. eigenvalues --   -0.02865  -0.02061  -0.01841  -0.01736  -0.00839
  Beta virt. eigenvalues --   -0.00213  -0.00123   0.00139   0.00340   0.00426

 Mulliken charges and spin densities:
               1          2
     1  Na  -0.418665  -0.040056
     2  Na   0.089004   0.473054
     3  Na   0.146898   0.273139
     4  Na   0.120923   0.090395
     5  Na   0.240621  -0.003174
     6  Na   0.076659   0.223396
     7  Na  -0.255442  -0.016753
 Sum of Mulliken charges =  -0.00000   1.00000

 Dipole moment (field-independent basis, Debye):
    X=              0.5548    Y=             -1.0289    Z=              0.5496  Tot=              1.2917
 Quadrupole moment (field-independent basis, Debye-Ang):
   XX=            -60.4056   YY=            -76.6689   ZZ=            -65.2619
   XY=              6.7026   XZ=              2.2757   YZ=              2.6274

 Normal termination of Gaussian 16 at Mon Dec  4 01:23:41 2023.
