 Gaussian 16, Revision B.01,
 Gaussian 16:  ES64L-G16RevB.01 20-Dec-2017

 -------------------------
 #P B3LYP/6-311+g(d) force
 -------------------------

 -----
 DPGEN
 -----
 Symbolic Z-matrix:
 Charge =  0 Multiplicity = 2

                         Standard orientation:
 ---------------------------------------------------------------------
 Center     Atomic      Atomic             Coordinates (Angstroms)
 Number     Number       Type             X           Y           Z
 ---------------------------------------------------------------------
      1         11           0        0.801970    0.039604   -1.483627
      2         11           0       -0.137748   -2.778415   -0.170453
      3         11           0        3.330672   -1.122852    0.271341
      4         11           0       -0.710432    0.483226    1.962305
      5         11           0       -2.921845   -1.327678   -0.043398
      6         11           0       -1.959315    2.172333   -0.670970
      7         11           0        1.596699    2.533781    0.134802
 ---------------------------------------------------------------------

 SCF Done:  E(UB3LYP) =  -1136.13300201     A.U. after   19 cycles

 The electronic state is 2-A.
 Alpha  occ. eigenvalues --  -38.44483 -38.44022 -38.43874 -38.43791 -38.43526
 Alpha  occ. eigenvalues --  -38.43320 -38.43055  -2.20267  -2.19871  -2.19720
 Alpha  occ. eigenvalues --   -2.19635  -2.19386  -2.19213  -2.19037  -1.13945
 Alpha  occ. eigenvalues --   -1.13920  -1.13908  -1.13596  -1.13533  -1.13480
 Alpha  occ. eigenvalues --   -1.13421  -1.13379  -1.13368  -1.13306  -1.13304
 Alpha  occ. eigenvalues --   -1.13260  -1.13094  -1.13041  -1.13005  -1.12877
 Alpha  occ. eigenvalues --   -1.12849  -1.12826  -1.12715  -1.12699  -1.12642
 Alpha  occ. eigenvalues --   -0.18421  -0.13038  -0.12640  -0.10295
 Alpha virt. eigenvalues --   -0.05968  -0.05457  -0.04666  -0.03158  -0.02889
 Alpha virt. eigenvalues --   -0.02151  -0.01710  -0.01287  -0.00563  -0.00350
 Alpha virt. eigenvalues --   -0.00015   0.00330   0.00749   0.00793   0.00861

  Beta  occ. eigenvalues --  -38.44483 -38.44015 -38.43872 -38.43771 -38.43521
  Beta  occ. eigenvalues --  -38.43237 -38.43006  -2.20267  -2.19862  -2.19718
  Beta  occ. eigenvalues --   -2.19601  -2.19379  -2.19058  -2.18948  -1.13938
  Beta  occ. eigenvalues --   -1.13919  -1.13908  -1.13587  -1.13503  -1.13474
  Beta  occ. eigenvalues --   -1.13423  -1.13371  -1.13352  -1.13287  -1.13254
  Beta  occ. eigenvalues --   -1.13240  -1.13084  -1.13018  -1.13005  -1.12774
  Beta  occ. eigenvalues --   -1.12740  -1.12714  -1.12651  -1.12637  -1.12570
  Beta  occ. eigenvalues --   -0.17732  -0.12857  -0.12406
  Beta virt. eigenvalues --   -0.06470  -0.05891  -0.05392  -0.04592  -0.02490
  Beta virt. eigenvalues --   -0.02151  -0.01609  -0.01244  -0.01141  -0.00595
  Beta virt. eigenvalues --   -0.00360   0.00156   0.00385   0.00794   0.00840

 Mulliken charges and spin densities:
               1          2
     1  Na   0.193258   0.402686
     2  Na  -0.050764  -0.134697
     3  Na  -0.037819  -0.038402
     4  Na  -0.447302   0.742858
     5  Na   0.110005   0.022743
     6  Na   0.118107   0.011888
     7  Na   0.114514  -0.007076
 Sum of Mulliken charges =  -0.00000   1.00000

 Dipole moment (field-independent basis, Debye):
    X=              0.3564    Y=              0.1203    Z=              0.1583  Tot=              0.4081
 Quadrupole moment (field-independent basis, Debye-Ang):
   XX=            -54.0720   YY=            -62.5761   ZZ=            -75.9772
   XY=             -0.3291   XZ=              3.1623   YZ=             -1.0044

 Normal termination of Gaussian 16 at Sun Dec  3 13:45:56 2023.
