 Gaussian 16, Revision B.01,
 Gaussian 16:  ES64L-G16RevB.01 20-Dec-2017

 -------------------------
 #P B3LYP/6-311+g(d) force
 -------------------------

 -----
 DPGEN
 -----
 Symbolic Z-matrix:
 Charge =  0 Multiplicity = 2

                         Standard orientation:
 ---------------------------------------------------------------------
 Center     Atomic      Atomic             Coordinates (Angstroms)
 Number     Number       Type             X           Y           Z
 ---------------------------------------------------------------------
      1         11           0        3.235809   -0.103832    0.463718
      2         11           0       -2.577351    2.224285    0.098234
      3         11           0       -2.921885   -2.002630    0.129436
      4         11           0       -1.124981    0.000738   -0.487222
      5         11           0        1.486360    1.488803   -1.109064
      6         11           0        0.707217    0.152269    1.743127
      7         11           0        1.194830   -1.759633   -0.838229
 ---------------------------------------------------------------------

 SCF Done:  E(UB3LYP) =  -1136.08686844     A.U. after   28 cycles

 The electronic state is 2-A.
 Alpha  occ. eigenvalues --  -38.45190 -38.44681 -38.44416 -38.44347 -38.43760
 Alpha  occ. eigenvalues --  -38.43585 -38.43110  -2.21237  -2.20513  -2.20405
 Alpha  occ. eigenvalues --   -2.20262  -2.19794  -2.19614  -2.19406  -1.15006
 Alpha  occ. eigenvalues --   -1.14916  -1.14879  -1.14324  -1.14168  -1.14146
 Alpha  occ. eigenvalues --   -1.14125  -1.14101  -1.14034  -1.13960  -1.13889
 Alpha  occ. eigenvalues --   -1.13851  -1.13539  -1.13458  -1.13402  -1.13363
 Alpha  occ. eigenvalues --   -1.13263  -1.13188  -1.13066  -1.13007  -1.12929
 Alpha  occ. eigenvalues --   -0.20086  -0.14430  -0.11436  -0.11064
 Alpha virt. eigenvalues --   -0.06758  -0.05767  -0.03729  -0.03150  -0.02378
 Alpha virt. eigenvalues --   -0.01966  -0.01931  -0.01350  -0.00395   0.00106
 Alpha virt. eigenvalues --    0.00241   0.00259   0.00688   0.00767   0.00779

  Beta  occ. eigenvalues --  -38.45162 -38.44690 -38.44423 -38.44265 -38.43710
  Beta  occ. eigenvalues --  -38.43547 -38.43082  -2.21193  -2.20531  -2.20277
  Beta  occ. eigenvalues --   -2.20257  -2.19706  -2.19550  -2.19364  -1.14981
  Beta  occ. eigenvalues --   -1.14863  -1.14811  -1.14334  -1.14153  -1.14138
  Beta  occ. eigenvalues --   -1.14112  -1.14058  -1.13930  -1.13891  -1.13862
  Beta  occ. eigenvalues --   -1.13852  -1.13478  -1.13397  -1.13356  -1.13278
  Beta  occ. eigenvalues --   -1.13214  -1.13110  -1.13046  -1.12918  -1.12907
  Beta  occ. eigenvalues --   -0.19245  -0.14217  -0.11282
  Beta virt. eigenvalues --   -0.06796  -0.06611  -0.05722  -0.03128  -0.02934
  Beta virt. eigenvalues --   -0.02260  -0.01443  -0.01275  -0.01010  -0.00112
  Beta virt. eigenvalues --    0.00175   0.00228   0.00310   0.00737   0.00766

 Mulliken charges and spin densities:
               1          2
     1  Na   1.385907   0.194082
     2  Na  -0.018224  -0.354466
     3  Na   0.184413  -0.339166
     4  Na  -1.253713   0.811930
     5  Na   0.103720   0.264627
     6  Na  -0.619594   0.173058
     7  Na   0.217490   0.249935
 Sum of Mulliken charges =  -0.00000   1.00000

 Dipole moment (field-independent basis, Debye):
    X=              0.0363    Y=              0.0346    Z=              0.1587  Tot=              0.1664
 Quadrupole moment (field-independent basis, Debye-Ang):
   XX=            -47.6252   YY=            -69.9413   ZZ=            -73.6520
   XY=             -0.1288   XZ=             -2.3866   YZ=             -0.4170

 Normal termination of Gaussian 16 at Thu Dec  7 20:50:03 2023.
