 Gaussian 16, Revision B.01,
 Gaussian 16:  ES64L-G16RevB.01 20-Dec-2017

 -------------------------
 #P B3LYP/6-311+g(d) force
 -------------------------

 -----
 DPGEN
 -----
 Symbolic Z-matrix:
 Charge =  0 Multiplicity = 2

                         Standard orientation:
 ---------------------------------------------------------------------
 Center     Atomic      Atomic             Coordinates (Angstroms)
 Number     Number       Type             X           Y           Z
 ---------------------------------------------------------------------
      1         11           0        2.078156   -2.558854   -0.280279
      2         11           0        0.783306   -1.575334    2.364668
      3         11           0       -1.864796   -2.067204   -1.260007
      4         11           0       -4.069934    0.581211   -0.655035
      5         11           0       -1.682512    1.637681    1.204588
      6         11           0        1.650213    3.126568   -0.005622
      7         11           0        3.105567    0.855932   -1.368314
 ---------------------------------------------------------------------

 SCF Done:  E(UB3LYP) =  -1136.11483330     A.U. after   20 cycles

 The electronic state is 2-A.
 Alpha  occ. eigenvalues --  -38.45319 -38.44611 -38.44437 -38.44268 -38.43995
 Alpha  occ. eigenvalues --  -38.43979 -38.43658  -2.21074  -2.20424  -2.20243
 Alpha  occ. eigenvalues --   -2.20070  -2.19819  -2.19792  -2.19457  -1.14756
 Alpha  occ. eigenvalues --   -1.14728  -1.14684  -1.14095  -1.14060  -1.14054
 Alpha  occ. eigenvalues --   -1.13939  -1.13903  -1.13885  -1.13729  -1.13728
 Alpha  occ. eigenvalues --   -1.13687  -1.13530  -1.13475  -1.13469  -1.13460
 Alpha  occ. eigenvalues --   -1.13438  -1.13426  -1.13119  -1.13115  -1.13098
 Alpha  occ. eigenvalues --   -0.16557  -0.13586  -0.12452  -0.11037
 Alpha virt. eigenvalues --   -0.06651  -0.05729  -0.04712  -0.03520  -0.03229
 Alpha virt. eigenvalues --   -0.02617  -0.01825  -0.01185  -0.00953  -0.00578
 Alpha virt. eigenvalues --   -0.00420  -0.00005   0.00347   0.00411   0.00510

  Beta  occ. eigenvalues --  -38.45269 -38.44541 -38.44437 -38.44228 -38.43982
  Beta  occ. eigenvalues --  -38.43958 -38.43669  -2.20983  -2.20292  -2.20245
  Beta  occ. eigenvalues --   -2.19994  -2.19800  -2.19747  -2.19480  -1.14693
  Beta  occ. eigenvalues --   -1.14666  -1.14616  -1.14008  -1.13973  -1.13959
  Beta  occ. eigenvalues --   -1.13937  -1.13907  -1.13875  -1.13678  -1.13671
  Beta  occ. eigenvalues --   -1.13642  -1.13493  -1.13469  -1.13448  -1.13437
  Beta  occ. eigenvalues --   -1.13420  -1.13393  -1.13134  -1.13129  -1.13096
  Beta  occ. eigenvalues --   -0.15959  -0.13290  -0.12251
  Beta virt. eigenvalues --   -0.07619  -0.06366  -0.05038  -0.04366  -0.03265
  Beta virt. eigenvalues --   -0.02788  -0.02149  -0.01743  -0.01041  -0.00772
  Beta virt. eigenvalues --   -0.00468  -0.00149   0.00163   0.00470   0.00551

 Mulliken charges and spin densities:
               1          2
     1  Na  -0.138470   0.261682
     2  Na   0.228230   0.226822
     3  Na  -0.295316   0.284550
     4  Na   0.804613  -0.096987
     5  Na  -0.765873   0.290923
     6  Na   0.271020  -0.067980
     7  Na  -0.104204   0.100989
 Sum of Mulliken charges =  -0.00000   1.00000

 Dipole moment (field-independent basis, Debye):
    X=             -0.8552    Y=             -0.5807    Z=             -0.1878  Tot=              1.0507
 Quadrupole moment (field-independent basis, Debye-Ang):
   XX=            -62.3021   YY=            -68.4997   ZZ=            -69.3222
   XY=             -4.4155   XZ=              0.5847   YZ=              2.9852

 Normal termination of Gaussian 16 at Sun Dec  3 14:50:14 2023.
