 Gaussian 16, Revision B.01,
 Gaussian 16:  ES64L-G16RevB.01 20-Dec-2017

 -------------------------
 #P B3LYP/6-311+g(d) force
 -------------------------

 -----
 DPGEN
 -----
 Symbolic Z-matrix:
 Charge =  0 Multiplicity = 2

                         Standard orientation:
 ---------------------------------------------------------------------
 Center     Atomic      Atomic             Coordinates (Angstroms)
 Number     Number       Type             X           Y           Z
 ---------------------------------------------------------------------
      1         11           0        0.764893   -1.737630    1.341513
      2         11           0        4.584894   -2.926890   -0.651405
      3         11           0        2.504659    0.462539   -0.418079
      4         11           0        1.005476    4.484028   -0.425725
      5         11           0       -0.392389    1.682580    0.983850
      6         11           0       -2.256543   -0.622226   -0.337421
      7         11           0       -6.210989   -1.342401   -0.492733
 ---------------------------------------------------------------------

 SCF Done:  E(UB3LYP) =  -1136.11045809     A.U. after   22 cycles

 The electronic state is 2-A.
 Alpha  occ. eigenvalues --  -38.45129 -38.45000 -38.44876 -38.44843 -38.43978
 Alpha  occ. eigenvalues --  -38.43844 -38.43668  -2.20897  -2.20789  -2.20666
 Alpha  occ. eigenvalues --   -2.20619  -2.19765  -2.19732  -2.19445  -1.14533
 Alpha  occ. eigenvalues --   -1.14533  -1.14532  -1.14499  -1.14496  -1.14372
 Alpha  occ. eigenvalues --   -1.14354  -1.14332  -1.14283  -1.14278  -1.14248
 Alpha  occ. eigenvalues --   -1.14219  -1.13510  -1.13448  -1.13429  -1.13425
 Alpha  occ. eigenvalues --   -1.13392  -1.13314  -1.13108  -1.13107  -1.13062
 Alpha  occ. eigenvalues --   -0.16958  -0.13056  -0.12423  -0.11267
 Alpha virt. eigenvalues --   -0.06632  -0.05641  -0.05109  -0.03275  -0.02769
 Alpha virt. eigenvalues --   -0.02412  -0.02040  -0.01797  -0.01430  -0.01291
 Alpha virt. eigenvalues --   -0.00660  -0.00243  -0.00160   0.00367   0.00484

  Beta  occ. eigenvalues --  -38.45011 -38.45004 -38.44823 -38.44818 -38.44001
  Beta  occ. eigenvalues --  -38.43840 -38.43644  -2.20810  -2.20664  -2.20623
  Beta  occ. eigenvalues --   -2.20519  -2.19814  -2.19728  -2.19400  -1.14536
  Beta  occ. eigenvalues --   -1.14510  -1.14382  -1.14375  -1.14375  -1.14342
  Beta  occ. eigenvalues --   -1.14331  -1.14310  -1.14214  -1.14210  -1.14208
  Beta  occ. eigenvalues --   -1.14155  -1.13541  -1.13485  -1.13443  -1.13423
  Beta  occ. eigenvalues --   -1.13386  -1.13292  -1.13077  -1.13076  -1.13033
  Beta  occ. eigenvalues --   -0.16696  -0.12294  -0.11847
  Beta virt. eigenvalues --   -0.08027  -0.06158  -0.05463  -0.04904  -0.03050
  Beta virt. eigenvalues --   -0.02511  -0.02144  -0.01857  -0.01393  -0.00975
  Beta virt. eigenvalues --   -0.00938  -0.00328  -0.00058  -0.00023   0.00470

 Mulliken charges and spin densities:
               1          2
     1  Na   0.183253   0.000274
     2  Na   0.398829   0.321072
     3  Na  -0.574813  -0.029759
     4  Na   0.525517   0.116965
     5  Na  -0.204605   0.022365
     6  Na  -0.241703  -0.001607
     7  Na  -0.086477   0.570690
 Sum of Mulliken charges =  -0.00000   1.00000

 Dipole moment (field-independent basis, Debye):
    X=              0.4621    Y=             -0.7881    Z=              0.1820  Tot=              0.9315
 Quadrupole moment (field-independent basis, Debye-Ang):
   XX=            -64.3592   YY=            -63.8525   ZZ=            -69.2022
   XY=             -3.9254   XZ=             -1.9552   YZ=             -1.8942

 Normal termination of Gaussian 16 at Wed Nov 29 02:36:19 2023.
