 Gaussian 16, Revision B.01,
 Gaussian 16:  ES64L-G16RevB.01 20-Dec-2017

 -------------------------
 #P B3LYP/6-311+g(d) force
 -------------------------

 -----
 DPGEN
 -----
 Symbolic Z-matrix:
 Charge =  0 Multiplicity = 2

                         Standard orientation:
 ---------------------------------------------------------------------
 Center     Atomic      Atomic             Coordinates (Angstroms)
 Number     Number       Type             X           Y           Z
 ---------------------------------------------------------------------
      1         11           0       -0.450700    0.070643    1.929483
      2         11           0       -1.945853    0.769009   -1.657177
      3         11           0       -0.341587   -2.494068   -0.463742
      4         11           0        3.587066   -1.906929   -0.354863
      5         11           0        2.715667    1.219514    0.184347
      6         11           0       -3.630729   -1.095491    0.477448
      7         11           0        0.066137    3.437322   -0.115496
 ---------------------------------------------------------------------

 SCF Done:  E(UB3LYP) =  -1136.12525526     A.U. after   21 cycles

 The electronic state is 2-A.
 Alpha  occ. eigenvalues --  -38.45222 -38.44917 -38.44133 -38.43883 -38.43871
 Alpha  occ. eigenvalues --  -38.43710 -38.43365  -2.21028  -2.20693  -2.19943
 Alpha  occ. eigenvalues --   -2.19729  -2.19720  -2.19495  -2.19156  -1.14710
 Alpha  occ. eigenvalues --   -1.14689  -1.14658  -1.14398  -1.14390  -1.14283
 Alpha  occ. eigenvalues --   -1.13633  -1.13619  -1.13579  -1.13405  -1.13397
 Alpha  occ. eigenvalues --   -1.13379  -1.13360  -1.13335  -1.13318  -1.13164
 Alpha  occ. eigenvalues --   -1.13155  -1.13125  -1.12829  -1.12816  -1.12802
 Alpha  occ. eigenvalues --   -0.17534  -0.13500  -0.12175  -0.10365
 Alpha virt. eigenvalues --   -0.06730  -0.05530  -0.05024  -0.03320  -0.02786
 Alpha virt. eigenvalues --   -0.02355  -0.02162  -0.01255  -0.00824  -0.00788
 Alpha virt. eigenvalues --   -0.00218   0.00184   0.00465   0.00586   0.00655

  Beta  occ. eigenvalues --  -38.45217 -38.44912 -38.44133 -38.43816 -38.43778
  Beta  occ. eigenvalues --  -38.43699 -38.43367  -2.21025  -2.20686  -2.19944
  Beta  occ. eigenvalues --   -2.19604  -2.19549  -2.19475  -2.19161  -1.14708
  Beta  occ. eigenvalues --   -1.14669  -1.14646  -1.14396  -1.14360  -1.14283
  Beta  occ. eigenvalues --   -1.13625  -1.13620  -1.13579  -1.13320  -1.13296
  Beta  occ. eigenvalues --   -1.13279  -1.13249  -1.13244  -1.13191  -1.13150
  Beta  occ. eigenvalues --   -1.13140  -1.13112  -1.12834  -1.12815  -1.12798
  Beta  occ. eigenvalues --   -0.16878  -0.13291  -0.11957
  Beta virt. eigenvalues --   -0.06682  -0.06609  -0.05328  -0.04809  -0.02730
  Beta virt. eigenvalues --   -0.02296  -0.02156  -0.01434  -0.01185  -0.00812
  Beta virt. eigenvalues --   -0.00659   0.00047   0.00282   0.00624   0.00679

 Mulliken charges and spin densities:
               1          2
     1  Na  -0.016457   0.326584
     2  Na  -0.380493   0.269044
     3  Na  -0.307251   0.150153
     4  Na   0.075060  -0.024323
     5  Na  -0.276276   0.049660
     6  Na   0.738910   0.187182
     7  Na   0.166508   0.041699
 Sum of Mulliken charges =  -0.00000   1.00000

 Dipole moment (field-independent basis, Debye):
    X=             -1.0920    Y=             -0.5863    Z=              0.2836  Tot=              1.2715
 Quadrupole moment (field-independent basis, Debye-Ang):
   XX=            -55.4934   YY=            -64.8249   ZZ=            -75.5671
   XY=              3.4105   XZ=             -2.5227   YZ=              0.9589

 Normal termination of Gaussian 16 at Mon Dec  4 05:09:32 2023.
