 Gaussian 16, Revision B.01,
 Gaussian 16:  ES64L-G16RevB.01 20-Dec-2017

 -------------------------
 #P B3LYP/6-311+g(d) force
 -------------------------

 -----
 DPGEN
 -----
 Symbolic Z-matrix:
 Charge =  0 Multiplicity = 2

                         Standard orientation:
 ---------------------------------------------------------------------
 Center     Atomic      Atomic             Coordinates (Angstroms)
 Number     Number       Type             X           Y           Z
 ---------------------------------------------------------------------
      1         11           0       -2.822560   -0.812104   -1.594020
      2         11           0       -4.930304   -2.498328    0.325959
      3         11           0       -3.661038    1.011979    1.681568
      4         11           0       -1.547183    2.736389   -0.729886
      5         11           0        1.155239    0.563923   -0.094245
      6         11           0        4.595517    0.037816    0.274198
      7         11           0        7.210328   -1.039674    0.136425
 ---------------------------------------------------------------------

 SCF Done:  E(UB3LYP) =  -1136.10909749     A.U. after   22 cycles

 The electronic state is 2-A.
 Alpha  occ. eigenvalues --  -38.45383 -38.45375 -38.44357 -38.44184 -38.44135
 Alpha  occ. eigenvalues --  -38.43918 -38.43372  -2.21180  -2.21163  -2.20152
 Alpha  occ. eigenvalues --   -2.20026  -2.19937  -2.19706  -2.19226  -1.14871
 Alpha  occ. eigenvalues --   -1.14840  -1.14838  -1.14802  -1.14790  -1.14763
 Alpha  occ. eigenvalues --   -1.13839  -1.13807  -1.13797  -1.13782  -1.13645
 Alpha  occ. eigenvalues --   -1.13645  -1.13603  -1.13600  -1.13543  -1.13373
 Alpha  occ. eigenvalues --   -1.13372  -1.13341  -1.12898  -1.12867  -1.12866
 Alpha  occ. eigenvalues --   -0.16439  -0.14073  -0.12244  -0.10819
 Alpha virt. eigenvalues --   -0.07520  -0.05300  -0.04571  -0.03272  -0.02841
 Alpha virt. eigenvalues --   -0.02612  -0.02291  -0.02129  -0.01392  -0.01079
 Alpha virt. eigenvalues --   -0.00601  -0.00182   0.00171   0.00383   0.00502

  Beta  occ. eigenvalues --  -38.45355 -38.45301 -38.44357 -38.44142 -38.44079
  Beta  occ. eigenvalues --  -38.43913 -38.43372  -2.21129  -2.21026  -2.20155
  Beta  occ. eigenvalues --   -2.19949  -2.19832  -2.19698  -2.19233  -1.14833
  Beta  occ. eigenvalues --   -1.14798  -1.14755  -1.14745  -1.14713  -1.14662
  Beta  occ. eigenvalues --   -1.13845  -1.13811  -1.13773  -1.13734  -1.13592
  Beta  occ. eigenvalues --   -1.13591  -1.13530  -1.13526  -1.13480  -1.13368
  Beta  occ. eigenvalues --   -1.13354  -1.13340  -1.12880  -1.12877  -1.12855
  Beta  occ. eigenvalues --   -0.15918  -0.13572  -0.11970
  Beta virt. eigenvalues --   -0.07493  -0.06908  -0.05177  -0.04249  -0.02943
  Beta virt. eigenvalues --   -0.02490  -0.02250  -0.02098  -0.01941  -0.01298
  Beta virt. eigenvalues --   -0.00689  -0.00333   0.00041   0.00255   0.00458

 Mulliken charges and spin densities:
               1          2
     1  Na  -0.049632   0.158593
     2  Na   0.300691  -0.068196
     3  Na   0.143408   0.378398
     4  Na   0.788190   0.066561
     5  Na   0.280958   0.035547
     6  Na  -1.291797   0.221299
     7  Na  -0.171819   0.207799
 Sum of Mulliken charges =  -0.00000   1.00000

 Dipole moment (field-independent basis, Debye):
    X=             -1.6936    Y=              0.0303    Z=              0.0780  Tot=              1.6957
 Quadrupole moment (field-independent basis, Debye-Ang):
   XX=            -63.4750   YY=            -68.9929   ZZ=            -66.0709
   XY=             -2.0665   XZ=             -2.5463   YZ=             -2.8337

 Normal termination of Gaussian 16 at Thu Nov 30 08:54:44 2023.
