 Gaussian 16, Revision B.01,
 Gaussian 16:  ES64L-G16RevB.01 20-Dec-2017

 -------------------------
 #P B3LYP/6-311+g(d) force
 -------------------------

 -----
 DPGEN
 -----
 Symbolic Z-matrix:
 Charge =  0 Multiplicity = 2

                         Standard orientation:
 ---------------------------------------------------------------------
 Center     Atomic      Atomic             Coordinates (Angstroms)
 Number     Number       Type             X           Y           Z
 ---------------------------------------------------------------------
      1         11           0        3.504930    1.487227   -0.130860
      2         11           0       -1.854160   -2.335723   -0.642233
      3         11           0        5.116915   -1.574639    0.711710
      4         11           0        1.127373   -1.931440   -0.542414
      5         11           0       -5.214962   -1.186157    0.712870
      6         11           0       -2.815548    2.116215    0.010180
      7         11           0        0.135452    3.424517   -0.119252
 ---------------------------------------------------------------------

 SCF Done:  E(UB3LYP) =  -1136.11025369     A.U. after   22 cycles

 The electronic state is 2-A.
 Alpha  occ. eigenvalues --  -38.45449 -38.45208 -38.44989 -38.44755 -38.44450
 Alpha  occ. eigenvalues --  -38.43712 -38.43149  -2.21190  -2.20973  -2.20740
 Alpha  occ. eigenvalues --   -2.20526  -2.20278  -2.19535  -2.18939  -1.14887
 Alpha  occ. eigenvalues --   -1.14870  -1.14806  -1.14635  -1.14625  -1.14584
 Alpha  occ. eigenvalues --   -1.14433  -1.14423  -1.14364  -1.14179  -1.14166
 Alpha  occ. eigenvalues --   -1.14139  -1.13961  -1.13935  -1.13909  -1.13222
 Alpha  occ. eigenvalues --   -1.13197  -1.13156  -1.12607  -1.12604  -1.12584
 Alpha  occ. eigenvalues --   -0.15766  -0.13913  -0.12596  -0.11366
 Alpha virt. eigenvalues --   -0.07311  -0.05012  -0.04672  -0.03681  -0.03084
 Alpha virt. eigenvalues --   -0.02413  -0.02250  -0.01879  -0.01461  -0.00745
 Alpha virt. eigenvalues --   -0.00536  -0.00079   0.00052   0.00353   0.00556

  Beta  occ. eigenvalues --  -38.45447 -38.45165 -38.44994 -38.44673 -38.44380
  Beta  occ. eigenvalues --  -38.43683 -38.43142  -2.21189  -2.20892  -2.20750
  Beta  occ. eigenvalues --   -2.20373  -2.20155  -2.19493  -2.18925  -1.14888
  Beta  occ. eigenvalues --   -1.14870  -1.14791  -1.14579  -1.14567  -1.14532
  Beta  occ. eigenvalues --   -1.14442  -1.14428  -1.14362  -1.14074  -1.14060
  Beta  occ. eigenvalues --   -1.14039  -1.13867  -1.13854  -1.13811  -1.13181
  Beta  occ. eigenvalues --   -1.13174  -1.13093  -1.12599  -1.12594  -1.12577
  Beta  occ. eigenvalues --   -0.15210  -0.13269  -0.12099
  Beta virt. eigenvalues --   -0.07957  -0.07199  -0.04723  -0.04261  -0.03511
  Beta virt. eigenvalues --   -0.02711  -0.02199  -0.01952  -0.01396  -0.01318
  Beta virt. eigenvalues --   -0.00656  -0.00128   0.00042   0.00224   0.00438

 Mulliken charges and spin densities:
               1          2
     1  Na  -0.247624   0.122130
     2  Na  -0.474531  -0.279750
     3  Na   0.884442   0.290277
     4  Na  -0.327612   0.390610
     5  Na   0.500439   0.395892
     6  Na  -0.360622   0.043656
     7  Na   0.025507   0.037186
 Sum of Mulliken charges =  -0.00000   1.00000

 Dipole moment (field-independent basis, Debye):
    X=              1.1970    Y=             -0.5645    Z=              0.3917  Tot=              1.3801
 Quadrupole moment (field-independent basis, Debye-Ang):
   XX=            -50.4546   YY=            -69.4507   ZZ=            -73.5853
   XY=             -1.8353   XZ=              0.2041   YZ=             -2.2705

 Normal termination of Gaussian 16 at Sun Dec  3 14:04:17 2023.
