 Gaussian 16, Revision B.01,
 Gaussian 16:  ES64L-G16RevB.01 20-Dec-2017

 -------------------------
 #P B3LYP/6-311+g(d) force
 -------------------------

 -----
 DPGEN
 -----
 Symbolic Z-matrix:
 Charge =  0 Multiplicity = 2

                         Standard orientation:
 ---------------------------------------------------------------------
 Center     Atomic      Atomic             Coordinates (Angstroms)
 Number     Number       Type             X           Y           Z
 ---------------------------------------------------------------------
      1         11           0       -3.745870    1.218177   -0.547363
      2         11           0        0.341536   -0.973684    2.770883
      3         11           0       -2.479565   -1.976955   -0.305859
      4         11           0       -0.771627    1.519366    0.760486
      5         11           0        1.076787   -1.571114   -2.231389
      6         11           0        3.371504   -0.927905    0.189419
      7         11           0        2.207234    2.712114   -0.636176
 ---------------------------------------------------------------------

 SCF Done:  E(UB3LYP) =  -1136.11230872     A.U. after   23 cycles

 The electronic state is 2-A.
 Alpha  occ. eigenvalues --  -38.45253 -38.44942 -38.44848 -38.44272 -38.44174
 Alpha  occ. eigenvalues --  -38.43923 -38.43080  -2.21068  -2.20705  -2.20650
 Alpha  occ. eigenvalues --   -2.20034  -2.19940  -2.19691  -2.18932  -1.14715
 Alpha  occ. eigenvalues --   -1.14680  -1.14673  -1.14384  -1.14370  -1.14345
 Alpha  occ. eigenvalues --   -1.14317  -1.14307  -1.14282  -1.13716  -1.13705
 Alpha  occ. eigenvalues --   -1.13671  -1.13608  -1.13592  -1.13570  -1.13364
 Alpha  occ. eigenvalues --   -1.13339  -1.13326  -1.12643  -1.12613  -1.12550
 Alpha  occ. eigenvalues --   -0.17015  -0.13373  -0.11794  -0.11141
 Alpha virt. eigenvalues --   -0.06715  -0.05853  -0.04170  -0.03782  -0.03006
 Alpha virt. eigenvalues --   -0.02903  -0.02060  -0.01300  -0.00772  -0.00557
 Alpha virt. eigenvalues --   -0.00153  -0.00039   0.00215   0.00537   0.00563

  Beta  occ. eigenvalues --  -38.45117 -38.44945 -38.44832 -38.44278 -38.44146
  Beta  occ. eigenvalues --  -38.43899 -38.43074  -2.20816  -2.20714  -2.20621
  Beta  occ. eigenvalues --   -2.20047  -2.19886  -2.19645  -2.18925  -1.14542
  Beta  occ. eigenvalues --   -1.14509  -1.14503  -1.14378  -1.14369  -1.14353
  Beta  occ. eigenvalues --   -1.14299  -1.14285  -1.14263  -1.13715  -1.13713
  Beta  occ. eigenvalues --   -1.13681  -1.13571  -1.13559  -1.13531  -1.13330
  Beta  occ. eigenvalues --   -1.13310  -1.13294  -1.12615  -1.12601  -1.12550
  Beta  occ. eigenvalues --   -0.16332  -0.13134  -0.10968
  Beta virt. eigenvalues --   -0.07837  -0.06581  -0.05694  -0.03396  -0.03262
  Beta virt. eigenvalues --   -0.02752  -0.02392  -0.01927  -0.01153  -0.00688
  Beta virt. eigenvalues --   -0.00227  -0.00005   0.00133   0.00275   0.00593

 Mulliken charges and spin densities:
               1          2
     1  Na   0.290497   0.020535
     2  Na   0.356354   0.463627
     3  Na  -0.075793   0.077625
     4  Na  -0.581319   0.133224
     5  Na  -0.119883   0.126022
     6  Na  -0.066871   0.044286
     7  Na   0.197017   0.134681
 Sum of Mulliken charges =  -0.00000   1.00000

 Dipole moment (field-independent basis, Debye):
    X=             -0.2168    Y=             -0.2836    Z=              0.0105  Tot=              0.3571
 Quadrupole moment (field-independent basis, Debye-Ang):
   XX=            -54.0897   YY=            -74.6034   ZZ=            -68.0821
   XY=             -1.1259   XZ=              2.9310   YZ=             -5.9688

 Normal termination of Gaussian 16 at Sun Dec  3 16:25:44 2023.
