 Gaussian 16, Revision B.01,
 Gaussian 16:  ES64L-G16RevB.01 20-Dec-2017

 -------------------------
 #P B3LYP/6-311+g(d) force
 -------------------------

 -----
 DPGEN
 -----
 Symbolic Z-matrix:
 Charge =  0 Multiplicity = 2

                         Standard orientation:
 ---------------------------------------------------------------------
 Center     Atomic      Atomic             Coordinates (Angstroms)
 Number     Number       Type             X           Y           Z
 ---------------------------------------------------------------------
      1         11           0       -2.999162    1.080662    0.439337
      2         11           0       -0.221699   -0.212490    1.854676
      3         11           0       -1.707621   -2.367255   -0.541952
      4         11           0        3.258700    0.576748    0.259289
      5         11           0        0.108832    2.794708   -0.302861
      6         11           0        0.102904    0.222852   -1.831871
      7         11           0        1.458046   -2.095225    0.123382
 ---------------------------------------------------------------------

 SCF Done:  E(UB3LYP) =  -1136.13443086     A.U. after   19 cycles

 The electronic state is 2-A.
 Alpha  occ. eigenvalues --  -38.44058 -38.44055 -38.43670 -38.43482 -38.43392
 Alpha  occ. eigenvalues --  -38.43321 -38.43053  -2.19875  -2.19872  -2.19621
 Alpha  occ. eigenvalues --   -2.19459  -2.19257  -2.19195  -2.19020  -1.13564
 Alpha  occ. eigenvalues --   -1.13556  -1.13534  -1.13525  -1.13509  -1.13505
 Alpha  occ. eigenvalues --   -1.13333  -1.13261  -1.13225  -1.13216  -1.13127
 Alpha  occ. eigenvalues --   -1.13061  -1.12920  -1.12905  -1.12877  -1.12856
 Alpha  occ. eigenvalues --   -1.12851  -1.12829  -1.12711  -1.12678  -1.12619
 Alpha  occ. eigenvalues --   -0.18926  -0.12959  -0.12516  -0.11069
 Alpha virt. eigenvalues --   -0.05742  -0.04808  -0.04468  -0.03238  -0.03076
 Alpha virt. eigenvalues --   -0.02638  -0.01666  -0.01025  -0.00231  -0.00033
 Alpha virt. eigenvalues --    0.00073   0.00338   0.00833   0.00903   0.00941

  Beta  occ. eigenvalues --  -38.44053 -38.44047 -38.43595 -38.43400 -38.43383
  Beta  occ. eigenvalues --  -38.43307 -38.43042  -2.19871  -2.19857  -2.19484
  Beta  occ. eigenvalues --   -2.19310  -2.19243  -2.19172  -2.19006  -1.13559
  Beta  occ. eigenvalues --   -1.13536  -1.13520  -1.13511  -1.13502  -1.13499
  Beta  occ. eigenvalues --   -1.13241  -1.13167  -1.13132  -1.13126  -1.13028
  Beta  occ. eigenvalues --   -1.12962  -1.12887  -1.12874  -1.12858  -1.12845
  Beta  occ. eigenvalues --   -1.12826  -1.12801  -1.12698  -1.12645  -1.12599
  Beta  occ. eigenvalues --   -0.18192  -0.12689  -0.12236
  Beta virt. eigenvalues --   -0.07167  -0.05660  -0.04785  -0.04438  -0.02506
  Beta virt. eigenvalues --   -0.02281  -0.01614  -0.01549  -0.00936  -0.00232
  Beta virt. eigenvalues --   -0.00007   0.00114   0.00362   0.00868   0.00923

 Mulliken charges and spin densities:
               1          2
     1  Na  -0.005171  -0.027691
     2  Na  -0.331507   0.593199
     3  Na   0.179880   0.030007
     4  Na  -0.091415  -0.090723
     5  Na   0.094116  -0.093474
     6  Na  -0.234505   0.518782
     7  Na   0.388602   0.069901
 Sum of Mulliken charges =  -0.00000   1.00000

 Dipole moment (field-independent basis, Debye):
    X=             -0.1368    Y=              0.2406    Z=              0.1047  Tot=              0.2959
 Quadrupole moment (field-independent basis, Debye-Ang):
   XX=            -55.5456   YY=            -65.3507   ZZ=            -72.7725
   XY=              1.2533   XZ=              0.7871   YZ=              1.4046

 Normal termination of Gaussian 16 at Thu Dec  7 06:44:19 2023.
