 Gaussian 16, Revision B.01,
 Gaussian 16:  ES64L-G16RevB.01 20-Dec-2017

 -------------------------
 #P B3LYP/6-311+g(d) force
 -------------------------

 -----
 DPGEN
 -----
 Symbolic Z-matrix:
 Charge =  0 Multiplicity = 2

                         Standard orientation:
 ---------------------------------------------------------------------
 Center     Atomic      Atomic             Coordinates (Angstroms)
 Number     Number       Type             X           Y           Z
 ---------------------------------------------------------------------
      1         11           0       -0.437490    2.803028   -0.569240
      2         11           0        0.039936    0.793385    2.270256
      3         11           0        3.135220    0.896537    0.007182
      4         11           0       -0.036365   -0.325316   -1.659293
      5         11           0        2.023239   -2.035451   -0.355736
      6         11           0       -3.426588    0.130285   -0.326702
      7         11           0       -1.297953   -2.262469    0.633531
 ---------------------------------------------------------------------

 SCF Done:  E(UB3LYP) =  -1136.13035176     A.U. after   19 cycles

 The electronic state is 2-A.
 Alpha  occ. eigenvalues --  -38.44727 -38.44495 -38.44023 -38.43537 -38.43286
 Alpha  occ. eigenvalues --  -38.43226 -38.43117  -2.20514  -2.20308  -2.19858
 Alpha  occ. eigenvalues --   -2.19522  -2.19139  -2.19105  -2.19003  -1.14187
 Alpha  occ. eigenvalues --   -1.14178  -1.14149  -1.13997  -1.13973  -1.13937
 Alpha  occ. eigenvalues --   -1.13513  -1.13490  -1.13477  -1.13268  -1.13186
 Alpha  occ. eigenvalues --   -1.13144  -1.12816  -1.12794  -1.12778  -1.12769
 Alpha  occ. eigenvalues --   -1.12768  -1.12723  -1.12684  -1.12657  -1.12628
 Alpha  occ. eigenvalues --   -0.18433  -0.13105  -0.12081  -0.11111
 Alpha virt. eigenvalues --   -0.06318  -0.04654  -0.04297  -0.03360  -0.03266
 Alpha virt. eigenvalues --   -0.02750  -0.01950  -0.00854  -0.00316  -0.00179
 Alpha virt. eigenvalues --    0.00008   0.00341   0.00685   0.00832   0.00840

  Beta  occ. eigenvalues --  -38.44725 -38.44494 -38.43928 -38.43480 -38.43275
  Beta  occ. eigenvalues --  -38.43219 -38.43101  -2.20512  -2.20309  -2.19682
  Beta  occ. eigenvalues --   -2.19420  -2.19130  -2.19089  -2.18975  -1.14180
  Beta  occ. eigenvalues --   -1.14171  -1.14148  -1.14001  -1.13956  -1.13939
  Beta  occ. eigenvalues --   -1.13395  -1.13368  -1.13350  -1.13196  -1.13116
  Beta  occ. eigenvalues --   -1.13073  -1.12798  -1.12777  -1.12768  -1.12751
  Beta  occ. eigenvalues --   -1.12747  -1.12711  -1.12668  -1.12618  -1.12608
  Beta  occ. eigenvalues --   -0.17716  -0.12913  -0.11853
  Beta virt. eigenvalues --   -0.07160  -0.06271  -0.04640  -0.04147  -0.02650
  Beta virt. eigenvalues --   -0.02507  -0.01867  -0.01730  -0.00801  -0.00352
  Beta virt. eigenvalues --   -0.00072   0.00083   0.00372   0.00816   0.00848

 Mulliken charges and spin densities:
               1          2
     1  Na  -0.008968  -0.038679
     2  Na  -0.547208   0.576994
     3  Na   0.072776  -0.022702
     4  Na  -0.043587   0.237149
     5  Na   0.363467   0.088900
     6  Na   0.103107  -0.077481
     7  Na   0.060413   0.235819
 Sum of Mulliken charges =  -0.00000   1.00000

 Dipole moment (field-independent basis, Debye):
    X=             -0.2073    Y=              0.3481    Z=              0.1644  Tot=              0.4372
 Quadrupole moment (field-independent basis, Debye-Ang):
   XX=            -53.5682   YY=            -68.5220   ZZ=            -72.0510
   XY=              0.2334   XZ=              0.4866   YZ=             -1.7041

 Normal termination of Gaussian 16 at Tue Dec  5 18:20:29 2023.
