 Gaussian 16, Revision B.01,
 Gaussian 16:  ES64L-G16RevB.01 20-Dec-2017

 -------------------------
 #P B3LYP/6-311+g(d) force
 -------------------------

 -----
 DPGEN
 -----
 Symbolic Z-matrix:
 Charge =  0 Multiplicity = 2

                         Standard orientation:
 ---------------------------------------------------------------------
 Center     Atomic      Atomic             Coordinates (Angstroms)
 Number     Number       Type             X           Y           Z
 ---------------------------------------------------------------------
      1         11           0       -3.184061    1.834825    0.351659
      2         11           0       -1.264585    0.402914   -1.639465
      3         11           0        1.744958    2.245949   -0.301053
      4         11           0       -2.600404   -2.210882    0.436206
      5         11           0        1.342079   -1.763707   -1.304912
      6         11           0        3.865379   -0.238894    0.589031
      7         11           0        0.096635   -0.270204    1.868535
 ---------------------------------------------------------------------

 SCF Done:  E(UB3LYP) =  -1136.12147566     A.U. after   24 cycles

 The electronic state is 2-A.
 Alpha  occ. eigenvalues --  -38.45125 -38.44594 -38.44356 -38.44049 -38.44026
 Alpha  occ. eigenvalues --  -38.43452 -38.43191  -2.20924  -2.20419  -2.20148
 Alpha  occ. eigenvalues --   -2.19829  -2.19823  -2.19294  -2.19118  -1.14593
 Alpha  occ. eigenvalues --   -1.14582  -1.14561  -1.14111  -1.14060  -1.14031
 Alpha  occ. eigenvalues --   -1.13854  -1.13794  -1.13781  -1.13508  -1.13507
 Alpha  occ. eigenvalues --   -1.13497  -1.13482  -1.13467  -1.13450  -1.12993
 Alpha  occ. eigenvalues --   -1.12945  -1.12907  -1.12799  -1.12774  -1.12722
 Alpha  occ. eigenvalues --   -0.17982  -0.13793  -0.11014  -0.10862
 Alpha virt. eigenvalues --   -0.06880  -0.05830  -0.04296  -0.03114  -0.02691
 Alpha virt. eigenvalues --   -0.02546  -0.02282  -0.01403  -0.00949  -0.00305
 Alpha virt. eigenvalues --    0.00047   0.00162   0.00369   0.00522   0.00651

  Beta  occ. eigenvalues --  -38.45118 -38.44535 -38.44355 -38.44043 -38.44021
  Beta  occ. eigenvalues --  -38.43403 -38.43133  -2.20913  -2.20311  -2.20148
  Beta  occ. eigenvalues --   -2.19820  -2.19816  -2.19208  -2.19014  -1.14579
  Beta  occ. eigenvalues --   -1.14574  -1.14552  -1.14034  -1.13987  -1.13949
  Beta  occ. eigenvalues --   -1.13851  -1.13792  -1.13777  -1.13504  -1.13491
  Beta  occ. eigenvalues --   -1.13476  -1.13476  -1.13459  -1.13443  -1.12925
  Beta  occ. eigenvalues --   -1.12872  -1.12851  -1.12729  -1.12688  -1.12650
  Beta  occ. eigenvalues --   -0.17264  -0.13627  -0.10791
  Beta virt. eigenvalues --   -0.07030  -0.06693  -0.05776  -0.03804  -0.02899
  Beta virt. eigenvalues --   -0.02369  -0.01976  -0.01546  -0.01303  -0.00702
  Beta virt. eigenvalues --   -0.00180   0.00061   0.00190   0.00490   0.00620

 Mulliken charges and spin densities:
               1          2
     1  Na   0.068352   0.026176
     2  Na   0.252720   0.159172
     3  Na  -0.151911   0.028563
     4  Na  -0.020448   0.065764
     5  Na  -0.203142   0.142496
     6  Na   0.344779   0.081264
     7  Na  -0.290351   0.496566
 Sum of Mulliken charges =  -0.00000   1.00000

 Dipole moment (field-independent basis, Debye):
    X=              0.5814    Y=             -0.1605    Z=              0.6007  Tot=              0.8513
 Quadrupole moment (field-independent basis, Debye-Ang):
   XX=            -47.3824   YY=            -73.1386   ZZ=            -72.5383
   XY=             -0.2990   XZ=             -0.6564   YZ=              1.2020

 Normal termination of Gaussian 16 at Fri Dec  8 04:06:47 2023.
