 Gaussian 16, Revision B.01,
 Gaussian 16:  ES64L-G16RevB.01 20-Dec-2017

 -------------------------
 #P B3LYP/6-311+g(d) force
 -------------------------

 -----
 DPGEN
 -----
 Symbolic Z-matrix:
 Charge =  0 Multiplicity = 2

                         Standard orientation:
 ---------------------------------------------------------------------
 Center     Atomic      Atomic             Coordinates (Angstroms)
 Number     Number       Type             X           Y           Z
 ---------------------------------------------------------------------
      1         11           0       -4.127017   -0.312143    0.654640
      2         11           0        3.865640    0.671437    0.733736
      3         11           0       -1.801574    2.019056   -0.525371
      4         11           0       -0.155787   -0.692117    1.877539
      5         11           0       -1.435122   -1.217368   -1.302862
      6         11           0        1.461855    1.470125   -0.675190
      7         11           0        2.192005   -1.938992   -0.762492
 ---------------------------------------------------------------------

 SCF Done:  E(UB3LYP) =  -1136.11481291     A.U. after   31 cycles

 The electronic state is 2-A.
 Alpha  occ. eigenvalues --  -38.46355 -38.44866 -38.44352 -38.43767 -38.43743
 Alpha  occ. eigenvalues --  -38.42963 -38.42748  -2.22130  -2.20686  -2.20234
 Alpha  occ. eigenvalues --   -2.19634  -2.19603  -2.18839  -2.18696  -1.15824
 Alpha  occ. eigenvalues --   -1.15779  -1.15745  -1.14352  -1.14325  -1.14305
 Alpha  occ. eigenvalues --   -1.13954  -1.13867  -1.13839  -1.13326  -1.13297
 Alpha  occ. eigenvalues --   -1.13289  -1.13264  -1.13260  -1.13233  -1.12538
 Alpha  occ. eigenvalues --   -1.12512  -1.12471  -1.12375  -1.12361  -1.12323
 Alpha  occ. eigenvalues --   -0.18413  -0.14643  -0.10909  -0.10744
 Alpha virt. eigenvalues --   -0.07690  -0.05189  -0.04657  -0.03310  -0.03060
 Alpha virt. eigenvalues --   -0.02238  -0.01982  -0.01363  -0.01201  -0.00329
 Alpha virt. eigenvalues --   -0.00147   0.00168   0.00235   0.00608   0.00675

  Beta  occ. eigenvalues --  -38.46340 -38.44807 -38.44303 -38.43763 -38.43710
  Beta  occ. eigenvalues --  -38.42945 -38.42732  -2.22101  -2.20575  -2.20142
  Beta  occ. eigenvalues --   -2.19600  -2.19580  -2.18810  -2.18674  -1.15800
  Beta  occ. eigenvalues --   -1.15760  -1.15723  -1.14276  -1.14247  -1.14231
  Beta  occ. eigenvalues --   -1.13897  -1.13804  -1.13775  -1.13292  -1.13287
  Beta  occ. eigenvalues --   -1.13259  -1.13233  -1.13227  -1.13201  -1.12512
  Beta  occ. eigenvalues --   -1.12488  -1.12440  -1.12364  -1.12318  -1.12296
  Beta  occ. eigenvalues --   -0.17810  -0.14170  -0.10601
  Beta virt. eigenvalues --   -0.07408  -0.07244  -0.05146  -0.03969  -0.02972
  Beta virt. eigenvalues --   -0.02915  -0.01862  -0.01522  -0.01085  -0.00775
  Beta virt. eigenvalues --   -0.00235  -0.00038   0.00224   0.00400   0.00683

 Mulliken charges and spin densities:
               1          2
     1  Na   0.586184   0.423776
     2  Na   1.189254   0.352384
     3  Na  -0.217668  -0.001513
     4  Na  -0.383860   0.071742
     5  Na  -0.149681   0.175715
     6  Na  -1.229543  -0.041360
     7  Na   0.205314   0.019256
 Sum of Mulliken charges =  -0.00000   1.00000

 Dipole moment (field-independent basis, Debye):
    X=             -0.3572    Y=             -0.8948    Z=              0.6058  Tot=              1.1381
 Quadrupole moment (field-independent basis, Debye-Ang):
   XX=            -53.6300   YY=            -80.3959   ZZ=            -64.9169
   XY=             -2.2440   XZ=              1.0559   YZ=              3.1985

 Normal termination of Gaussian 16 at Thu Dec  7 03:06:45 2023.
