 Gaussian 16, Revision B.01,
 Gaussian 16:  ES64L-G16RevB.01 20-Dec-2017

 -------------------------
 #P B3LYP/6-311+g(d) force
 -------------------------

 -----
 DPGEN
 -----
 Symbolic Z-matrix:
 Charge =  0 Multiplicity = 2

                         Standard orientation:
 ---------------------------------------------------------------------
 Center     Atomic      Atomic             Coordinates (Angstroms)
 Number     Number       Type             X           Y           Z
 ---------------------------------------------------------------------
      1         11           0       -0.062628    0.051769   -1.797984
      2         11           0        0.049452    0.072675    1.911278
      3         11           0       -2.720892    0.800417   -0.489868
      4         11           0        2.090198   -2.132777   -0.251761
      5         11           0       -0.108683    2.955054    0.265824
      6         11           0       -2.167820   -2.369974    0.401624
      7         11           0        2.920374    0.622835   -0.039114
 ---------------------------------------------------------------------

 SCF Done:  E(UB3LYP) =  -1136.13413280     A.U. after   19 cycles

 The electronic state is 2-A.
 Alpha  occ. eigenvalues --  -38.44014 -38.43800 -38.43779 -38.43605 -38.43578
 Alpha  occ. eigenvalues --  -38.43544 -38.42983  -2.19920  -2.19705  -2.19665
 Alpha  occ. eigenvalues --   -2.19566  -2.19501  -2.19357  -2.18843  -1.13723
 Alpha  occ. eigenvalues --   -1.13573  -1.13552  -1.13479  -1.13357  -1.13324
 Alpha  occ. eigenvalues --   -1.13320  -1.13298  -1.13271  -1.13227  -1.13180
 Alpha  occ. eigenvalues --   -1.13172  -1.13170  -1.13134  -1.13124  -1.13022
 Alpha  occ. eigenvalues --   -1.13011  -1.12999  -1.12522  -1.12499  -1.12483
 Alpha  occ. eigenvalues --   -0.18865  -0.13464  -0.12169  -0.11035
 Alpha virt. eigenvalues --   -0.05441  -0.05154  -0.04609  -0.03484  -0.02863
 Alpha virt. eigenvalues --   -0.02691  -0.01427  -0.01105  -0.00267  -0.00138
 Alpha virt. eigenvalues --    0.00021   0.00374   0.00814   0.00894   0.00908

  Beta  occ. eigenvalues --  -38.44009 -38.43785 -38.43774 -38.43538 -38.43530
  Beta  occ. eigenvalues --  -38.43493 -38.42978  -2.19914  -2.19682  -2.19658
  Beta  occ. eigenvalues --   -2.19429  -2.19349  -2.19344  -2.18838  -1.13723
  Beta  occ. eigenvalues --   -1.13558  -1.13534  -1.13440  -1.13323  -1.13312
  Beta  occ. eigenvalues --   -1.13308  -1.13284  -1.13262  -1.13140  -1.13087
  Beta  occ. eigenvalues --   -1.13077  -1.13070  -1.13026  -1.13023  -1.13007
  Beta  occ. eigenvalues --   -1.12993  -1.12983  -1.12513  -1.12491  -1.12468
  Beta  occ. eigenvalues --   -0.18126  -0.13199  -0.11916
  Beta virt. eigenvalues --   -0.07127  -0.05372  -0.05133  -0.04557  -0.02681
  Beta virt. eigenvalues --   -0.02135  -0.01649  -0.01327  -0.01008  -0.00296
  Beta virt. eigenvalues --   -0.00153   0.00123   0.00395   0.00880   0.00903

 Mulliken charges and spin densities:
               1          2
     1  Na  -0.094536   0.438722
     2  Na  -0.357641   0.760659
     3  Na   0.303561   0.031247
     4  Na   0.062198  -0.055211
     5  Na   0.041234  -0.077317
     6  Na  -0.109528  -0.059327
     7  Na   0.154713  -0.038774
 Sum of Mulliken charges =  -0.00000   1.00000

 Dipole moment (field-independent basis, Debye):
    X=              0.1353    Y=             -0.0898    Z=              0.0398  Tot=              0.1672
 Quadrupole moment (field-independent basis, Debye-Ang):
   XX=            -58.8674   YY=            -62.9041   ZZ=            -73.1518
   XY=              0.2919   XZ=             -0.0095   YZ=             -0.3226

 Normal termination of Gaussian 16 at Thu Dec  7 16:50:17 2023.
