 Gaussian 16, Revision B.01,
 Gaussian 16:  ES64L-G16RevB.01 20-Dec-2017

 -------------------------
 #P B3LYP/6-311+g(d) force
 -------------------------

 -----
 DPGEN
 -----
 Symbolic Z-matrix:
 Charge =  0 Multiplicity = 2

                         Standard orientation:
 ---------------------------------------------------------------------
 Center     Atomic      Atomic             Coordinates (Angstroms)
 Number     Number       Type             X           Y           Z
 ---------------------------------------------------------------------
      1         11           0       -1.666375    1.449144   -1.054854
      2         11           0       -1.370964   -1.941739   -1.184998
      3         11           0       -0.111051   -0.299837    1.924293
      4         11           0       -4.159547   -0.050113    1.123494
      5         11           0        1.665516    2.278784   -0.155393
      6         11           0        1.535962   -0.627710   -1.728461
      7         11           0        4.106458   -0.808530    1.075917
 ---------------------------------------------------------------------

 SCF Done:  E(UB3LYP) =  -1136.11718553     A.U. after   35 cycles

 The electronic state is 2-A.
 Alpha  occ. eigenvalues --  -38.45193 -38.44546 -38.44395 -38.44247 -38.44116
 Alpha  occ. eigenvalues --  -38.43826 -38.43197  -2.20932  -2.20397  -2.20158
 Alpha  occ. eigenvalues --   -2.20017  -2.19978  -2.19702  -2.19077  -1.14663
 Alpha  occ. eigenvalues --   -1.14638  -1.14524  -1.14068  -1.14057  -1.13993
 Alpha  occ. eigenvalues --   -1.13824  -1.13814  -1.13767  -1.13694  -1.13677
 Alpha  occ. eigenvalues --   -1.13674  -1.13653  -1.13634  -1.13580  -1.13390
 Alpha  occ. eigenvalues --   -1.13339  -1.13309  -1.12778  -1.12756  -1.12683
 Alpha  occ. eigenvalues --   -0.18022  -0.13584  -0.11727  -0.10817
 Alpha virt. eigenvalues --   -0.07059  -0.05329  -0.04700  -0.03296  -0.02786
 Alpha virt. eigenvalues --   -0.02398  -0.02316  -0.01643  -0.00968  -0.00353
 Alpha virt. eigenvalues --   -0.00073   0.00089   0.00252   0.00478   0.00644

  Beta  occ. eigenvalues --  -38.45225 -38.44479 -38.44346 -38.44222 -38.44089
  Beta  occ. eigenvalues --  -38.43768 -38.43185  -2.20995  -2.20274  -2.20066
  Beta  occ. eigenvalues --   -2.19970  -2.19931  -2.19595  -2.19061  -1.14684
  Beta  occ. eigenvalues --   -1.14682  -1.14575  -1.13984  -1.13982  -1.13892
  Beta  occ. eigenvalues --   -1.13758  -1.13752  -1.13710  -1.13659  -1.13645
  Beta  occ. eigenvalues --   -1.13644  -1.13608  -1.13601  -1.13541  -1.13310
  Beta  occ. eigenvalues --   -1.13277  -1.13229  -1.12756  -1.12727  -1.12672
  Beta  occ. eigenvalues --   -0.17409  -0.13202  -0.10666
  Beta virt. eigenvalues --   -0.07763  -0.06913  -0.05047  -0.04158  -0.02891
  Beta virt. eigenvalues --   -0.02665  -0.02054  -0.01880  -0.01420  -0.00547
  Beta virt. eigenvalues --   -0.00145   0.00000   0.00259   0.00322   0.00624

 Mulliken charges and spin densities:
               1          2
     1  Na  -0.188746   0.216486
     2  Na   0.186687   0.056299
     3  Na  -0.547048  -0.097768
     4  Na   0.304060   0.110506
     5  Na   0.302160   0.188751
     6  Na  -0.136610   0.367879
     7  Na   0.079497   0.157847
 Sum of Mulliken charges =  -0.00000   1.00000

 Dipole moment (field-independent basis, Debye):
    X=             -0.2197    Y=              0.1871    Z=             -0.2045  Tot=              0.3537
 Quadrupole moment (field-independent basis, Debye-Ang):
   XX=            -55.6595   YY=            -66.0750   ZZ=            -76.5275
   XY=              0.8394   XZ=             -0.0444   YZ=             -1.3276

 Normal termination of Gaussian 16 at Thu Dec  7 06:21:13 2023.
