 Gaussian 16, Revision B.01,
 Gaussian 16:  ES64L-G16RevB.01 20-Dec-2017

 -------------------------
 #P B3LYP/6-311+g(d) force
 -------------------------

 -----
 DPGEN
 -----
 Symbolic Z-matrix:
 Charge =  0 Multiplicity = 2

                         Standard orientation:
 ---------------------------------------------------------------------
 Center     Atomic      Atomic             Coordinates (Angstroms)
 Number     Number       Type             X           Y           Z
 ---------------------------------------------------------------------
      1         11           0       -0.779453    1.686821    0.942966
      2         11           0        2.275254    0.613619    0.034173
      3         11           0        0.355284   -1.598563   -0.776664
      4         11           0       -2.903599   -1.012396    1.524297
      5         11           0       -3.879074   -1.324840   -1.287778
      6         11           0        4.240848   -2.456756    0.187485
      7         11           0        0.690741    4.092116   -0.624477
 ---------------------------------------------------------------------

 SCF Done:  E(UB3LYP) =  -1136.11484864     A.U. after   26 cycles

 The electronic state is 2-A.
 Alpha  occ. eigenvalues --  -38.45647 -38.44946 -38.44391 -38.44222 -38.43596
 Alpha  occ. eigenvalues --  -38.43242 -38.43238  -2.21450  -2.20697  -2.20248
 Alpha  occ. eigenvalues --   -2.20096  -2.19449  -2.19136  -2.19065  -1.15195
 Alpha  occ. eigenvalues --   -1.15131  -1.15015  -1.14371  -1.14367  -1.14303
 Alpha  occ. eigenvalues --   -1.13962  -1.13917  -1.13877  -1.13853  -1.13792
 Alpha  occ. eigenvalues --   -1.13645  -1.13106  -1.13076  -1.13064  -1.12831
 Alpha  occ. eigenvalues --   -1.12821  -1.12793  -1.12714  -1.12708  -1.12653
 Alpha  occ. eigenvalues --   -0.17278  -0.13875  -0.12635  -0.09727
 Alpha virt. eigenvalues --   -0.07262  -0.05345  -0.04714  -0.03640  -0.02967
 Alpha virt. eigenvalues --   -0.02318  -0.02038  -0.01534  -0.01141  -0.00774
 Alpha virt. eigenvalues --   -0.00297   0.00155   0.00320   0.00440   0.00565

  Beta  occ. eigenvalues --  -38.45638 -38.44929 -38.44380 -38.44222 -38.43520
  Beta  occ. eigenvalues --  -38.43211 -38.43195  -2.21435  -2.20665  -2.20236
  Beta  occ. eigenvalues --   -2.20098  -2.19306  -2.19092  -2.18977  -1.15183
  Beta  occ. eigenvalues --   -1.15110  -1.15008  -1.14349  -1.14344  -1.14283
  Beta  occ. eigenvalues --   -1.13938  -1.13908  -1.13845  -1.13842  -1.13778
  Beta  occ. eigenvalues --   -1.13655  -1.13012  -1.12977  -1.12968  -1.12798
  Beta  occ. eigenvalues --   -1.12791  -1.12741  -1.12653  -1.12646  -1.12597
  Beta  occ. eigenvalues --   -0.16762  -0.13440  -0.12333
  Beta virt. eigenvalues --   -0.07043  -0.06308  -0.05114  -0.04341  -0.03463
  Beta virt. eigenvalues --   -0.02728  -0.02115  -0.01831  -0.01105  -0.00919
  Beta virt. eigenvalues --   -0.00373  -0.00120   0.00252   0.00539   0.00614

 Mulliken charges and spin densities:
               1          2
     1  Na  -0.824384   0.059283
     2  Na  -0.758409  -0.000757
     3  Na  -0.594916  -0.124834
     4  Na   0.445669   0.082460
     5  Na   0.014770   0.500917
     6  Na   0.657583   0.148310
     7  Na   1.059686   0.334620
 Sum of Mulliken charges =  -0.00000   1.00000

 Dipole moment (field-independent basis, Debye):
    X=              1.1715    Y=             -1.1123    Z=              0.6288  Tot=              1.7335
 Quadrupole moment (field-independent basis, Debye-Ang):
   XX=            -66.4433   YY=            -68.5957   ZZ=            -67.1997
   XY=             -7.0220   XZ=             -2.2693   YZ=             -1.7676

 Normal termination of Gaussian 16 at Tue Nov 28 20:07:58 2023.
