 Gaussian 16, Revision B.01,
 Gaussian 16:  ES64L-G16RevB.01 20-Dec-2017

 -------------------------
 #P B3LYP/6-311+g(d) force
 -------------------------

 -----
 DPGEN
 -----
 Symbolic Z-matrix:
 Charge =  0 Multiplicity = 2

                         Standard orientation:
 ---------------------------------------------------------------------
 Center     Atomic      Atomic             Coordinates (Angstroms)
 Number     Number       Type             X           Y           Z
 ---------------------------------------------------------------------
      1         11           0       -1.701079   -1.384291   -1.609110
      2         11           0       -2.698271    0.790441    1.536843
      3         11           0        4.132070    2.036313    0.559296
      4         11           0        0.615493    0.452502    0.310037
      5         11           0        1.731085   -2.173814   -1.894374
      6         11           0       -0.091182   -2.423504    2.302988
      7         11           0       -1.988116    2.702353   -1.205680
 ---------------------------------------------------------------------

 SCF Done:  E(UB3LYP) =  -1136.11237820     A.U. after   26 cycles

 The electronic state is 2-A.
 Alpha  occ. eigenvalues --  -38.44958 -38.44872 -38.44722 -38.44612 -38.44403
 Alpha  occ. eigenvalues --  -38.43529 -38.43041  -2.20769  -2.20644  -2.20496
 Alpha  occ. eigenvalues --   -2.20417  -2.20187  -2.19262  -2.18920  -1.14458
 Alpha  occ. eigenvalues --   -1.14416  -1.14385  -1.14311  -1.14289  -1.14268
 Alpha  occ. eigenvalues --   -1.14166  -1.14128  -1.14112  -1.14110  -1.14076
 Alpha  occ. eigenvalues --   -1.14039  -1.13856  -1.13845  -1.13814  -1.12928
 Alpha  occ. eigenvalues --   -1.12922  -1.12886  -1.12650  -1.12576  -1.12543
 Alpha  occ. eigenvalues --   -0.17427  -0.12707  -0.11807  -0.10996
 Alpha virt. eigenvalues --   -0.06129  -0.05667  -0.05359  -0.03245  -0.02857
 Alpha virt. eigenvalues --   -0.02424  -0.01735  -0.01528  -0.01341  -0.00331
 Alpha virt. eigenvalues --   -0.00159   0.00027   0.00216   0.00270   0.00598

  Beta  occ. eigenvalues --  -38.44911 -38.44842 -38.44655 -38.44603 -38.44397
  Beta  occ. eigenvalues --  -38.43501 -38.43030  -2.20684  -2.20590  -2.20402
  Beta  occ. eigenvalues --   -2.20373  -2.20176  -2.19210  -2.18903  -1.14401
  Beta  occ. eigenvalues --   -1.14352  -1.14320  -1.14270  -1.14254  -1.14226
  Beta  occ. eigenvalues --   -1.14097  -1.14077  -1.14071  -1.14040  -1.14033
  Beta  occ. eigenvalues --   -1.14018  -1.13846  -1.13838  -1.13807  -1.12892
  Beta  occ. eigenvalues --   -1.12887  -1.12852  -1.12604  -1.12573  -1.12536
  Beta  occ. eigenvalues --   -0.16810  -0.12447  -0.10591
  Beta virt. eigenvalues --   -0.08148  -0.05883  -0.05315  -0.05056  -0.02775
  Beta virt. eigenvalues --   -0.02545  -0.01908  -0.01681  -0.01276  -0.00956
  Beta virt. eigenvalues --   -0.00184  -0.00054   0.00132   0.00264   0.00320

 Mulliken charges and spin densities:
               1          2
     1  Na   0.679126   0.292468
     2  Na   0.612381  -0.061412
     3  Na   0.195267   0.059959
     4  Na  -1.651875   0.558292
     5  Na  -0.043192   0.021155
     6  Na   0.075241   0.138093
     7  Na   0.133052  -0.008555
 Sum of Mulliken charges =  -0.00000   1.00000

 Dipole moment (field-independent basis, Debye):
    X=             -1.7284    Y=             -1.1156    Z=             -0.5046  Tot=              2.1181
 Quadrupole moment (field-independent basis, Debye-Ang):
   XX=            -65.1961   YY=            -65.6209   ZZ=            -64.0606
   XY=             -6.7136   XZ=             -0.6144   YZ=             -0.8818

 Normal termination of Gaussian 16 at Tue Dec  5 10:59:05 2023.
