 Gaussian 16, Revision B.01,
 Gaussian 16:  ES64L-G16RevB.01 20-Dec-2017

 -------------------------
 #P B3LYP/6-311+g(d) force
 -------------------------

 -----
 DPGEN
 -----
 Symbolic Z-matrix:
 Charge =  0 Multiplicity = 2

                         Standard orientation:
 ---------------------------------------------------------------------
 Center     Atomic      Atomic             Coordinates (Angstroms)
 Number     Number       Type             X           Y           Z
 ---------------------------------------------------------------------
      1         11           0        1.331428   -2.483544   -0.244457
      2         11           0        0.482790    3.031917   -0.223115
      3         11           0       -2.748437    1.120912    0.184482
      4         11           0       -1.862751   -2.336162   -0.222737
      5         11           0       -0.096377    0.021537    2.144761
      6         11           0        3.231381    0.221933    0.049873
      7         11           0       -0.338034    0.423407   -1.688807
 ---------------------------------------------------------------------

 SCF Done:  E(UB3LYP) =  -1136.13665407     A.U. after   18 cycles

 The electronic state is 2-A.
 Alpha  occ. eigenvalues --  -38.43896 -38.43885 -38.43855 -38.43853 -38.43423
 Alpha  occ. eigenvalues --  -38.43344 -38.43304  -2.19755  -2.19724  -2.19693
 Alpha  occ. eigenvalues --   -2.19684  -2.19322  -2.19289  -2.19177  -1.13474
 Alpha  occ. eigenvalues --   -1.13437  -1.13416  -1.13379  -1.13371  -1.13370
 Alpha  occ. eigenvalues --   -1.13360  -1.13352  -1.13339  -1.13331  -1.13329
 Alpha  occ. eigenvalues --   -1.13299  -1.13014  -1.12985  -1.12965  -1.12947
 Alpha  occ. eigenvalues --   -1.12936  -1.12915  -1.12840  -1.12832  -1.12801
 Alpha  occ. eigenvalues --   -0.18617  -0.12841  -0.12614  -0.10932
 Alpha virt. eigenvalues --   -0.05651  -0.05005  -0.04804  -0.03176  -0.03014
 Alpha virt. eigenvalues --   -0.02768  -0.01335  -0.01222  -0.00408  -0.00225
 Alpha virt. eigenvalues --   -0.00035   0.00360   0.00826   0.00866   0.00927

  Beta  occ. eigenvalues --  -38.43897 -38.43876 -38.43847 -38.43754 -38.43417
  Beta  occ. eigenvalues --  -38.43298 -38.43282  -2.19743  -2.19697  -2.19677
  Beta  occ. eigenvalues --   -2.19539  -2.19281  -2.19208  -2.19170  -1.13462
  Beta  occ. eigenvalues --   -1.13400  -1.13389  -1.13374  -1.13366  -1.13350
  Beta  occ. eigenvalues --   -1.13338  -1.13318  -1.13297  -1.13258  -1.13221
  Beta  occ. eigenvalues --   -1.13204  -1.13002  -1.12945  -1.12914  -1.12909
  Beta  occ. eigenvalues --   -1.12871  -1.12852  -1.12830  -1.12813  -1.12795
  Beta  occ. eigenvalues --   -0.17880  -0.12620  -0.12388
  Beta virt. eigenvalues --   -0.06982  -0.05637  -0.04957  -0.04755  -0.02384
  Beta virt. eigenvalues --   -0.02258  -0.01689  -0.01254  -0.01147  -0.00461
  Beta virt. eigenvalues --   -0.00271   0.00115   0.00394   0.00835   0.00905

 Mulliken charges and spin densities:
               1          2
     1  Na  -0.011347  -0.031635
     2  Na   0.142188  -0.106511
     3  Na   0.370685  -0.008934
     4  Na   0.216951  -0.004120
     5  Na  -0.533079   0.757905
     6  Na  -0.029990  -0.067062
     7  Na  -0.155408   0.460357
 Sum of Mulliken charges =  -0.00000   1.00000

 Dipole moment (field-independent basis, Debye):
    X=             -0.0634    Y=              0.3561    Z=              0.1943  Tot=              0.4106
 Quadrupole moment (field-independent basis, Debye-Ang):
   XX=            -59.1759   YY=            -61.8615   ZZ=            -73.5125
   XY=              0.8379   XZ=             -0.3110   YZ=              0.8862

 Normal termination of Gaussian 16 at Thu Dec  7 10:16:48 2023.
