 Gaussian 16, Revision B.01,
 Gaussian 16:  ES64L-G16RevB.01 20-Dec-2017

 -------------------------
 #P B3LYP/6-311+g(d) force
 -------------------------

 -----
 DPGEN
 -----
 Symbolic Z-matrix:
 Charge =  0 Multiplicity = 2

                         Standard orientation:
 ---------------------------------------------------------------------
 Center     Atomic      Atomic             Coordinates (Angstroms)
 Number     Number       Type             X           Y           Z
 ---------------------------------------------------------------------
      1         11           0       -2.751948   -0.775105    0.397718
      2         11           0        0.055378   -1.187080    2.220599
      3         11           0        1.510463    2.088559   -0.599396
      4         11           0       -0.925065    2.237898    1.178270
      5         11           0        0.009058   -2.284028   -1.278330
      6         11           0       -1.249830    0.621964   -2.044943
      7         11           0        3.351945   -0.702208    0.126082
 ---------------------------------------------------------------------

 SCF Done:  E(UB3LYP) =  -1136.13011661     A.U. after   20 cycles

 The electronic state is 2-A.
 Alpha  occ. eigenvalues --  -38.44632 -38.44206 -38.43881 -38.43764 -38.43694
 Alpha  occ. eigenvalues --  -38.43531 -38.43018  -2.20470  -2.20128  -2.19725
 Alpha  occ. eigenvalues --   -2.19648  -2.19470  -2.19417  -2.18899  -1.14138
 Alpha  occ. eigenvalues --   -1.14112  -1.14084  -1.13814  -1.13796  -1.13730
 Alpha  occ. eigenvalues --   -1.13422  -1.13377  -1.13336  -1.13326  -1.13315
 Alpha  occ. eigenvalues --   -1.13268  -1.13145  -1.13139  -1.13135  -1.13108
 Alpha  occ. eigenvalues --   -1.13064  -1.13042  -1.12578  -1.12568  -1.12508
 Alpha  occ. eigenvalues --   -0.18548  -0.12598  -0.12342  -0.12044
 Alpha virt. eigenvalues --   -0.05552  -0.04561  -0.04450  -0.03771  -0.03521
 Alpha virt. eigenvalues --   -0.03463  -0.01187  -0.00562  -0.00466   0.00044
 Alpha virt. eigenvalues --    0.00315   0.00427   0.00501   0.00865   0.00872

  Beta  occ. eigenvalues --  -38.44557 -38.44137 -38.43849 -38.43755 -38.43698
  Beta  occ. eigenvalues --  -38.43505 -38.43013  -2.20334  -2.20003  -2.19668
  Beta  occ. eigenvalues --   -2.19638  -2.19478  -2.19371  -2.18892  -1.14046
  Beta  occ. eigenvalues --   -1.14019  -1.13980  -1.13731  -1.13710  -1.13634
  Beta  occ. eigenvalues --   -1.13373  -1.13337  -1.13313  -1.13293  -1.13286
  Beta  occ. eigenvalues --   -1.13252  -1.13148  -1.13141  -1.13114  -1.13109
  Beta  occ. eigenvalues --   -1.13021  -1.13006  -1.12568  -1.12554  -1.12506
  Beta  occ. eigenvalues --   -0.17693  -0.12428  -0.11916
  Beta virt. eigenvalues --   -0.08233  -0.05429  -0.04352  -0.04021  -0.03384
  Beta virt. eigenvalues --   -0.02917  -0.02484  -0.01140  -0.00526  -0.00185
  Beta virt. eigenvalues --    0.00116   0.00328   0.00472   0.00643   0.00903

 Mulliken charges and spin densities:
               1          2
     1  Na   0.392570  -0.038413
     2  Na  -0.194399   0.460726
     3  Na  -0.006038   0.130391
     4  Na  -0.154244   0.059502
     5  Na  -0.214086   0.076056
     6  Na   0.161815   0.434986
     7  Na   0.014382  -0.123249
 Sum of Mulliken charges =  -0.00000   1.00000

 Dipole moment (field-independent basis, Debye):
    X=             -0.3682    Y=             -0.4088    Z=              0.1901  Tot=              0.5821
 Quadrupole moment (field-independent basis, Debye-Ang):
   XX=            -63.1500   YY=            -71.5022   ZZ=            -63.2153
   XY=             -0.6230   XZ=             -0.8987   YZ=              0.7536

 Normal termination of Gaussian 16 at Mon Dec  4 02:49:37 2023.
