 Gaussian 16, Revision B.01,
 Gaussian 16:  ES64L-G16RevB.01 20-Dec-2017

 -------------------------
 #P B3LYP/6-311+g(d) force
 -------------------------

 -----
 DPGEN
 -----
 Symbolic Z-matrix:
 Charge =  0 Multiplicity = 2

                         Standard orientation:
 ---------------------------------------------------------------------
 Center     Atomic      Atomic             Coordinates (Angstroms)
 Number     Number       Type             X           Y           Z
 ---------------------------------------------------------------------
      1         11           0        0.127028   -1.487524   -1.327149
      2         11           0       -0.306465    3.150902    0.248973
      3         11           0       -3.094291   -1.806917    0.488684
      4         11           0       -0.160378   -0.089919    2.134254
      5         11           0        3.564306   -1.577449    0.211935
      6         11           0        1.747832    1.261080   -0.539245
      7         11           0       -1.878031    0.549827   -1.217452
 ---------------------------------------------------------------------

 SCF Done:  E(UB3LYP) =  -1136.12608363     A.U. after   20 cycles

 The electronic state is 2-A.
 Alpha  occ. eigenvalues --  -38.44453 -38.44133 -38.43928 -38.43851 -38.43566
 Alpha  occ. eigenvalues --  -38.43266 -38.43032  -2.20298  -2.19960  -2.19793
 Alpha  occ. eigenvalues --   -2.19705  -2.19558  -2.19240  -2.18925  -1.13971
 Alpha  occ. eigenvalues --   -1.13922  -1.13915  -1.13665  -1.13650  -1.13606
 Alpha  occ. eigenvalues --   -1.13598  -1.13438  -1.13400  -1.13384  -1.13368
 Alpha  occ. eigenvalues --   -1.13333  -1.13202  -1.13185  -1.13125  -1.12985
 Alpha  occ. eigenvalues --   -1.12933  -1.12888  -1.12572  -1.12550  -1.12542
 Alpha  occ. eigenvalues --   -0.18765  -0.13136  -0.12187  -0.11250
 Alpha virt. eigenvalues --   -0.06081  -0.04922  -0.04065  -0.03529  -0.02962
 Alpha virt. eigenvalues --   -0.02744  -0.01801  -0.01298  -0.00344  -0.00096
 Alpha virt. eigenvalues --    0.00223   0.00390   0.00681   0.00800   0.00881

  Beta  occ. eigenvalues --  -38.44359 -38.44127 -38.43932 -38.43804 -38.43524
  Beta  occ. eigenvalues --  -38.43254 -38.43031  -2.20123  -2.19951  -2.19715
  Beta  occ. eigenvalues --   -2.19710  -2.19485  -2.19222  -2.18926  -1.13855
  Beta  occ. eigenvalues --   -1.13798  -1.13786  -1.13654  -1.13606  -1.13581
  Beta  occ. eigenvalues --   -1.13576  -1.13391  -1.13372  -1.13368  -1.13345
  Beta  occ. eigenvalues --   -1.13331  -1.13148  -1.13114  -1.13081  -1.12978
  Beta  occ. eigenvalues --   -1.12919  -1.12850  -1.12574  -1.12544  -1.12530
  Beta  occ. eigenvalues --   -0.17959  -0.12972  -0.12055
  Beta virt. eigenvalues --   -0.07183  -0.05902  -0.04854  -0.04035  -0.02829
  Beta virt. eigenvalues --   -0.02185  -0.01905  -0.01650  -0.01181  -0.00208
  Beta virt. eigenvalues --   -0.00045   0.00256   0.00473   0.00751   0.00863

 Mulliken charges and spin densities:
               1          2
     1  Na  -0.187402   0.095667
     2  Na   0.648342  -0.111644
     3  Na  -0.073755  -0.122243
     4  Na  -0.613611   0.741760
     5  Na   0.231859  -0.082357
     6  Na  -0.376565   0.165175
     7  Na   0.371132   0.313642
 Sum of Mulliken charges =  -0.00000   1.00000

 Dipole moment (field-independent basis, Debye):
    X=             -0.2746    Y=             -0.5136    Z=              0.5590  Tot=              0.8073
 Quadrupole moment (field-independent basis, Debye-Ang):
   XX=            -57.0246   YY=            -65.1703   ZZ=            -71.2503
   XY=             -0.1609   XZ=              0.1677   YZ=             -1.2254

 Normal termination of Gaussian 16 at Thu Dec  7 16:50:37 2023.
