 Gaussian 16, Revision B.01,
 Gaussian 16:  ES64L-G16RevB.01 20-Dec-2017

 -------------------------
 #P B3LYP/6-311+g(d) force
 -------------------------

 -----
 DPGEN
 -----
 Symbolic Z-matrix:
 Charge =  0 Multiplicity = 2

                         Standard orientation:
 ---------------------------------------------------------------------
 Center     Atomic      Atomic             Coordinates (Angstroms)
 Number     Number       Type             X           Y           Z
 ---------------------------------------------------------------------
      1         11           0       -0.035208   -0.091147   -1.661406
      2         11           0       -0.186972   -2.825957    0.165410
      3         11           0       -1.668378    2.812654    0.291193
      4         11           0       -0.262435   -0.127945    2.099243
      5         11           0       -2.991324   -1.072677   -0.537612
      6         11           0        3.391980   -0.834477    0.016027
      7         11           0        1.752338    2.139548   -0.372855
 ---------------------------------------------------------------------

 SCF Done:  E(UB3LYP) =  -1136.13465033     A.U. after   19 cycles

 The electronic state is 2-A.
 Alpha  occ. eigenvalues --  -38.44144 -38.44030 -38.43828 -38.43535 -38.43524
 Alpha  occ. eigenvalues --  -38.43493 -38.43472  -2.19976  -2.19809  -2.19698
 Alpha  occ. eigenvalues --   -2.19452  -2.19408  -2.19343  -2.19318  -1.13664
 Alpha  occ. eigenvalues --   -1.13625  -1.13611  -1.13486  -1.13471  -1.13450
 Alpha  occ. eigenvalues --   -1.13372  -1.13330  -1.13315  -1.13188  -1.13160
 Alpha  occ. eigenvalues --   -1.13082  -1.13079  -1.13046  -1.13018  -1.13006
 Alpha  occ. eigenvalues --   -1.12997  -1.12987  -1.12981  -1.12967  -1.12927
 Alpha  occ. eigenvalues --   -0.18360  -0.12960  -0.12242  -0.10864
 Alpha virt. eigenvalues --   -0.05729  -0.05113  -0.04764  -0.03183  -0.02890
 Alpha virt. eigenvalues --   -0.02689  -0.01700  -0.01248  -0.00391  -0.00274
 Alpha virt. eigenvalues --   -0.00034   0.00321   0.00759   0.00838   0.00883

  Beta  occ. eigenvalues --  -38.44127 -38.44035 -38.43730 -38.43526 -38.43522
  Beta  occ. eigenvalues --  -38.43463 -38.43432  -2.19949  -2.19819  -2.19519
  Beta  occ. eigenvalues --   -2.19395  -2.19343  -2.19329  -2.19315  -1.13635
  Beta  occ. eigenvalues --   -1.13603  -1.13590  -1.13493  -1.13468  -1.13457
  Beta  occ. eigenvalues --   -1.13257  -1.13206  -1.13186  -1.13134  -1.13114
  Beta  occ. eigenvalues --   -1.13045  -1.13027  -1.13006  -1.12990  -1.12986
  Beta  occ. eigenvalues --   -1.12977  -1.12969  -1.12962  -1.12947  -1.12921
  Beta  occ. eigenvalues --   -0.17633  -0.12705  -0.12046
  Beta virt. eigenvalues --   -0.06949  -0.05657  -0.05077  -0.04699  -0.02434
  Beta virt. eigenvalues --   -0.02197  -0.01690  -0.01558  -0.01154  -0.00432
  Beta virt. eigenvalues --   -0.00275   0.00098   0.00353   0.00808   0.00860

 Mulliken charges and spin densities:
               1          2
     1  Na  -0.032577   0.405555
     2  Na   0.171150  -0.002106
     3  Na  -0.046753  -0.045391
     4  Na  -0.405060   0.746836
     5  Na   0.212689   0.005270
     6  Na  -0.073453  -0.079429
     7  Na   0.174006  -0.030735
 Sum of Mulliken charges =  -0.00000   1.00000

 Dipole moment (field-independent basis, Debye):
    X=             -0.1867    Y=             -0.2245    Z=              0.1290  Tot=              0.3192
 Quadrupole moment (field-independent basis, Debye-Ang):
   XX=            -56.3015   YY=            -63.2139   ZZ=            -74.0503
   XY=             -1.1742   XZ=              0.8440   YZ=              0.1050

 Normal termination of Gaussian 16 at Tue Dec  5 18:34:26 2023.
