 Gaussian 16, Revision B.01,
 Gaussian 16:  ES64L-G16RevB.01 20-Dec-2017

 -------------------------
 #P B3LYP/6-311+g(d) force
 -------------------------

 -----
 DPGEN
 -----
 Symbolic Z-matrix:
 Charge =  0 Multiplicity = 2

                         Standard orientation:
 ---------------------------------------------------------------------
 Center     Atomic      Atomic             Coordinates (Angstroms)
 Number     Number       Type             X           Y           Z
 ---------------------------------------------------------------------
      1         11           0       -0.221410   -0.041134    2.045594
      2         11           0        0.714295   -2.685705   -0.331681
      3         11           0        3.418648   -0.190902    0.058836
      4         11           0       -2.671697    1.847651   -0.321337
      5         11           0        1.033905    2.943296   -0.059821
      6         11           0        0.149078   -0.032372   -1.430674
      7         11           0       -2.422819   -1.840834    0.039083
 ---------------------------------------------------------------------

 SCF Done:  E(UB3LYP) =  -1136.13418069     A.U. after   20 cycles

 The electronic state is 2-A.
 Alpha  occ. eigenvalues --  -38.44334 -38.44018 -38.43987 -38.43655 -38.43399
 Alpha  occ. eigenvalues --  -38.43364 -38.42996  -2.20111  -2.19811  -2.19780
 Alpha  occ. eigenvalues --   -2.19523  -2.19286  -2.19279  -2.19016  -1.13787
 Alpha  occ. eigenvalues --   -1.13763  -1.13757  -1.13489  -1.13472  -1.13466
 Alpha  occ. eigenvalues --   -1.13453  -1.13445  -1.13400  -1.13215  -1.13188
 Alpha  occ. eigenvalues --   -1.13167  -1.13087  -1.12964  -1.12921  -1.12898
 Alpha  occ. eigenvalues --   -1.12895  -1.12878  -1.12694  -1.12641  -1.12610
 Alpha  occ. eigenvalues --   -0.18517  -0.12766  -0.12588  -0.10403
 Alpha virt. eigenvalues --   -0.05890  -0.05300  -0.04787  -0.02909  -0.02804
 Alpha virt. eigenvalues --   -0.02301  -0.01741  -0.01294  -0.00636  -0.00408
 Alpha virt. eigenvalues --    0.00002   0.00320   0.00765   0.00804   0.00868

  Beta  occ. eigenvalues --  -38.44336 -38.44011 -38.43986 -38.43649 -38.43351
  Beta  occ. eigenvalues --  -38.43299 -38.42942  -2.20115  -2.19801  -2.19780
  Beta  occ. eigenvalues --   -2.19516  -2.19262  -2.19100  -2.18920  -1.13777
  Beta  occ. eigenvalues --   -1.13767  -1.13759  -1.13472  -1.13465  -1.13455
  Beta  occ. eigenvalues --   -1.13446  -1.13436  -1.13402  -1.13212  -1.13167
  Beta  occ. eigenvalues --   -1.13150  -1.13061  -1.12884  -1.12870  -1.12836
  Beta  occ. eigenvalues --   -1.12771  -1.12766  -1.12622  -1.12572  -1.12542
  Beta  occ. eigenvalues --   -0.17800  -0.12569  -0.12335
  Beta virt. eigenvalues --   -0.06484  -0.05883  -0.05260  -0.04746  -0.02191
  Beta virt. eigenvalues --   -0.02048  -0.01660  -0.01263  -0.01193  -0.00683
  Beta virt. eigenvalues --   -0.00443   0.00152   0.00359   0.00787   0.00829

 Mulliken charges and spin densities:
               1          2
     1  Na  -0.488357   0.788318
     2  Na   0.428684   0.032774
     3  Na   0.035694  -0.049461
     4  Na   0.030223  -0.042615
     5  Na  -0.015380  -0.094706
     6  Na  -0.359034   0.309923
     7  Na   0.368170   0.055767
 Sum of Mulliken charges =  -0.00000   1.00000

 Dipole moment (field-independent basis, Debye):
    X=              0.1592    Y=              0.2943    Z=              0.1896  Tot=              0.3846
 Quadrupole moment (field-independent basis, Debye-Ang):
   XX=            -54.0400   YY=            -60.9448   ZZ=            -76.5688
   XY=              0.3767   XZ=              0.9893   YZ=             -0.0127

 Normal termination of Gaussian 16 at Thu Dec  7 14:45:32 2023.
