 Gaussian 16, Revision B.01,
 Gaussian 16:  ES64L-G16RevB.01 20-Dec-2017

 -------------------------
 #P B3LYP/6-311+g(d) force
 -------------------------

 -----
 DPGEN
 -----
 Symbolic Z-matrix:
 Charge =  0 Multiplicity = 2

                         Standard orientation:
 ---------------------------------------------------------------------
 Center     Atomic      Atomic             Coordinates (Angstroms)
 Number     Number       Type             X           Y           Z
 ---------------------------------------------------------------------
      1         11           0        0.012046    0.094642    2.015199
      2         11           0        1.955072    2.853592   -0.185556
      3         11           0       -2.956779   -1.478899   -0.288705
      4         11           0        0.013436    0.121494   -1.411797
      5         11           0        0.763055   -2.903361    0.009119
      6         11           0        3.203959   -0.615617   -0.147968
      7         11           0       -2.990790    1.928149    0.009709
 ---------------------------------------------------------------------

 SCF Done:  E(UB3LYP) =  -1136.13086066     A.U. after   21 cycles

 The electronic state is 2-A.
 Alpha  occ. eigenvalues --  -38.44730 -38.44548 -38.44385 -38.43718 -38.43430
 Alpha  occ. eigenvalues --  -38.43298 -38.43035  -2.20502  -2.20374  -2.20188
 Alpha  occ. eigenvalues --   -2.19496  -2.19358  -2.19163  -2.18880  -1.14173
 Alpha  occ. eigenvalues --   -1.14158  -1.14150  -1.14054  -1.14037  -1.14003
 Alpha  occ. eigenvalues --   -1.13864  -1.13843  -1.13820  -1.13171  -1.13151
 Alpha  occ. eigenvalues --   -1.13144  -1.13084  -1.12998  -1.12975  -1.12838
 Alpha  occ. eigenvalues --   -1.12777  -1.12773  -1.12555  -1.12537  -1.12527
 Alpha  occ. eigenvalues --   -0.18048  -0.13363  -0.11883  -0.10098
 Alpha virt. eigenvalues --   -0.06300  -0.05769  -0.04649  -0.03119  -0.02437
 Alpha virt. eigenvalues --   -0.02167  -0.02041  -0.01515  -0.00998  -0.00595
 Alpha virt. eigenvalues --   -0.00031   0.00273   0.00647   0.00692   0.00820

  Beta  occ. eigenvalues --  -38.44731 -38.44542 -38.44376 -38.43717 -38.43389
  Beta  occ. eigenvalues --  -38.43192 -38.43030  -2.20505  -2.20365  -2.20174
  Beta  occ. eigenvalues --   -2.19497  -2.19284  -2.18967  -2.18876  -1.14170
  Beta  occ. eigenvalues --   -1.14157  -1.14148  -1.14042  -1.14018  -1.14001
  Beta  occ. eigenvalues --   -1.13845  -1.13828  -1.13814  -1.13166  -1.13147
  Beta  occ. eigenvalues --   -1.13142  -1.13020  -1.12945  -1.12920  -1.12707
  Beta  occ. eigenvalues --   -1.12641  -1.12633  -1.12553  -1.12528  -1.12508
  Beta  occ. eigenvalues --   -0.17360  -0.13156  -0.11695
  Beta virt. eigenvalues --   -0.06275  -0.06226  -0.05675  -0.04639  -0.02426
  Beta virt. eigenvalues --   -0.01942  -0.01749  -0.01481  -0.01148  -0.00983
  Beta virt. eigenvalues --   -0.00617   0.00146   0.00336   0.00686   0.00740

 Mulliken charges and spin densities:
               1          2
     1  Na  -0.402340   0.741402
     2  Na   0.017012  -0.050286
     3  Na   0.205803   0.053564
     4  Na  -0.239966   0.249992
     5  Na   0.065876   0.012966
     6  Na   0.274606   0.034072
     7  Na   0.079009  -0.041711
 Sum of Mulliken charges =  -0.00000   1.00000

 Dipole moment (field-independent basis, Debye):
    X=             -0.3608    Y=              0.2179    Z=              0.0460  Tot=              0.4240
 Quadrupole moment (field-independent basis, Debye-Ang):
   XX=            -52.1584   YY=            -61.3165   ZZ=            -78.1767
   XY=             -1.1806   XZ=              0.1896   YZ=              0.1307

 Normal termination of Gaussian 16 at Thu Dec  7 06:13:27 2023.
