 Gaussian 16, Revision B.01,
 Gaussian 16:  ES64L-G16RevB.01 20-Dec-2017

 -------------------------
 #P B3LYP/6-311+g(d) force
 -------------------------

 -----
 DPGEN
 -----
 Symbolic Z-matrix:
 Charge =  0 Multiplicity = 2

                         Standard orientation:
 ---------------------------------------------------------------------
 Center     Atomic      Atomic             Coordinates (Angstroms)
 Number     Number       Type             X           Y           Z
 ---------------------------------------------------------------------
      1         11           0       -3.233405   -1.372939    0.675448
      2         11           0       -2.707105    1.560433    0.041714
      3         11           0        0.227941    2.073213   -1.070746
      4         11           0        3.899592    0.679362    0.461547
      5         11           0        2.270756   -1.861597   -0.603023
      6         11           0       -0.840500   -1.065359   -1.570439
      7         11           0        0.382720   -0.013112    2.065498
 ---------------------------------------------------------------------

 SCF Done:  E(UB3LYP) =  -1136.11697594     A.U. after   27 cycles

 The electronic state is 2-A.
 Alpha  occ. eigenvalues --  -38.45769 -38.45608 -38.43979 -38.43879 -38.43818
 Alpha  occ. eigenvalues --  -38.43527 -38.42238  -2.21551  -2.21394  -2.19885
 Alpha  occ. eigenvalues --   -2.19736  -2.19669  -2.19455  -2.18116  -1.15237
 Alpha  occ. eigenvalues --   -1.15197  -1.15162  -1.15074  -1.15046  -1.15020
 Alpha  occ. eigenvalues --   -1.13626  -1.13552  -1.13533  -1.13395  -1.13374
 Alpha  occ. eigenvalues --   -1.13361  -1.13356  -1.13328  -1.13312  -1.13133
 Alpha  occ. eigenvalues --   -1.13084  -1.13078  -1.11812  -1.11765  -1.11744
 Alpha  occ. eigenvalues --   -0.18358  -0.14218  -0.11321  -0.10920
 Alpha virt. eigenvalues --   -0.07373  -0.05315  -0.04270  -0.03203  -0.02947
 Alpha virt. eigenvalues --   -0.02667  -0.02427  -0.01179  -0.00693  -0.00317
 Alpha virt. eigenvalues --    0.00080   0.00168   0.00246   0.00652   0.00695

  Beta  occ. eigenvalues --  -38.45715 -38.45596 -38.43971 -38.43879 -38.43797
  Beta  occ. eigenvalues --  -38.43455 -38.42218  -2.21449  -2.21370  -2.19871
  Beta  occ. eigenvalues --   -2.19736  -2.19634  -2.19325  -2.18081  -1.15164
  Beta  occ. eigenvalues --   -1.15130  -1.15082  -1.15060  -1.15025  -1.15002
  Beta  occ. eigenvalues --   -1.13622  -1.13535  -1.13514  -1.13392  -1.13373
  Beta  occ. eigenvalues --   -1.13351  -1.13322  -1.13304  -1.13271  -1.13051
  Beta  occ. eigenvalues --   -1.12988  -1.12974  -1.11785  -1.11735  -1.11715
  Beta  occ. eigenvalues --   -0.17633  -0.14053  -0.10703
  Beta virt. eigenvalues --   -0.07496  -0.07046  -0.05229  -0.03719  -0.02988
  Beta virt. eigenvalues --   -0.02655  -0.02038  -0.01664  -0.01078  -0.00431
  Beta virt. eigenvalues --   -0.00305   0.00092   0.00228   0.00408   0.00729

 Mulliken charges and spin densities:
               1          2
     1  Na   0.357360   0.074554
     2  Na   0.223618   0.078222
     3  Na  -0.425965   0.036229
     4  Na   0.383266   0.142014
     5  Na  -0.152575   0.003346
     6  Na  -0.026989   0.291498
     7  Na  -0.358717   0.374137
 Sum of Mulliken charges =  -0.00000   1.00000

 Dipole moment (field-independent basis, Debye):
    X=              1.0634    Y=              0.2524    Z=              0.8243  Tot=              1.3689
 Quadrupole moment (field-independent basis, Debye-Ang):
   XX=            -48.5753   YY=            -77.4417   ZZ=            -69.7717
   XY=              1.1743   XZ=             -0.8207   YZ=              0.6805

 Normal termination of Gaussian 16 at Tue Dec  5 14:38:12 2023.
