 Gaussian 16, Revision B.01,
 Gaussian 16:  ES64L-G16RevB.01 20-Dec-2017

 -------------------------
 #P B3LYP/6-311+g(d) force
 -------------------------

 -----
 DPGEN
 -----
 Symbolic Z-matrix:
 Charge =  0 Multiplicity = 2

                         Standard orientation:
 ---------------------------------------------------------------------
 Center     Atomic      Atomic             Coordinates (Angstroms)
 Number     Number       Type             X           Y           Z
 ---------------------------------------------------------------------
      1         11           0       -2.559607    1.778386    0.182709
      2         11           0       -3.706390   -1.358064   -0.570519
      3         11           0        3.701750    0.439125   -0.917471
      4         11           0       -0.056804   -0.903349   -1.727812
      5         11           0        2.183189   -1.880263    1.061869
      6         11           0       -0.404242   -0.261751    1.867083
      7         11           0        0.842103    2.185917    0.104141
 ---------------------------------------------------------------------

 SCF Done:  E(UB3LYP) =  -1136.12202519     A.U. after   25 cycles

 The electronic state is 2-A.
 Alpha  occ. eigenvalues --  -38.45168 -38.45069 -38.44039 -38.43950 -38.43881
 Alpha  occ. eigenvalues --  -38.43819 -38.42360  -2.20957  -2.20880  -2.19894
 Alpha  occ. eigenvalues --   -2.19817  -2.19751  -2.19672  -2.18243  -1.14660
 Alpha  occ. eigenvalues --   -1.14633  -1.14551  -1.14544  -1.14527  -1.14503
 Alpha  occ. eigenvalues --   -1.13618  -1.13545  -1.13509  -1.13497  -1.13486
 Alpha  occ. eigenvalues --   -1.13451  -1.13404  -1.13390  -1.13370  -1.13358
 Alpha  occ. eigenvalues --   -1.13331  -1.13281  -1.11942  -1.11928  -1.11856
 Alpha  occ. eigenvalues --   -0.18325  -0.13912  -0.11555  -0.10983
 Alpha virt. eigenvalues --   -0.07088  -0.05264  -0.04369  -0.03173  -0.02795
 Alpha virt. eigenvalues --   -0.02653  -0.02429  -0.01284  -0.00836  -0.00157
 Alpha virt. eigenvalues --    0.00044   0.00152   0.00388   0.00597   0.00696

  Beta  occ. eigenvalues --  -38.45141 -38.45027 -38.44038 -38.43860 -38.43836
  Beta  occ. eigenvalues --  -38.43817 -38.42356  -2.20908  -2.20802  -2.19817
  Beta  occ. eigenvalues --   -2.19733  -2.19673  -2.19669  -2.18239  -1.14625
  Beta  occ. eigenvalues --   -1.14593  -1.14514  -1.14488  -1.14471  -1.14454
  Beta  occ. eigenvalues --   -1.13509  -1.13498  -1.13483  -1.13452  -1.13431
  Beta  occ. eigenvalues --   -1.13402  -1.13355  -1.13341  -1.13339  -1.13318
  Beta  occ. eigenvalues --   -1.13287  -1.13276  -1.11944  -1.11912  -1.11841
  Beta  occ. eigenvalues --   -0.17641  -0.13647  -0.10854
  Beta virt. eigenvalues --   -0.07587  -0.06840  -0.05129  -0.03867  -0.02928
  Beta virt. eigenvalues --   -0.02584  -0.01967  -0.01773  -0.01139  -0.00543
  Beta virt. eigenvalues --   -0.00122   0.00103   0.00195   0.00482   0.00696

 Mulliken charges and spin densities:
               1          2
     1  Na   0.291764   0.060806
     2  Na   0.025373  -0.038806
     3  Na   0.608357   0.274060
     4  Na  -0.511667   0.369550
     5  Na  -0.082419  -0.091461
     6  Na   0.276744   0.489087
     7  Na  -0.608152  -0.063236
 Sum of Mulliken charges =  -0.00000   1.00000

 Dipole moment (field-independent basis, Debye):
    X=              0.3897    Y=             -0.0970    Z=             -0.2333  Tot=              0.4645
 Quadrupole moment (field-independent basis, Debye-Ang):
   XX=            -50.0952   YY=            -75.4427   ZZ=            -70.3122
   XY=             -1.4468   XZ=             -2.2104   YZ=             -2.8618

 Normal termination of Gaussian 16 at Fri Dec  8 01:20:11 2023.
