 Gaussian 16, Revision B.01,
 Gaussian 16:  ES64L-G16RevB.01 20-Dec-2017

 -------------------------
 #P B3LYP/6-311+g(d) force
 -------------------------

 -----
 DPGEN
 -----
 Symbolic Z-matrix:
 Charge =  0 Multiplicity = 2

                         Standard orientation:
 ---------------------------------------------------------------------
 Center     Atomic      Atomic             Coordinates (Angstroms)
 Number     Number       Type             X           Y           Z
 ---------------------------------------------------------------------
      1         11           0        0.717886   -2.958430    1.233006
      2         11           0       -4.421913    0.029546   -0.613132
      3         11           0        3.237054    1.427744   -0.151647
      4         11           0        1.338219    3.647156   -0.284045
      5         11           0        3.526054   -2.176434   -0.572483
      6         11           0       -2.099228    2.495472    0.933279
      7         11           0       -2.298073   -2.465054   -0.544978
 ---------------------------------------------------------------------

 SCF Done:  E(UB3LYP) =  -1136.10705739     A.U. after   25 cycles

 The electronic state is 2-A.
 Alpha  occ. eigenvalues --  -38.45729 -38.45016 -38.44810 -38.44681 -38.44049
 Alpha  occ. eigenvalues --  -38.43557 -38.43509  -2.21469  -2.20841  -2.20582
 Alpha  occ. eigenvalues --   -2.20462  -2.19858  -2.19372  -2.19356  -1.15152
 Alpha  occ. eigenvalues --   -1.15132  -1.15074  -1.14550  -1.14505  -1.14477
 Alpha  occ. eigenvalues --   -1.14266  -1.14255  -1.14217  -1.14140  -1.14135
 Alpha  occ. eigenvalues --   -1.14101  -1.13520  -1.13513  -1.13486  -1.13052
 Alpha  occ. eigenvalues --   -1.13022  -1.13016  -1.13002  -1.12989  -1.12972
 Alpha  occ. eigenvalues --   -0.15756  -0.13929  -0.13405  -0.10332
 Alpha virt. eigenvalues --   -0.07801  -0.04766  -0.04549  -0.03567  -0.03298
 Alpha virt. eigenvalues --   -0.02406  -0.02049  -0.01880  -0.01346  -0.00830
 Alpha virt. eigenvalues --   -0.00690   0.00058   0.00269   0.00336   0.00681

  Beta  occ. eigenvalues --  -38.45689 -38.44987 -38.44804 -38.44683 -38.44003
  Beta  occ. eigenvalues --  -38.43497 -38.43477  -2.21395  -2.20796  -2.20574
  Beta  occ. eigenvalues --   -2.20467  -2.19774  -2.19299  -2.19259  -1.15104
  Beta  occ. eigenvalues --   -1.15084  -1.15011  -1.14499  -1.14479  -1.14427
  Beta  occ. eigenvalues --   -1.14266  -1.14253  -1.14177  -1.14146  -1.14140
  Beta  occ. eigenvalues --   -1.14088  -1.13464  -1.13455  -1.13429  -1.13004
  Beta  occ. eigenvalues --   -1.12951  -1.12946  -1.12935  -1.12935  -1.12932
  Beta  occ. eigenvalues --   -0.15263  -0.13370  -0.12758
  Beta virt. eigenvalues --   -0.07835  -0.07029  -0.04472  -0.04223  -0.03294
  Beta virt. eigenvalues --   -0.02920  -0.02077  -0.01864  -0.01653  -0.01234
  Beta virt. eigenvalues --   -0.00549  -0.00402   0.00162   0.00338   0.00445

 Mulliken charges and spin densities:
               1          2
     1  Na   0.094922  -0.025882
     2  Na   0.379853   0.066756
     3  Na  -0.338497   0.176105
     4  Na   0.136944   0.076237
     5  Na   0.300422   0.294952
     6  Na  -0.157644   0.224062
     7  Na  -0.416000   0.187770
 Sum of Mulliken charges =  -0.00000   1.00000

 Dipole moment (field-independent basis, Debye):
    X=             -0.7847    Y=              0.2678    Z=              0.1941  Tot=              0.8515
 Quadrupole moment (field-independent basis, Debye-Ang):
   XX=            -64.5417   YY=            -70.0773   ZZ=            -67.8958
   XY=             -0.6497   XZ=              1.1842   YZ=              0.7807

 Normal termination of Gaussian 16 at Sun Dec  3 18:18:39 2023.
