 Gaussian 16, Revision B.01,
 Gaussian 16:  ES64L-G16RevB.01 20-Dec-2017

 -------------------------
 #P B3LYP/6-311+g(d) force
 -------------------------

 -----
 DPGEN
 -----
 Symbolic Z-matrix:
 Charge =  0 Multiplicity = 2

                         Standard orientation:
 ---------------------------------------------------------------------
 Center     Atomic      Atomic             Coordinates (Angstroms)
 Number     Number       Type             X           Y           Z
 ---------------------------------------------------------------------
      1         11           0       -2.710139    0.795733    0.893915
      2         11           0       -4.949695   -0.101076   -0.864934
      3         11           0        0.969411   -0.314983   -1.556238
      4         11           0        2.070482    3.248307   -0.994274
      5         11           0        2.386390    0.821331    1.450572
      6         11           0        0.207778   -1.259258    2.157551
      7         11           0        2.025773   -3.190054   -1.086592
 ---------------------------------------------------------------------

 SCF Done:  E(UB3LYP) =  -1136.11273564     A.U. after   21 cycles

 The electronic state is 2-A.
 Alpha  occ. eigenvalues --  -38.44712 -38.44553 -38.44522 -38.44420 -38.44011
 Alpha  occ. eigenvalues --  -38.43846 -38.43132  -2.20568  -2.20418  -2.20325
 Alpha  occ. eigenvalues --   -2.20294  -2.19826  -2.19664  -2.18924  -1.14313
 Alpha  occ. eigenvalues --   -1.14211  -1.14154  -1.14080  -1.14078  -1.14034
 Alpha  occ. eigenvalues --   -1.14021  -1.13986  -1.13968  -1.13966  -1.13955
 Alpha  occ. eigenvalues --   -1.13907  -1.13485  -1.13481  -1.13464  -1.13338
 Alpha  occ. eigenvalues --   -1.13310  -1.13270  -1.12589  -1.12587  -1.12555
 Alpha  occ. eigenvalues --   -0.17287  -0.13302  -0.11946  -0.11713
 Alpha virt. eigenvalues --   -0.06537  -0.05072  -0.04349  -0.03222  -0.03130
 Alpha virt. eigenvalues --   -0.02866  -0.02051  -0.01514  -0.01041  -0.00647
 Alpha virt. eigenvalues --   -0.00243  -0.00053   0.00311   0.00555   0.00650

  Beta  occ. eigenvalues --  -38.44628 -38.44524 -38.44508 -38.44372 -38.44011
  Beta  occ. eigenvalues --  -38.43804 -38.43121  -2.20417  -2.20368  -2.20299
  Beta  occ. eigenvalues --   -2.20208  -2.19829  -2.19589  -2.18902  -1.14209
  Beta  occ. eigenvalues --   -1.14110  -1.14057  -1.14042  -1.14033  -1.14018
  Beta  occ. eigenvalues --   -1.13955  -1.13950  -1.13948  -1.13923  -1.13897
  Beta  occ. eigenvalues --   -1.13837  -1.13487  -1.13482  -1.13453  -1.13274
  Beta  occ. eigenvalues --   -1.13261  -1.13226  -1.12574  -1.12570  -1.12542
  Beta  occ. eigenvalues --   -0.16508  -0.13070  -0.11470
  Beta virt. eigenvalues --   -0.08074  -0.06160  -0.04861  -0.04071  -0.02914
  Beta virt. eigenvalues --   -0.02698  -0.02301  -0.01868  -0.01301  -0.00790
  Beta virt. eigenvalues --   -0.00441  -0.00019   0.00081   0.00314   0.00646

 Mulliken charges and spin densities:
               1          2
     1  Na  -0.556135  -0.005948
     2  Na   0.282655   0.032595
     3  Na  -0.525959   0.577821
     4  Na   0.218017  -0.046417
     5  Na   0.079075   0.039294
     6  Na   0.403539   0.395626
     7  Na   0.098809   0.007028
 Sum of Mulliken charges =  -0.00000   1.00000

 Dipole moment (field-independent basis, Debye):
    X=             -0.3285    Y=             -0.7062    Z=              0.0178  Tot=              0.7791
 Quadrupole moment (field-independent basis, Debye-Ang):
   XX=            -62.4702   YY=            -67.9959   ZZ=            -66.6189
   XY=             -0.2196   XZ=              6.1530   YZ=             -0.9967

 Normal termination of Gaussian 16 at Sun Dec  3 20:57:22 2023.
