 Gaussian 16, Revision B.01,
 Gaussian 16:  ES64L-G16RevB.01 20-Dec-2017

 -------------------------
 #P B3LYP/6-311+g(d) force
 -------------------------

 -----
 DPGEN
 -----
 Symbolic Z-matrix:
 Charge =  0 Multiplicity = 2

                         Standard orientation:
 ---------------------------------------------------------------------
 Center     Atomic      Atomic             Coordinates (Angstroms)
 Number     Number       Type             X           Y           Z
 ---------------------------------------------------------------------
      1         11           0       -1.175034   -0.351202    1.547079
      2         11           0        2.588468    0.151583    2.083611
      3         11           0        1.843401    1.642021   -1.515199
      4         11           0       -0.815884    2.445205   -0.234251
      5         11           0       -4.062227    0.084688   -0.172265
      6         11           0        2.459883   -1.462522   -0.941774
      7         11           0       -0.838607   -2.509773   -0.767201
 ---------------------------------------------------------------------

 SCF Done:  E(UB3LYP) =  -1136.12055804     A.U. after   21 cycles

 The electronic state is 2-A.
 Alpha  occ. eigenvalues --  -38.45719 -38.44727 -38.44168 -38.43693 -38.43664
 Alpha  occ. eigenvalues --  -38.43464 -38.43179  -2.21475  -2.20541  -2.20060
 Alpha  occ. eigenvalues --   -2.19551  -2.19479  -2.19338  -2.19022  -1.15159
 Alpha  occ. eigenvalues --   -1.15117  -1.15111  -1.14189  -1.14180  -1.14157
 Alpha  occ. eigenvalues --   -1.13767  -1.13733  -1.13669  -1.13253  -1.13211
 Alpha  occ. eigenvalues --   -1.13201  -1.13168  -1.13141  -1.13078  -1.13052
 Alpha  occ. eigenvalues --   -1.12981  -1.12956  -1.12706  -1.12690  -1.12628
 Alpha  occ. eigenvalues --   -0.17766  -0.13671  -0.11664  -0.11192
 Alpha virt. eigenvalues --   -0.06932  -0.04928  -0.04677  -0.03428  -0.02708
 Alpha virt. eigenvalues --   -0.02662  -0.02516  -0.00860  -0.00657  -0.00210
 Alpha virt. eigenvalues --   -0.00066   0.00179   0.00272   0.00766   0.00833

  Beta  occ. eigenvalues --  -38.45722 -38.44639 -38.44138 -38.43673 -38.43649
  Beta  occ. eigenvalues --  -38.43426 -38.43177  -2.21480  -2.20376  -2.20006
  Beta  occ. eigenvalues --   -2.19517  -2.19453  -2.19269  -2.19020  -1.15160
  Beta  occ. eigenvalues --   -1.15122  -1.15114  -1.14072  -1.14064  -1.14047
  Beta  occ. eigenvalues --   -1.13730  -1.13701  -1.13615  -1.13221  -1.13184
  Beta  occ. eigenvalues --   -1.13165  -1.13150  -1.13119  -1.13058  -1.13009
  Beta  occ. eigenvalues --   -1.12928  -1.12910  -1.12705  -1.12672  -1.12627
  Beta  occ. eigenvalues --   -0.17178  -0.13469  -0.11430
  Beta virt. eigenvalues --   -0.07295  -0.06796  -0.04772  -0.04128  -0.03284
  Beta virt. eigenvalues --   -0.02341  -0.02139  -0.01735  -0.00691  -0.00404
  Beta virt. eigenvalues --   -0.00160  -0.00033   0.00245   0.00410   0.00824

 Mulliken charges and spin densities:
               1          2
     1  Na  -0.019143   0.063646
     2  Na  -0.101253   0.327209
     3  Na   0.099368   0.065301
     4  Na  -0.437596   0.131830
     5  Na   0.546862  -0.019177
     6  Na   0.163223   0.343264
     7  Na  -0.251460   0.087927
 Sum of Mulliken charges =  -0.00000   1.00000

 Dipole moment (field-independent basis, Debye):
    X=             -1.3673    Y=             -0.1422    Z=             -0.0394  Tot=              1.3752
 Quadrupole moment (field-independent basis, Debye-Ang):
   XX=            -47.7055   YY=            -76.2762   ZZ=            -70.2894
   XY=             -0.3669   XZ=              2.6757   YZ=              1.5085

 Normal termination of Gaussian 16 at Wed Nov 29 03:58:53 2023.
