 Gaussian 16, Revision B.01,
 Gaussian 16:  ES64L-G16RevB.01 20-Dec-2017

 -------------------------
 #P B3LYP/6-311+g(d) force
 -------------------------

 -----
 DPGEN
 -----
 Symbolic Z-matrix:
 Charge =  0 Multiplicity = 2

                         Standard orientation:
 ---------------------------------------------------------------------
 Center     Atomic      Atomic             Coordinates (Angstroms)
 Number     Number       Type             X           Y           Z
 ---------------------------------------------------------------------
      1         11           0       -1.387224   -2.166132    0.880502
      2         11           0        0.972211    2.920661   -0.393589
      3         11           0       -3.759083   -0.485252   -1.103375
      4         11           0       -2.031829    1.857800    0.937896
      5         11           0        0.395251   -0.116509   -0.024403
      6         11           0        2.205413   -2.429475   -0.316170
      7         11           0        3.605262    0.418907    0.019139
 ---------------------------------------------------------------------

 SCF Done:  E(UB3LYP) =  -1136.12116485     A.U. after   26 cycles

 The electronic state is 2-A.
 Alpha  occ. eigenvalues --  -38.44426 -38.44098 -38.43892 -38.43699 -38.43640
 Alpha  occ. eigenvalues --  -38.43447 -38.42968  -2.20270  -2.19984  -2.19782
 Alpha  occ. eigenvalues --   -2.19580  -2.19491  -2.19287  -2.19125  -1.13964
 Alpha  occ. eigenvalues --   -1.13948  -1.13883  -1.13738  -1.13645  -1.13613
 Alpha  occ. eigenvalues --   -1.13580  -1.13435  -1.13360  -1.13250  -1.13227
 Alpha  occ. eigenvalues --   -1.13214  -1.13197  -1.13148  -1.13108  -1.12933
 Alpha  occ. eigenvalues --   -1.12932  -1.12891  -1.12800  -1.12750  -1.12745
 Alpha  occ. eigenvalues --   -0.18141  -0.14167  -0.12797  -0.09896
 Alpha virt. eigenvalues --   -0.06081  -0.05589  -0.04753  -0.03399  -0.02352
 Alpha virt. eigenvalues --   -0.02155  -0.01636  -0.01056  -0.00948  -0.00792
 Alpha virt. eigenvalues --    0.00041   0.00191   0.00560   0.00667   0.00733

  Beta  occ. eigenvalues --  -38.44415 -38.44094 -38.43866 -38.43652 -38.43640
  Beta  occ. eigenvalues --  -38.43349 -38.42946  -2.20255  -2.19983  -2.19741
  Beta  occ. eigenvalues --   -2.19495  -2.19491  -2.19103  -2.19088  -1.13949
  Beta  occ. eigenvalues --   -1.13936  -1.13854  -1.13741  -1.13647  -1.13573
  Beta  occ. eigenvalues --   -1.13542  -1.13404  -1.13317  -1.13219  -1.13190
  Beta  occ. eigenvalues --   -1.13164  -1.13157  -1.13137  -1.13094  -1.12807
  Beta  occ. eigenvalues --   -1.12804  -1.12772  -1.12758  -1.12737  -1.12715
  Beta  occ. eigenvalues --   -0.17727  -0.13510  -0.12449
  Beta virt. eigenvalues --   -0.06349  -0.05996  -0.05322  -0.04680  -0.02744
  Beta virt. eigenvalues --   -0.02054  -0.01775  -0.01398  -0.00940  -0.00761
  Beta virt. eigenvalues --   -0.00414   0.00284   0.00412   0.00682   0.00734

 Mulliken charges and spin densities:
               1          2
     1  Na   1.179331   0.169513
     2  Na   1.301582  -0.114563
     3  Na   0.492400   0.581578
     4  Na   1.576720   0.188915
     5  Na  -4.800663  -0.094783
     6  Na   0.330633   0.012840
     7  Na  -0.080002   0.256500
 Sum of Mulliken charges =  -0.00000   1.00000

 Dipole moment (field-independent basis, Debye):
    X=              0.6996    Y=              0.1394    Z=              0.6170  Tot=              0.9431
 Quadrupole moment (field-independent basis, Debye-Ang):
   XX=            -70.5548   YY=            -60.4129   ZZ=            -68.6650
   XY=             -1.8321   XZ=             -3.4644   YZ=              0.4253

 Normal termination of Gaussian 16 at Fri Dec  8 19:44:27 2023.
