 Gaussian 16, Revision B.01,
 Gaussian 16:  ES64L-G16RevB.01 20-Dec-2017

 -------------------------
 #P B3LYP/6-311+g(d) force
 -------------------------

 -----
 DPGEN
 -----
 Symbolic Z-matrix:
 Charge =  0 Multiplicity = 2

                         Standard orientation:
 ---------------------------------------------------------------------
 Center     Atomic      Atomic             Coordinates (Angstroms)
 Number     Number       Type             X           Y           Z
 ---------------------------------------------------------------------
      1         11           0        2.750301   -0.859558   -0.726948
      2         11           0       -7.288222   -0.629086    0.575975
      3         11           0        6.705070   -0.163666   -0.554622
      4         11           0       -0.281455   -0.705138   -0.218055
      5         11           0       -3.532524   -1.253922    0.465469
      6         11           0       -7.215824    2.348343   -0.462614
      7         11           0        8.862654    1.263027    0.920797
 ---------------------------------------------------------------------

 SCF Done:  E(UB3LYP) =  -1136.10613257     A.U. after   19 cycles

 The electronic state is 2-A.
 Alpha  occ. eigenvalues --  -38.45597 -38.45048 -38.44724 -38.44317 -38.44172
 Alpha  occ. eigenvalues --  -38.43811 -38.43467  -2.21386  -2.20835  -2.20528
 Alpha  occ. eigenvalues --   -2.20131  -2.19993  -2.19614  -2.19288  -1.15041
 Alpha  occ. eigenvalues --   -1.15032  -1.15023  -1.14503  -1.14496  -1.14485
 Alpha  occ. eigenvalues --   -1.14179  -1.14179  -1.14133  -1.13836  -1.13767
 Alpha  occ. eigenvalues --   -1.13766  -1.13655  -1.13632  -1.13627  -1.13274
 Alpha  occ. eigenvalues --   -1.13273  -1.13260  -1.12968  -1.12951  -1.12950
 Alpha  occ. eigenvalues --   -0.15307  -0.14257  -0.13094  -0.11319
 Alpha virt. eigenvalues --   -0.07177  -0.05621  -0.03598  -0.03525  -0.03190
 Alpha virt. eigenvalues --   -0.02742  -0.02565  -0.01851  -0.01719  -0.01378
 Alpha virt. eigenvalues --   -0.00693  -0.00496  -0.00095   0.00272   0.00398

  Beta  occ. eigenvalues --  -38.45546 -38.45059 -38.44632 -38.44284 -38.44100
  Beta  occ. eigenvalues --  -38.43818 -38.43476  -2.21290  -2.20858  -2.20357
  Beta  occ. eigenvalues --   -2.20069  -2.19858  -2.19630  -2.19313  -1.14977
  Beta  occ. eigenvalues --   -1.14967  -1.14959  -1.14522  -1.14505  -1.14482
  Beta  occ. eigenvalues --   -1.14064  -1.14063  -1.14022  -1.13799  -1.13725
  Beta  occ. eigenvalues --   -1.13724  -1.13574  -1.13539  -1.13536  -1.13287
  Beta  occ. eigenvalues --   -1.13285  -1.13245  -1.12977  -1.12976  -1.12922
  Beta  occ. eigenvalues --   -0.14637  -0.13695  -0.12607
  Beta virt. eigenvalues --   -0.08212  -0.06652  -0.05264  -0.03346  -0.03264
  Beta virt. eigenvalues --   -0.02877  -0.02583  -0.02346  -0.01670  -0.01578
  Beta virt. eigenvalues --   -0.01055  -0.00381  -0.00135   0.00109   0.00337

 Mulliken charges and spin densities:
               1          2
     1  Na  -0.653508   0.246472
     2  Na   0.495555   0.001628
     3  Na  -0.044890  -0.028487
     4  Na   0.238535   0.259525
     5  Na  -0.374539   0.177754
     6  Na  -0.081517   0.224184
     7  Na   0.420365   0.118925
 Sum of Mulliken charges =  -0.00000   1.00000

 Dipole moment (field-independent basis, Debye):
    X=             -2.7496    Y=              1.0547    Z=              0.2332  Tot=              2.9542
 Quadrupole moment (field-independent basis, Debye-Ang):
   XX=            -43.6504   YY=            -63.9612   ZZ=            -72.1326
   XY=              1.7619   XZ=              3.5674   YZ=             -1.1442

 Normal termination of Gaussian 16 at Sun Dec  3 12:23:59 2023.
