 Gaussian 16, Revision B.01,
 Gaussian 16:  ES64L-G16RevB.01 20-Dec-2017

 -------------------------
 #P B3LYP/6-311+g(d) force
 -------------------------

 -----
 DPGEN
 -----
 Symbolic Z-matrix:
 Charge =  0 Multiplicity = 2

                         Standard orientation:
 ---------------------------------------------------------------------
 Center     Atomic      Atomic             Coordinates (Angstroms)
 Number     Number       Type             X           Y           Z
 ---------------------------------------------------------------------
      1         11           0        1.102138    2.718474   -0.142224
      2         11           0        1.978230   -2.809141   -0.295102
      3         11           0       -4.804872   -1.143861    0.277697
      4         11           0       -2.418367    1.709724   -0.301157
      5         11           0        0.163630   -0.532430   -1.751439
      6         11           0        0.352353   -0.329564    1.951538
      7         11           0        3.626888    0.386798    0.260686
 ---------------------------------------------------------------------

 SCF Done:  E(UB3LYP) =  -1136.11611275     A.U. after   28 cycles

 The electronic state is 2-A.
 Alpha  occ. eigenvalues --  -38.46187 -38.44909 -38.44773 -38.43877 -38.43832
 Alpha  occ. eigenvalues --  -38.43249 -38.42922  -2.21966  -2.20710  -2.20532
 Alpha  occ. eigenvalues --   -2.19752  -2.19621  -2.19086  -2.18750  -1.15651
 Alpha  occ. eigenvalues --   -1.15607  -1.15593  -1.14392  -1.14368  -1.14338
 Alpha  occ. eigenvalues --   -1.14182  -1.14178  -1.14139  -1.13423  -1.13396
 Alpha  occ. eigenvalues --   -1.13370  -1.13316  -1.13299  -1.13243  -1.12759
 Alpha  occ. eigenvalues --   -1.12747  -1.12723  -1.12438  -1.12425  -1.12389
 Alpha  occ. eigenvalues --   -0.17715  -0.13359  -0.11669  -0.10647
 Alpha virt. eigenvalues --   -0.07557  -0.05339  -0.04434  -0.03119  -0.02991
 Alpha virt. eigenvalues --   -0.02471  -0.02364  -0.01749  -0.00897  -0.00657
 Alpha virt. eigenvalues --   -0.00335  -0.00136   0.00249   0.00555   0.00585

  Beta  occ. eigenvalues --  -38.46160 -38.44905 -38.44691 -38.43831 -38.43796
  Beta  occ. eigenvalues --  -38.43243 -38.42932  -2.21915  -2.20703  -2.20377
  Beta  occ. eigenvalues --   -2.19624  -2.19602  -2.19078  -2.18770  -1.15610
  Beta  occ. eigenvalues --   -1.15575  -1.15555  -1.14384  -1.14355  -1.14343
  Beta  occ. eigenvalues --   -1.14075  -1.14072  -1.14038  -1.13330  -1.13317
  Beta  occ. eigenvalues --   -1.13310  -1.13300  -1.13245  -1.13217  -1.12749
  Beta  occ. eigenvalues --   -1.12741  -1.12708  -1.12458  -1.12434  -1.12385
  Beta  occ. eigenvalues --   -0.17250  -0.12805  -0.11428
  Beta virt. eigenvalues --   -0.07336  -0.07065  -0.05144  -0.04264  -0.02778
  Beta virt. eigenvalues --   -0.02692  -0.01997  -0.01775  -0.01590  -0.00791
  Beta virt. eigenvalues --   -0.00360  -0.00217  -0.00034   0.00467   0.00617

 Mulliken charges and spin densities:
               1          2
     1  Na  -0.126045  -0.091556
     2  Na   0.061559   0.015421
     3  Na   0.002977   0.443980
     4  Na   0.016802   0.019421
     5  Na   0.037833   0.281477
     6  Na  -0.131442   0.239725
     7  Na   0.138315   0.091532
 Sum of Mulliken charges =  -0.00000   1.00000

 Dipole moment (field-independent basis, Debye):
    X=              0.7581    Y=             -0.3219    Z=              0.4079  Tot=              0.9191
 Quadrupole moment (field-independent basis, Debye-Ang):
   XX=            -60.6352   YY=            -69.2216   ZZ=            -70.4714
   XY=             -0.5615   XZ=             -1.6010   YZ=             -2.4195

 Normal termination of Gaussian 16 at Thu Dec  7 06:49:32 2023.
