 Gaussian 16, Revision B.01,
 Gaussian 16:  ES64L-G16RevB.01 20-Dec-2017

 -------------------------
 #P B3LYP/6-311+g(d) force
 -------------------------

 -----
 DPGEN
 -----
 Symbolic Z-matrix:
 Charge =  0 Multiplicity = 2

                         Standard orientation:
 ---------------------------------------------------------------------
 Center     Atomic      Atomic             Coordinates (Angstroms)
 Number     Number       Type             X           Y           Z
 ---------------------------------------------------------------------
      1         11           0       -3.044136    0.629455   -0.538599
      2         11           0        3.413537    0.897253   -0.275662
      3         11           0       -0.238742   -0.153364    2.179742
      4         11           0       -2.148570   -2.414456   -0.098580
      5         11           0        2.390050   -2.001700    0.025037
      6         11           0       -0.547359    2.933797    0.309262
      7         11           0        0.175219    0.109015   -1.601200
 ---------------------------------------------------------------------

 SCF Done:  E(UB3LYP) =  -1136.13091881     A.U. after   20 cycles

 The electronic state is 2-A.
 Alpha  occ. eigenvalues --  -38.44807 -38.44184 -38.44075 -38.43853 -38.43815
 Alpha  occ. eigenvalues --  -38.43298 -38.42756  -2.20622  -2.20052  -2.19916
 Alpha  occ. eigenvalues --   -2.19761  -2.19665  -2.19123  -2.18583  -1.14311
 Alpha  occ. eigenvalues --   -1.14282  -1.14255  -1.13736  -1.13715  -1.13681
 Alpha  occ. eigenvalues --   -1.13593  -1.13580  -1.13551  -1.13457  -1.13401
 Alpha  occ. eigenvalues --   -1.13385  -1.13322  -1.13293  -1.13277  -1.12798
 Alpha  occ. eigenvalues --   -1.12782  -1.12766  -1.12253  -1.12246  -1.12231
 Alpha  occ. eigenvalues --   -0.18179  -0.13680  -0.11658  -0.10801
 Alpha virt. eigenvalues --   -0.06199  -0.05382  -0.04293  -0.03474  -0.02763
 Alpha virt. eigenvalues --   -0.02593  -0.02048  -0.01152  -0.00496  -0.00422
 Alpha virt. eigenvalues --   -0.00064   0.00307   0.00655   0.00801   0.00822

  Beta  occ. eigenvalues --  -38.44802 -38.44168 -38.44071 -38.43810 -38.43707
  Beta  occ. eigenvalues --  -38.43297 -38.42751  -2.20616  -2.20024  -2.19913
  Beta  occ. eigenvalues --   -2.19681  -2.19465  -2.19124  -2.18577  -1.14310
  Beta  occ. eigenvalues --   -1.14267  -1.14250  -1.13712  -1.13690  -1.13659
  Beta  occ. eigenvalues --   -1.13588  -1.13577  -1.13534  -1.13397  -1.13348
  Beta  occ. eigenvalues --   -1.13322  -1.13189  -1.13158  -1.13130  -1.12803
  Beta  occ. eigenvalues --   -1.12776  -1.12754  -1.12251  -1.12232  -1.12218
  Beta  occ. eigenvalues --   -0.17482  -0.13450  -0.11462
  Beta virt. eigenvalues --   -0.06895  -0.06075  -0.05363  -0.04240  -0.02780
  Beta virt. eigenvalues --   -0.01971  -0.01899  -0.01641  -0.01087  -0.00536
  Beta virt. eigenvalues --   -0.00405   0.00096   0.00362   0.00751   0.00813

 Mulliken charges and spin densities:
               1          2
     1  Na   0.337695   0.096286
     2  Na   0.162553  -0.010001
     3  Na  -0.391957   0.735603
     4  Na  -0.040959  -0.026792
     5  Na   0.051196   0.002629
     6  Na  -0.088171  -0.008739
     7  Na  -0.030357   0.211015
 Sum of Mulliken charges =  -0.00000   1.00000

 Dipole moment (field-independent basis, Debye):
    X=              0.6961    Y=              0.0113    Z=             -0.0251  Tot=              0.6966
 Quadrupole moment (field-independent basis, Debye-Ang):
   XX=            -54.2176   YY=            -66.3936   ZZ=            -74.1382
   XY=              0.7136   XZ=              0.7440   YZ=              0.1414

 Normal termination of Gaussian 16 at Wed Nov 29 17:03:43 2023.
