 Gaussian 16, Revision B.01,
 Gaussian 16:  ES64L-G16RevB.01 20-Dec-2017

 -------------------------
 #P B3LYP/6-311+g(d) force
 -------------------------

 -----
 DPGEN
 -----
 Symbolic Z-matrix:
 Charge =  0 Multiplicity = 2

                         Standard orientation:
 ---------------------------------------------------------------------
 Center     Atomic      Atomic             Coordinates (Angstroms)
 Number     Number       Type             X           Y           Z
 ---------------------------------------------------------------------
      1         11           0       -4.089368   -1.572213   -0.220900
      2         11           0        0.356907   -1.420609   -0.308589
      3         11           0       -2.649579    1.859091   -0.577721
      4         11           0        2.703162   -0.087067    1.637224
      5         11           0        3.587330   -0.810397   -1.385692
      6         11           0       -1.047537    0.076702    1.259182
      7         11           0        1.139087    1.954493   -0.403503
 ---------------------------------------------------------------------

 SCF Done:  E(UB3LYP) =  -1136.10535833     A.U. after   30 cycles

 The electronic state is 2-A.
 Alpha  occ. eigenvalues --  -38.45236 -38.45186 -38.44253 -38.44043 -38.43800
 Alpha  occ. eigenvalues --  -38.43782 -38.42949  -2.21219  -2.21090  -2.20102
 Alpha  occ. eigenvalues --   -2.19880  -2.19790  -2.19651  -2.18853  -1.15181
 Alpha  occ. eigenvalues --   -1.14840  -1.14803  -1.14765  -1.14725  -1.14705
 Alpha  occ. eigenvalues --   -1.13857  -1.13765  -1.13678  -1.13620  -1.13479
 Alpha  occ. eigenvalues --   -1.13465  -1.13460  -1.13429  -1.13378  -1.13314
 Alpha  occ. eigenvalues --   -1.13284  -1.13279  -1.12556  -1.12535  -1.12445
 Alpha  occ. eigenvalues --   -0.18935  -0.14473  -0.10957  -0.10871
 Alpha virt. eigenvalues --   -0.07121  -0.05665  -0.04424  -0.03021  -0.02963
 Alpha virt. eigenvalues --   -0.02099  -0.01932  -0.01430  -0.01000  -0.00227
 Alpha virt. eigenvalues --   -0.00036   0.00251   0.00393   0.00510   0.00558

  Beta  occ. eigenvalues --  -38.45186 -38.45160 -38.44224 -38.44068 -38.43750
  Beta  occ. eigenvalues --  -38.43723 -38.42934  -2.21136  -2.21049  -2.20046
  Beta  occ. eigenvalues --   -2.19839  -2.19797  -2.19541  -2.18827  -1.15091
  Beta  occ. eigenvalues --   -1.14770  -1.14762  -1.14725  -1.14675  -1.14654
  Beta  occ. eigenvalues --   -1.13816  -1.13726  -1.13645  -1.13557  -1.13512
  Beta  occ. eigenvalues --   -1.13492  -1.13459  -1.13378  -1.13316  -1.13239
  Beta  occ. eigenvalues --   -1.13215  -1.13197  -1.12544  -1.12497  -1.12428
  Beta  occ. eigenvalues --   -0.18154  -0.14226  -0.10693
  Beta virt. eigenvalues --   -0.07169  -0.06840  -0.05445  -0.03900  -0.02878
  Beta virt. eigenvalues --   -0.02762  -0.01647  -0.01435  -0.01023  -0.00612
  Beta virt. eigenvalues --   -0.00152   0.00003   0.00294   0.00483   0.00554

 Mulliken charges and spin densities:
               1          2
     1  Na   0.344141  -0.126965
     2  Na  -1.165772   0.306341
     3  Na   0.016111   0.210409
     4  Na   0.745355   0.015863
     5  Na   0.660639   0.326706
     6  Na   0.041817   0.001987
     7  Na  -0.642291   0.265659
 Sum of Mulliken charges =  -0.00000   1.00000

 Dipole moment (field-independent basis, Debye):
    X=              0.4756    Y=              0.4634    Z=              0.4347  Tot=              0.7937
 Quadrupole moment (field-independent basis, Debye-Ang):
   XX=            -54.2791   YY=            -75.3115   ZZ=            -66.8843
   XY=              0.0555   XZ=              5.1319   YZ=              0.3357

 Normal termination of Gaussian 16 at Fri Dec  8 02:09:23 2023.
