 Gaussian 16, Revision B.01,
 Gaussian 16:  ES64L-G16RevB.01 20-Dec-2017

 -------------------------
 #P B3LYP/6-311+g(d) force
 -------------------------

 -----
 DPGEN
 -----
 Symbolic Z-matrix:
 Charge =  0 Multiplicity = 2

                         Standard orientation:
 ---------------------------------------------------------------------
 Center     Atomic      Atomic             Coordinates (Angstroms)
 Number     Number       Type             X           Y           Z
 ---------------------------------------------------------------------
      1         11           0       -0.060554   -0.314744   -1.735317
      2         11           0       -2.556631   -1.818023    0.006474
      3         11           0        0.547864    2.666755    0.099381
      4         11           0       -2.675528    1.511531   -0.165188
      5         11           0        0.024468   -0.105768    1.944999
      6         11           0        1.518947   -2.453880    0.089868
      7         11           0        3.201432    0.514129   -0.240217
 ---------------------------------------------------------------------

 SCF Done:  E(UB3LYP) =  -1136.13847622     A.U. after   19 cycles

 The electronic state is 2-A.
 Alpha  occ. eigenvalues --  -38.44306 -38.43926 -38.43836 -38.43417 -38.43401
 Alpha  occ. eigenvalues --  -38.43350 -38.42827  -2.20133  -2.19762  -2.19687
 Alpha  occ. eigenvalues --   -2.19326  -2.19305  -2.19288  -2.18703  -1.13802
 Alpha  occ. eigenvalues --   -1.13788  -1.13784  -1.13454  -1.13434  -1.13405
 Alpha  occ. eigenvalues --   -1.13359  -1.13343  -1.13316  -1.13055  -1.13009
 Alpha  occ. eigenvalues --   -1.12987  -1.12969  -1.12943  -1.12926  -1.12918
 Alpha  occ. eigenvalues --   -1.12902  -1.12896  -1.12387  -1.12368  -1.12336
 Alpha  occ. eigenvalues --   -0.18797  -0.13319  -0.12231  -0.10743
 Alpha virt. eigenvalues --   -0.05882  -0.05330  -0.04267  -0.03301  -0.02768
 Alpha virt. eigenvalues --   -0.02530  -0.01749  -0.01112  -0.00365  -0.00171
 Alpha virt. eigenvalues --   -0.00013   0.00350   0.00761   0.00860   0.00923

  Beta  occ. eigenvalues --  -38.44302 -38.43922 -38.43832 -38.43409 -38.43308
  Beta  occ. eigenvalues --  -38.43282 -38.42821  -2.20128  -2.19759  -2.19683
  Beta  occ. eigenvalues --   -2.19279  -2.19182  -2.19155  -2.18696  -1.13790
  Beta  occ. eigenvalues --   -1.13784  -1.13774  -1.13454  -1.13417  -1.13397
  Beta  occ. eigenvalues --   -1.13350  -1.13327  -1.13315  -1.13015  -1.12945
  Beta  occ. eigenvalues --   -1.12905  -1.12900  -1.12871  -1.12839  -1.12823
  Beta  occ. eigenvalues --   -1.12821  -1.12816  -1.12383  -1.12339  -1.12333
  Beta  occ. eigenvalues --   -0.18058  -0.13085  -0.11979
  Beta virt. eigenvalues --   -0.06830  -0.05830  -0.05336  -0.04253  -0.02509
  Beta virt. eigenvalues --   -0.01978  -0.01654  -0.01458  -0.01057  -0.00430
  Beta virt. eigenvalues --   -0.00203   0.00122   0.00373   0.00826   0.00850

 Mulliken charges and spin densities:
               1          2
     1  Na  -0.335545   0.587670
     2  Na   0.251639  -0.099357
     3  Na   0.101325  -0.061546
     4  Na   0.057119  -0.042968
     5  Na  -0.407127   0.754681
     6  Na   0.256721  -0.111602
     7  Na   0.075869  -0.026878
 Sum of Mulliken charges =  -0.00000   1.00000

 Dipole moment (field-independent basis, Debye):
    X=              0.0105    Y=             -0.2014    Z=              0.0017  Tot=              0.2017
 Quadrupole moment (field-independent basis, Debye-Ang):
   XX=            -53.4664   YY=            -65.3406   ZZ=            -74.3872
   XY=              0.3312   XZ=             -0.3826   YZ=             -0.6435

 Normal termination of Gaussian 16 at Thu Dec  7 06:27:30 2023.
