 Gaussian 16, Revision B.01,
 Gaussian 16:  ES64L-G16RevB.01 20-Dec-2017

 -------------------------
 #P B3LYP/6-311+g(d) force
 -------------------------

 -----
 DPGEN
 -----
 Symbolic Z-matrix:
 Charge =  0 Multiplicity = 2

                         Standard orientation:
 ---------------------------------------------------------------------
 Center     Atomic      Atomic             Coordinates (Angstroms)
 Number     Number       Type             X           Y           Z
 ---------------------------------------------------------------------
      1         11           0       -1.192748    1.683771    0.321881
      2         11           0       -2.913180   -2.334072   -0.353370
      3         11           0       -4.526074    0.479138    0.451121
      4         11           0        1.894230    0.175297    1.843935
      5         11           0        3.761082   -1.974501    0.387765
      6         11           0        1.036091   -0.716274   -1.758101
      7         11           0        1.940599    2.686642   -0.893231
 ---------------------------------------------------------------------

 SCF Done:  E(UB3LYP) =  -1136.11743048     A.U. after   22 cycles

 The electronic state is 2-A.
 Alpha  occ. eigenvalues --  -38.45117 -38.44646 -38.44237 -38.44168 -38.44048
 Alpha  occ. eigenvalues --  -38.43741 -38.43226  -2.20873  -2.20444  -2.20040
 Alpha  occ. eigenvalues --   -2.20025  -2.19874  -2.19561  -2.19034  -1.14549
 Alpha  occ. eigenvalues --   -1.14529  -1.14513  -1.14108  -1.14101  -1.14074
 Alpha  occ. eigenvalues --   -1.13718  -1.13708  -1.13704  -1.13678  -1.13666
 Alpha  occ. eigenvalues --   -1.13630  -1.13555  -1.13505  -1.13488  -1.13273
 Alpha  occ. eigenvalues --   -1.13250  -1.13149  -1.12706  -1.12697  -1.12675
 Alpha  occ. eigenvalues --   -0.17125  -0.14001  -0.11477  -0.10544
 Alpha virt. eigenvalues --   -0.06783  -0.06348  -0.04189  -0.03273  -0.02846
 Alpha virt. eigenvalues --   -0.02395  -0.02213  -0.01800  -0.01150  -0.00704
 Alpha virt. eigenvalues --   -0.00226  -0.00001   0.00261   0.00456   0.00496

  Beta  occ. eigenvalues --  -38.45102 -38.44632 -38.44230 -38.44112 -38.43973
  Beta  occ. eigenvalues --  -38.43728 -38.43226  -2.20844  -2.20417  -2.20029
  Beta  occ. eigenvalues --   -2.19923  -2.19735  -2.19538  -2.19037  -1.14530
  Beta  occ. eigenvalues --   -1.14505  -1.14490  -1.14089  -1.14077  -1.14059
  Beta  occ. eigenvalues --   -1.13702  -1.13683  -1.13666  -1.13641  -1.13607
  Beta  occ. eigenvalues --   -1.13555  -1.13461  -1.13407  -1.13391  -1.13259
  Beta  occ. eigenvalues --   -1.13217  -1.13134  -1.12702  -1.12694  -1.12674
  Beta  occ. eigenvalues --   -0.16548  -0.13780  -0.11290
  Beta virt. eigenvalues --   -0.07091  -0.06244  -0.06017  -0.04037  -0.02936
  Beta virt. eigenvalues --   -0.02428  -0.02062  -0.01926  -0.01361  -0.00964
  Beta virt. eigenvalues --   -0.00394  -0.00108   0.00062   0.00447   0.00532

 Mulliken charges and spin densities:
               1          2
     1  Na  -0.470903   0.174914
     2  Na  -0.109853   0.096431
     3  Na   0.329800  -0.014187
     4  Na   0.003871   0.369352
     5  Na   0.035838  -0.180702
     6  Na  -0.166128   0.580308
     7  Na   0.377375  -0.026116
 Sum of Mulliken charges =  -0.00000   1.00000

 Dipole moment (field-independent basis, Debye):
    X=             -0.8387    Y=              0.3622    Z=             -0.1899  Tot=              0.9331
 Quadrupole moment (field-independent basis, Debye-Ang):
   XX=            -55.8711   YY=            -67.4231   ZZ=            -73.1296
   XY=              4.1196   XZ=             -4.5386   YZ=             -0.3192

 Normal termination of Gaussian 16 at Mon Dec  4 04:36:48 2023.
