 Gaussian 16, Revision B.01,
 Gaussian 16:  ES64L-G16RevB.01 20-Dec-2017

 -------------------------
 #P B3LYP/6-311+g(d) force
 -------------------------

 -----
 DPGEN
 -----
 Symbolic Z-matrix:
 Charge =  0 Multiplicity = 2

                         Standard orientation:
 ---------------------------------------------------------------------
 Center     Atomic      Atomic             Coordinates (Angstroms)
 Number     Number       Type             X           Y           Z
 ---------------------------------------------------------------------
      1         11           0        1.123966    2.928556    0.094626
      2         11           0       -2.434138    1.790724    0.000326
      3         11           0       -2.315886   -1.492227   -0.131615
      4         11           0       -0.068778   -0.301972    1.730884
      5         11           0        0.723721   -2.866737   -0.038202
      6         11           0       -0.093172    0.049350   -1.523643
      7         11           0        3.064287   -0.107695   -0.132375
 ---------------------------------------------------------------------

 SCF Done:  E(UB3LYP) =  -1136.13642260     A.U. after   19 cycles

 The electronic state is 2-A.
 Alpha  occ. eigenvalues --  -38.43897 -38.43831 -38.43629 -38.43506 -38.43395
 Alpha  occ. eigenvalues --  -38.42946 -38.42775  -2.19706  -2.19661  -2.19499
 Alpha  occ. eigenvalues --   -2.19406  -2.19367  -2.18953  -2.18837  -1.13384
 Alpha  occ. eigenvalues --   -1.13372  -1.13352  -1.13338  -1.13324  -1.13288
 Alpha  occ. eigenvalues --   -1.13205  -1.13163  -1.13140  -1.13139  -1.13083
 Alpha  occ. eigenvalues --   -1.13063  -1.13044  -1.13034  -1.12952  -1.12664
 Alpha  occ. eigenvalues --   -1.12567  -1.12558  -1.12513  -1.12457  -1.12443
 Alpha  occ. eigenvalues --   -0.19208  -0.13000  -0.12890  -0.10366
 Alpha virt. eigenvalues --   -0.05483  -0.05093  -0.05044  -0.02872  -0.02814
 Alpha virt. eigenvalues --   -0.02019  -0.01379  -0.01307  -0.00448  -0.00267
 Alpha virt. eigenvalues --    0.00056   0.00357   0.00843   0.00890   0.00913

  Beta  occ. eigenvalues --  -38.43896 -38.43827 -38.43624 -38.43498 -38.43381
  Beta  occ. eigenvalues --  -38.42863 -38.42706  -2.19707  -2.19657  -2.19494
  Beta  occ. eigenvalues --   -2.19396  -2.19348  -2.18801  -2.18713  -1.13377
  Beta  occ. eigenvalues --   -1.13364  -1.13354  -1.13328  -1.13309  -1.13290
  Beta  occ. eigenvalues --   -1.13201  -1.13146  -1.13132  -1.13126  -1.13066
  Beta  occ. eigenvalues --   -1.13039  -1.13028  -1.12975  -1.12946  -1.12567
  Beta  occ. eigenvalues --   -1.12459  -1.12449  -1.12423  -1.12362  -1.12353
  Beta  occ. eigenvalues --   -0.18476  -0.12733  -0.12633
  Beta virt. eigenvalues --   -0.06427  -0.05484  -0.05070  -0.05030  -0.02082
  Beta virt. eigenvalues --   -0.02037  -0.01307  -0.01256  -0.00986  -0.00492
  Beta virt. eigenvalues --   -0.00328   0.00187   0.00390   0.00853   0.00903

 Mulliken charges and spin densities:
               1          2
     1  Na  -0.076607  -0.113475
     2  Na   0.100234  -0.081117
     3  Na   0.592665   0.033009
     4  Na  -0.475177   0.775230
     5  Na   0.353160  -0.044393
     6  Na  -0.476474   0.546271
     7  Na  -0.017801  -0.115525
 Sum of Mulliken charges =  -0.00000   1.00000

 Dipole moment (field-independent basis, Debye):
    X=              0.2513    Y=              0.2312    Z=              0.0892  Tot=              0.3529
 Quadrupole moment (field-independent basis, Debye-Ang):
   XX=            -57.6780   YY=            -57.2234   ZZ=            -76.6014
   XY=             -0.7376   XZ=             -0.0914   YZ=              0.8801

 Normal termination of Gaussian 16 at Wed Nov 29 03:59:32 2023.
