 Gaussian 16, Revision B.01,
 Gaussian 16:  ES64L-G16RevB.01 20-Dec-2017

 -------------------------
 #P B3LYP/6-311+g(d) force
 -------------------------

 -----
 DPGEN
 -----
 Symbolic Z-matrix:
 Charge =  0 Multiplicity = 2

                         Standard orientation:
 ---------------------------------------------------------------------
 Center     Atomic      Atomic             Coordinates (Angstroms)
 Number     Number       Type             X           Y           Z
 ---------------------------------------------------------------------
      1         11           0       -0.715358   -2.070469    0.551153
      2         11           0       -4.030573   -2.580362   -0.149739
      3         11           0       -2.866839    0.232610   -0.399568
      4         11           0       -1.868539    3.660762    0.283684
      5         11           0        0.233681    1.347995   -0.699567
      6         11           0        2.925375    0.281380    0.965253
      7         11           0        6.322252   -0.871917   -0.551218
 ---------------------------------------------------------------------

 SCF Done:  E(UB3LYP) =  -1136.11835492     A.U. after   20 cycles

 The electronic state is 2-A.
 Alpha  occ. eigenvalues --  -38.44772 -38.44581 -38.44403 -38.43950 -38.43715
 Alpha  occ. eigenvalues --  -38.43655 -38.43608  -2.20604  -2.20356  -2.20255
 Alpha  occ. eigenvalues --   -2.19882  -2.19526  -2.19507  -2.19419  -1.14312
 Alpha  occ. eigenvalues --   -1.14289  -1.14185  -1.13993  -1.13992  -1.13968
 Alpha  occ. eigenvalues --   -1.13955  -1.13899  -1.13873  -1.13608  -1.13569
 Alpha  occ. eigenvalues --   -1.13450  -1.13231  -1.13210  -1.13190  -1.13177
 Alpha  occ. eigenvalues --   -1.13164  -1.13123  -1.13093  -1.13077  -1.13037
 Alpha  occ. eigenvalues --   -0.17243  -0.13548  -0.12609  -0.10902
 Alpha virt. eigenvalues --   -0.06128  -0.05707  -0.04775  -0.03626  -0.02608
 Alpha virt. eigenvalues --   -0.02226  -0.02165  -0.01360  -0.01311  -0.00882
 Alpha virt. eigenvalues --   -0.00310  -0.00041   0.00058   0.00370   0.00572

  Beta  occ. eigenvalues --  -38.44741 -38.44457 -38.44387 -38.43938 -38.43698
  Beta  occ. eigenvalues --  -38.43676 -38.43594  -2.20547  -2.20225  -2.20124
  Beta  occ. eigenvalues --   -2.19861  -2.19495  -2.19483  -2.19462  -1.14274
  Beta  occ. eigenvalues --   -1.14252  -1.14134  -1.13942  -1.13879  -1.13854
  Beta  occ. eigenvalues --   -1.13835  -1.13834  -1.13802  -1.13579  -1.13556
  Beta  occ. eigenvalues --   -1.13437  -1.13218  -1.13201  -1.13169  -1.13159
  Beta  occ. eigenvalues --   -1.13148  -1.13132  -1.13126  -1.13068  -1.13019
  Beta  occ. eigenvalues --   -0.16856  -0.13267  -0.11911
  Beta virt. eigenvalues --   -0.07434  -0.05718  -0.05394  -0.04587  -0.03346
  Beta virt. eigenvalues --   -0.02366  -0.02029  -0.01948  -0.01125  -0.00804
  Beta virt. eigenvalues --   -0.00455  -0.00119   0.00147   0.00282   0.00513

 Mulliken charges and spin densities:
               1          2
     1  Na  -0.194693   0.138207
     2  Na   0.782429   0.052670
     3  Na  -0.696452   0.226587
     4  Na   0.654102   0.114410
     5  Na  -0.835126  -0.068639
     6  Na   0.300413  -0.098922
     7  Na  -0.010673   0.635688
 Sum of Mulliken charges =  -0.00000   1.00000

 Dipole moment (field-independent basis, Debye):
    X=             -1.9020    Y=             -0.7256    Z=              0.2500  Tot=              2.0510
 Quadrupole moment (field-independent basis, Debye-Ang):
   XX=            -67.5562   YY=            -60.9796   ZZ=            -69.8045
   XY=              4.5839   XZ=             -1.4895   YZ=              2.0245

 Normal termination of Gaussian 16 at Tue Nov 28 22:43:33 2023.
