 Gaussian 16, Revision B.01,
 Gaussian 16:  ES64L-G16RevB.01 20-Dec-2017

 -------------------------
 #P B3LYP/6-311+g(d) force
 -------------------------

 -----
 DPGEN
 -----
 Symbolic Z-matrix:
 Charge =  0 Multiplicity = 2

                         Standard orientation:
 ---------------------------------------------------------------------
 Center     Atomic      Atomic             Coordinates (Angstroms)
 Number     Number       Type             X           Y           Z
 ---------------------------------------------------------------------
      1         11           0       -2.985048   -0.365191    1.450044
      2         11           0       -2.436069    2.632858   -0.442006
      3         11           0       -3.198524   -2.205494   -1.003501
      4         11           0        0.773680    1.622938   -0.787245
      5         11           0        0.080235   -0.647215    0.693760
      6         11           0        3.552224   -2.175870   -0.333603
      7         11           0        4.213504    1.137973    0.422550
 ---------------------------------------------------------------------

 SCF Done:  E(UB3LYP) =  -1136.10298851     A.U. after   29 cycles

 The electronic state is 2-A.
 Alpha  occ. eigenvalues --  -38.45379 -38.44662 -38.44431 -38.44361 -38.43707
 Alpha  occ. eigenvalues --  -38.43622 -38.43541  -2.21118  -2.20459  -2.20248
 Alpha  occ. eigenvalues --   -2.20235  -2.19535  -2.19517  -2.19490  -1.14806
 Alpha  occ. eigenvalues --   -1.14781  -1.14760  -1.14170  -1.14116  -1.14095
 Alpha  occ. eigenvalues --   -1.13946  -1.13897  -1.13887  -1.13879  -1.13855
 Alpha  occ. eigenvalues --   -1.13848  -1.13500  -1.13198  -1.13188  -1.13170
 Alpha  occ. eigenvalues --   -1.13163  -1.13132  -1.13092  -1.13050  -1.13010
 Alpha  occ. eigenvalues --   -0.17398  -0.14341  -0.11500  -0.09815
 Alpha virt. eigenvalues --   -0.07043  -0.06563  -0.03786  -0.03501  -0.03241
 Alpha virt. eigenvalues --   -0.02587  -0.01949  -0.01456  -0.00932  -0.00526
 Alpha virt. eigenvalues --   -0.00133  -0.00089   0.00182   0.00263   0.00444

  Beta  occ. eigenvalues --  -38.45395 -38.44646 -38.44366 -38.44346 -38.43671
  Beta  occ. eigenvalues --  -38.43613 -38.43459  -2.21152  -2.20431  -2.20226
  Beta  occ. eigenvalues --   -2.20113  -2.19511  -2.19448  -2.19352  -1.14834
  Beta  occ. eigenvalues --   -1.14787  -1.14776  -1.14152  -1.14098  -1.14065
  Beta  occ. eigenvalues --   -1.13905  -1.13870  -1.13836  -1.13814  -1.13790
  Beta  occ. eigenvalues --   -1.13769  -1.13429  -1.13177  -1.13148  -1.13134
  Beta  occ. eigenvalues --   -1.13116  -1.13059  -1.13032  -1.12982  -1.12932
  Beta  occ. eigenvalues --   -0.16773  -0.13820  -0.11319
  Beta virt. eigenvalues --   -0.06860  -0.06504  -0.06270  -0.03517  -0.03218
  Beta virt. eigenvalues --   -0.02752  -0.02146  -0.01783  -0.01119  -0.00878
  Beta virt. eigenvalues --   -0.00206  -0.00011   0.00119   0.00278   0.00311

 Mulliken charges and spin densities:
               1          2
     1  Na   0.910458   1.043590
     2  Na  -0.229437  -0.049359
     3  Na   0.556571  -0.079134
     4  Na   0.587201  -0.010058
     5  Na  -2.960439  -0.429020
     6  Na   0.846631  -0.049806
     7  Na   0.289014   0.573787
 Sum of Mulliken charges =  -0.00000   1.00000

 Dipole moment (field-independent basis, Debye):
    X=              0.0371    Y=             -1.0705    Z=             -0.4555  Tot=              1.1639
 Quadrupole moment (field-independent basis, Debye-Ang):
   XX=            -72.5147   YY=            -67.5161   ZZ=            -63.8744
   XY=             -2.9731   XZ=              0.6805   YZ=              5.5113

 Normal termination of Gaussian 16 at Tue Dec  5 15:30:03 2023.
