 Gaussian 16, Revision B.01,
 Gaussian 16:  ES64L-G16RevB.01 20-Dec-2017

 -------------------------
 #P B3LYP/6-311+g(d) force
 -------------------------

 -----
 DPGEN
 -----
 Symbolic Z-matrix:
 Charge =  0 Multiplicity = 2

                         Standard orientation:
 ---------------------------------------------------------------------
 Center     Atomic      Atomic             Coordinates (Angstroms)
 Number     Number       Type             X           Y           Z
 ---------------------------------------------------------------------
      1         11           0        0.771530    3.042461   -0.019647
      2         11           0       -2.746031   -1.986282   -0.291233
      3         11           0       -2.642153    1.659072    0.088361
      4         11           0        0.292624   -0.127081    2.096341
      5         11           0        3.215316   -0.059475   -0.502189
      6         11           0        1.261698   -2.528238    0.169865
      7         11           0       -0.152985   -0.000458   -1.541499
 ---------------------------------------------------------------------

 SCF Done:  E(UB3LYP) =  -1136.13594708     A.U. after   19 cycles

 The electronic state is 2-A.
 Alpha  occ. eigenvalues --  -38.44153 -38.44116 -38.43865 -38.43632 -38.43456
 Alpha  occ. eigenvalues --  -38.43454 -38.43234  -2.19962  -2.19952  -2.19652
 Alpha  occ. eigenvalues --   -2.19513  -2.19346  -2.19257  -2.19189  -1.13650
 Alpha  occ. eigenvalues --   -1.13632  -1.13628  -1.13611  -1.13590  -1.13582
 Alpha  occ. eigenvalues --   -1.13330  -1.13303  -1.13297  -1.13206  -1.13144
 Alpha  occ. eigenvalues --   -1.13128  -1.13030  -1.13003  -1.12966  -1.12939
 Alpha  occ. eigenvalues --   -1.12923  -1.12895  -1.12880  -1.12826  -1.12802
 Alpha  occ. eigenvalues --   -0.18348  -0.13079  -0.12210  -0.10623
 Alpha virt. eigenvalues --   -0.05662  -0.05434  -0.04770  -0.03185  -0.02722
 Alpha virt. eigenvalues --   -0.02496  -0.01679  -0.01284  -0.00545  -0.00448
 Alpha virt. eigenvalues --   -0.00025   0.00324   0.00741   0.00824   0.00856

  Beta  occ. eigenvalues --  -38.44151 -38.44102 -38.43863 -38.43529 -38.43455
  Beta  occ. eigenvalues --  -38.43444 -38.43183  -2.19961  -2.19927  -2.19650
  Beta  occ. eigenvalues --   -2.19333  -2.19323  -2.19258  -2.19098  -1.13644
  Beta  occ. eigenvalues --   -1.13624  -1.13613  -1.13583  -1.13578  -1.13573
  Beta  occ. eigenvalues --   -1.13318  -1.13303  -1.13295  -1.13103  -1.13019
  Beta  occ. eigenvalues --   -1.13001  -1.12999  -1.12961  -1.12939  -1.12931
  Beta  occ. eigenvalues --   -1.12915  -1.12894  -1.12816  -1.12763  -1.12732
  Beta  occ. eigenvalues --   -0.17637  -0.12847  -0.11996
  Beta virt. eigenvalues --   -0.06718  -0.05600  -0.05408  -0.04709  -0.02438
  Beta virt. eigenvalues --   -0.02023  -0.01593  -0.01417  -0.01234  -0.00582
  Beta virt. eigenvalues --   -0.00461   0.00125   0.00365   0.00806   0.00833

 Mulliken charges and spin densities:
               1          2
     1  Na  -0.039964  -0.063852
     2  Na   0.071214  -0.051343
     3  Na   0.047872  -0.056613
     4  Na  -0.368738   0.673471
     5  Na   0.098865   0.025841
     6  Na   0.371542   0.066586
     7  Na  -0.180791   0.405910
 Sum of Mulliken charges =  -0.00000   1.00000

 Dipole moment (field-independent basis, Debye):
    X=             -0.0899    Y=              0.0896    Z=              0.0943  Tot=              0.1581
 Quadrupole moment (field-independent basis, Debye-Ang):
   XX=            -55.5714   YY=            -62.2055   ZZ=            -75.2145
   XY=              0.4808   XZ=             -1.3483   YZ=              0.4738

 Normal termination of Gaussian 16 at Thu Dec  7 04:47:39 2023.
