 Gaussian 16, Revision B.01,
 Gaussian 16:  ES64L-G16RevB.01 20-Dec-2017

 -------------------------
 #P B3LYP/6-311+g(d) force
 -------------------------

 -----
 DPGEN
 -----
 Symbolic Z-matrix:
 Charge =  0 Multiplicity = 2

                         Standard orientation:
 ---------------------------------------------------------------------
 Center     Atomic      Atomic             Coordinates (Angstroms)
 Number     Number       Type             X           Y           Z
 ---------------------------------------------------------------------
      1         11           0        2.002309   -1.822822   -1.950151
      2         11           0        5.071875   -1.345601    1.470870
      3         11           0        3.291213    1.178491    0.023306
      4         11           0        0.709454    2.760300   -0.357680
      5         11           0       -0.788482    0.162082   -0.325367
      6         11           0       -4.115536   -0.480996    1.651320
      7         11           0       -6.170832   -0.451454   -0.512299
 ---------------------------------------------------------------------

 SCF Done:  E(UB3LYP) =  -1136.10542961     A.U. after   20 cycles

 The electronic state is 2-A.
 Alpha  occ. eigenvalues --  -38.45180 -38.44980 -38.44729 -38.44251 -38.43584
 Alpha  occ. eigenvalues --  -38.43575 -38.43572  -2.20973  -2.20763  -2.20542
 Alpha  occ. eigenvalues --   -2.20083  -2.19474  -2.19443  -2.19343  -1.14688
 Alpha  occ. eigenvalues --   -1.14622  -1.14618  -1.14423  -1.14398  -1.14361
 Alpha  occ. eigenvalues --   -1.14193  -1.14183  -1.14181  -1.13798  -1.13759
 Alpha  occ. eigenvalues --   -1.13710  -1.13242  -1.13133  -1.13113  -1.13091
 Alpha  occ. eigenvalues --   -1.13082  -1.13026  -1.13013  -1.12995  -1.12958
 Alpha  occ. eigenvalues --   -0.16474  -0.14129  -0.11614  -0.11133
 Alpha virt. eigenvalues --   -0.07105  -0.05303  -0.04244  -0.03388  -0.03183
 Alpha virt. eigenvalues --   -0.02827  -0.02198  -0.01452  -0.01093  -0.00804
 Alpha virt. eigenvalues --   -0.00745  -0.00038   0.00209   0.00445   0.00566

  Beta  occ. eigenvalues --  -38.45179 -38.44873 -38.44729 -38.44241 -38.43577
  Beta  occ. eigenvalues --  -38.43538 -38.43534  -2.20972  -2.20565  -2.20541
  Beta  occ. eigenvalues --   -2.20066  -2.19403  -2.19378  -2.19330  -1.14687
  Beta  occ. eigenvalues --   -1.14622  -1.14617  -1.14288  -1.14263  -1.14218
  Beta  occ. eigenvalues --   -1.14192  -1.14183  -1.14181  -1.13782  -1.13745
  Beta  occ. eigenvalues --   -1.13688  -1.13182  -1.13091  -1.13066  -1.13045
  Beta  occ. eigenvalues --   -1.13032  -1.13005  -1.12998  -1.12976  -1.12927
  Beta  occ. eigenvalues --   -0.15797  -0.13991  -0.11378
  Beta virt. eigenvalues --   -0.07271  -0.06752  -0.05164  -0.03845  -0.03209
  Beta virt. eigenvalues --   -0.02912  -0.02413  -0.01608  -0.01350  -0.00907
  Beta virt. eigenvalues --   -0.00660  -0.00401   0.00172   0.00307   0.00525

 Mulliken charges and spin densities:
               1          2
     1  Na   0.539000   0.409709
     2  Na   0.285910  -0.011262
     3  Na  -0.766723   0.317537
     4  Na   1.178953   0.135899
     5  Na  -1.202420   0.157019
     6  Na  -0.246361   0.004040
     7  Na   0.211641  -0.012942
 Sum of Mulliken charges =  -0.00000   1.00000

 Dipole moment (field-independent basis, Debye):
    X=             -2.5173    Y=             -0.3232    Z=             -0.3207  Tot=              2.5581
 Quadrupole moment (field-independent basis, Debye-Ang):
   XX=            -62.3175   YY=            -69.7290   ZZ=            -64.3198
   XY=             -1.6189   XZ=              3.9547   YZ=             -1.9110

 Normal termination of Gaussian 16 at Tue Nov 28 22:57:26 2023.
