 Gaussian 16, Revision B.01,
 Gaussian 16:  ES64L-G16RevB.01 20-Dec-2017

 -------------------------
 #P B3LYP/6-311+g(d) force
 -------------------------

 -----
 DPGEN
 -----
 Symbolic Z-matrix:
 Charge =  0 Multiplicity = 2

                         Standard orientation:
 ---------------------------------------------------------------------
 Center     Atomic      Atomic             Coordinates (Angstroms)
 Number     Number       Type             X           Y           Z
 ---------------------------------------------------------------------
      1         11           0        1.818299    1.574330   -0.220446
      2         11           0       -0.946882    0.175280    1.625942
      3         11           0       -2.202704   -2.471069   -0.448312
      4         11           0        2.472538   -1.695929    0.680928
      5         11           0        5.104539   -0.218927   -0.807905
      6         11           0       -4.574584   -0.543137   -0.690860
      7         11           0       -1.671206    3.179453   -0.139347
 ---------------------------------------------------------------------

 SCF Done:  E(UB3LYP) =  -1136.12190329     A.U. after   19 cycles

 The electronic state is 2-A.
 Alpha  occ. eigenvalues --  -38.44544 -38.44390 -38.44188 -38.44087 -38.44085
 Alpha  occ. eigenvalues --  -38.43796 -38.43562  -2.20343  -2.20206  -2.20019
 Alpha  occ. eigenvalues --   -2.19901  -2.19899  -2.19613  -2.19339  -1.14062
 Alpha  occ. eigenvalues --   -1.14057  -1.13924  -1.13891  -1.13875  -1.13828
 Alpha  occ. eigenvalues --   -1.13709  -1.13679  -1.13637  -1.13597  -1.13553
 Alpha  occ. eigenvalues --   -1.13551  -1.13548  -1.13528  -1.13508  -1.13279
 Alpha  occ. eigenvalues --   -1.13270  -1.13244  -1.13012  -1.12998  -1.12958
 Alpha  occ. eigenvalues --   -0.16746  -0.14076  -0.11786  -0.10762
 Alpha virt. eigenvalues --   -0.05969  -0.05374  -0.05278  -0.03641  -0.02663
 Alpha virt. eigenvalues --   -0.02318  -0.02100  -0.01647  -0.00871  -0.00797
 Alpha virt. eigenvalues --   -0.00384   0.00057   0.00281   0.00476   0.00546

  Beta  occ. eigenvalues --  -38.44543 -38.44370 -38.44150 -38.44039 -38.44036
  Beta  occ. eigenvalues --  -38.43799 -38.43542  -2.20343  -2.20174  -2.19954
  Beta  occ. eigenvalues --   -2.19814  -2.19802  -2.19622  -2.19301  -1.14060
  Beta  occ. eigenvalues --   -1.14044  -1.13922  -1.13874  -1.13859  -1.13770
  Beta  occ. eigenvalues --   -1.13667  -1.13625  -1.13578  -1.13548  -1.13488
  Beta  occ. eigenvalues --   -1.13485  -1.13484  -1.13468  -1.13448  -1.13289
  Beta  occ. eigenvalues --   -1.13277  -1.13219  -1.12985  -1.12972  -1.12934
  Beta  occ. eigenvalues --   -0.16101  -0.13696  -0.11597
  Beta virt. eigenvalues --   -0.07359  -0.05792  -0.04954  -0.04633  -0.03517
  Beta virt. eigenvalues --   -0.02386  -0.02010  -0.01631  -0.01546  -0.00585
  Beta virt. eigenvalues --   -0.00489  -0.00282   0.00225   0.00422   0.00544

 Mulliken charges and spin densities:
               1          2
     1  Na  -0.727164  -0.032550
     2  Na  -0.059551   0.259082
     3  Na   0.058766   0.000340
     4  Na  -0.129100   0.058513
     5  Na   0.737537   0.281297
     6  Na   0.032867   0.254544
     7  Na   0.086645   0.178776
 Sum of Mulliken charges =  -0.00000   1.00000

 Dipole moment (field-independent basis, Debye):
    X=              0.5231    Y=             -0.0408    Z=             -0.1387  Tot=              0.5427
 Quadrupole moment (field-independent basis, Debye-Ang):
   XX=            -60.0817   YY=            -68.5891   ZZ=            -69.6814
   XY=             -5.6510   XZ=             -1.3920   YZ=             -1.9921

 Normal termination of Gaussian 16 at Tue Nov 28 20:09:14 2023.
