 Gaussian 16, Revision B.01,
 Gaussian 16:  ES64L-G16RevB.01 20-Dec-2017

 -------------------------
 #P B3LYP/6-311+g(d) force
 -------------------------

 -----
 DPGEN
 -----
 Symbolic Z-matrix:
 Charge =  0 Multiplicity = 2

                         Standard orientation:
 ---------------------------------------------------------------------
 Center     Atomic      Atomic             Coordinates (Angstroms)
 Number     Number       Type             X           Y           Z
 ---------------------------------------------------------------------
      1         11           0        1.713343   -1.822776    0.550319
      2         11           0       -3.776911   -0.294708   -0.815108
      3         11           0       -1.557338    1.875094   -0.132443
      4         11           0        1.361333    1.674476    1.387207
      5         11           0        3.593047    0.280538   -0.961464
      6         11           0        0.126614   -0.540730   -1.703678
      7         11           0       -1.460088   -1.171894    1.675167
 ---------------------------------------------------------------------

 SCF Done:  E(UB3LYP) =  -1136.12089361     A.U. after   29 cycles

 The electronic state is 2-A.
 Alpha  occ. eigenvalues --  -38.45160 -38.45151 -38.44818 -38.43976 -38.43098
 Alpha  occ. eigenvalues --  -38.42774 -38.42455  -2.20990  -2.20985  -2.20711
 Alpha  occ. eigenvalues --   -2.19851  -2.19036  -2.18693  -2.18324  -1.14668
 Alpha  occ. eigenvalues --   -1.14656  -1.14645  -1.14632  -1.14613  -1.14610
 Alpha  occ. eigenvalues --   -1.14434  -1.14375  -1.14307  -1.13529  -1.13487
 Alpha  occ. eigenvalues --   -1.13475  -1.12746  -1.12680  -1.12664  -1.12400
 Alpha  occ. eigenvalues --   -1.12362  -1.12321  -1.11998  -1.11973  -1.11964
 Alpha  occ. eigenvalues --   -0.18756  -0.14370  -0.11491  -0.10746
 Alpha virt. eigenvalues --   -0.07136  -0.04977  -0.04461  -0.03115  -0.02994
 Alpha virt. eigenvalues --   -0.02422  -0.02246  -0.01165  -0.00686  -0.00039
 Alpha virt. eigenvalues --    0.00075   0.00247   0.00375   0.00805   0.00832

  Beta  occ. eigenvalues --  -38.45141 -38.45122 -38.44786 -38.43910 -38.43080
  Beta  occ. eigenvalues --  -38.42768 -38.42431  -2.20951  -2.20936  -2.20651
  Beta  occ. eigenvalues --   -2.19731  -2.19008  -2.18685  -2.18281  -1.14634
  Beta  occ. eigenvalues --   -1.14633  -1.14612  -1.14592  -1.14588  -1.14574
  Beta  occ. eigenvalues --   -1.14384  -1.14337  -1.14259  -1.13444  -1.13399
  Beta  occ. eigenvalues --   -1.13386  -1.12733  -1.12654  -1.12610  -1.12400
  Beta  occ. eigenvalues --   -1.12341  -1.12305  -1.11967  -1.11946  -1.11922
  Beta  occ. eigenvalues --   -0.18034  -0.14068  -0.10528
  Beta virt. eigenvalues --   -0.07661  -0.06926  -0.04518  -0.04235  -0.02844
  Beta virt. eigenvalues --   -0.02651  -0.01927  -0.01544  -0.00750  -0.00638
  Beta virt. eigenvalues --    0.00042   0.00109   0.00365   0.00379   0.00865

 Mulliken charges and spin densities:
               1          2
     1  Na   0.278579   0.195910
     2  Na   0.713191   0.058182
     3  Na  -0.266524   0.122426
     4  Na  -0.377195   0.166033
     5  Na   0.407037   0.080661
     6  Na  -0.405893   0.129976
     7  Na  -0.349194   0.246811
 Sum of Mulliken charges =  -0.00000   1.00000

 Dipole moment (field-independent basis, Debye):
    X=             -0.2789    Y=             -0.2998    Z=             -0.6126  Tot=              0.7369
 Quadrupole moment (field-independent basis, Debye-Ang):
   XX=            -44.4174   YY=            -81.6407   ZZ=            -66.9627
   XY=              1.9620   XZ=             -0.3317   YZ=             -3.1743

 Normal termination of Gaussian 16 at Thu Dec  7 09:43:01 2023.
