 Gaussian 16, Revision B.01,
 Gaussian 16:  ES64L-G16RevB.01 20-Dec-2017

 -------------------------
 #P B3LYP/6-311+g(d) force
 -------------------------

 -----
 DPGEN
 -----
 Symbolic Z-matrix:
 Charge =  0 Multiplicity = 2

                         Standard orientation:
 ---------------------------------------------------------------------
 Center     Atomic      Atomic             Coordinates (Angstroms)
 Number     Number       Type             X           Y           Z
 ---------------------------------------------------------------------
      1         11           0        1.019199    0.735874    1.470968
      2         11           0        0.215171   -2.381342   -1.196939
      3         11           0       -3.033441    0.888032    1.236877
      4         11           0        2.473165    1.584135   -1.261679
      5         11           0       -3.250621   -2.286693   -0.338181
      6         11           0        3.767756   -1.442960    0.935139
      7         11           0       -1.191231    2.902955   -0.846184
 ---------------------------------------------------------------------

 SCF Done:  E(UB3LYP) =  -1136.11920562     A.U. after   21 cycles

 The electronic state is 2-A.
 Alpha  occ. eigenvalues --  -38.44817 -38.44590 -38.44512 -38.44326 -38.44141
 Alpha  occ. eigenvalues --  -38.43879 -38.43827  -2.20643  -2.20409  -2.20299
 Alpha  occ. eigenvalues --   -2.20081  -2.19916  -2.19644  -2.19635  -1.14366
 Alpha  occ. eigenvalues --   -1.14334  -1.14236  -1.14079  -1.14066  -1.14006
 Alpha  occ. eigenvalues --   -1.13962  -1.13950  -1.13914  -1.13756  -1.13754
 Alpha  occ. eigenvalues --   -1.13687  -1.13600  -1.13578  -1.13561  -1.13322
 Alpha  occ. eigenvalues --   -1.13319  -1.13308  -1.13293  -1.13281  -1.13247
 Alpha  occ. eigenvalues --   -0.16933  -0.13500  -0.12214  -0.10342
 Alpha virt. eigenvalues --   -0.06357  -0.06182  -0.04964  -0.03387  -0.02949
 Alpha virt. eigenvalues --   -0.02299  -0.02018  -0.01517  -0.00973  -0.00506
 Alpha virt. eigenvalues --   -0.00362  -0.00030   0.00148   0.00348   0.00567

  Beta  occ. eigenvalues --  -38.44799 -38.44540 -38.44467 -38.44287 -38.44143
  Beta  occ. eigenvalues --  -38.43886 -38.43792  -2.20613  -2.20316  -2.20216
  Beta  occ. eigenvalues --   -2.20008  -2.19922  -2.19660  -2.19568  -1.14329
  Beta  occ. eigenvalues --   -1.14316  -1.14208  -1.14019  -1.14001  -1.13933
  Beta  occ. eigenvalues --   -1.13901  -1.13889  -1.13863  -1.13706  -1.13702
  Beta  occ. eigenvalues --   -1.13635  -1.13608  -1.13581  -1.13543  -1.13334
  Beta  occ. eigenvalues --   -1.13321  -1.13292  -1.13261  -1.13239  -1.13212
  Beta  occ. eigenvalues --   -0.16430  -0.13190  -0.11761
  Beta virt. eigenvalues --   -0.07069  -0.06249  -0.05928  -0.04390  -0.03089
  Beta virt. eigenvalues --   -0.02464  -0.02120  -0.01643  -0.01280  -0.00732
  Beta virt. eigenvalues --   -0.00264  -0.00202   0.00104   0.00269   0.00442

 Mulliken charges and spin densities:
               1          2
     1  Na  -0.533630   0.140329
     2  Na  -0.318127   0.243775
     3  Na   0.096210   0.221925
     4  Na   0.138336   0.282886
     5  Na   0.078104  -0.079177
     6  Na   0.504019   0.173874
     7  Na   0.035088   0.016388
 Sum of Mulliken charges =  -0.00000   1.00000

 Dipole moment (field-independent basis, Debye):
    X=              0.8581    Y=              0.2622    Z=             -0.2383  Tot=              0.9284
 Quadrupole moment (field-independent basis, Debye-Ang):
   XX=            -55.8119   YY=            -70.9579   ZZ=            -71.1862
   XY=             -2.5810   XZ=             -1.8115   YZ=             -2.1850

 Normal termination of Gaussian 16 at Sun Dec  3 19:42:48 2023.
