 Gaussian 16, Revision B.01,
 Gaussian 16:  ES64L-G16RevB.01 20-Dec-2017

 -------------------------
 #P B3LYP/6-311+g(d) force
 -------------------------

 -----
 DPGEN
 -----
 Symbolic Z-matrix:
 Charge =  0 Multiplicity = 2

                         Standard orientation:
 ---------------------------------------------------------------------
 Center     Atomic      Atomic             Coordinates (Angstroms)
 Number     Number       Type             X           Y           Z
 ---------------------------------------------------------------------
      1         11           0        3.158989   -0.048198   -0.567408
      2         11           0       -0.028602   -0.173359    2.120663
      3         11           0        1.194135    2.586496    0.128580
      4         11           0       -0.308030   -0.332059   -1.642121
      5         11           0       -2.970041   -1.419895   -0.269421
      6         11           0        0.990656   -2.810483    0.284524
      7         11           0       -2.037106    2.197499   -0.054818
 ---------------------------------------------------------------------

 SCF Done:  E(UB3LYP) =  -1136.13732422     A.U. after   19 cycles

 The electronic state is 2-A.
 Alpha  occ. eigenvalues --  -38.44115 -38.43873 -38.43787 -38.43696 -38.43662
 Alpha  occ. eigenvalues --  -38.43344 -38.43117  -2.19927  -2.19697  -2.19665
 Alpha  occ. eigenvalues --   -2.19532  -2.19509  -2.19297  -2.18985  -1.13628
 Alpha  occ. eigenvalues --   -1.13578  -1.13556  -1.13368  -1.13360  -1.13340
 Alpha  occ. eigenvalues --   -1.13329  -1.13301  -1.13288  -1.13209  -1.13201
 Alpha  occ. eigenvalues --   -1.13196  -1.13172  -1.13152  -1.13143  -1.12976
 Alpha  occ. eigenvalues --   -1.12934  -1.12919  -1.12653  -1.12648  -1.12631
 Alpha  occ. eigenvalues --   -0.18476  -0.12880  -0.12501  -0.10897
 Alpha virt. eigenvalues --   -0.05732  -0.05127  -0.04639  -0.03160  -0.03023
 Alpha virt. eigenvalues --   -0.02699  -0.01586  -0.01158  -0.00455  -0.00210
 Alpha virt. eigenvalues --   -0.00030   0.00336   0.00792   0.00845   0.00900

  Beta  occ. eigenvalues --  -38.44109 -38.43859 -38.43687 -38.43686 -38.43659
  Beta  occ. eigenvalues --  -38.43290 -38.43114  -2.19920  -2.19673  -2.19519
  Beta  occ. eigenvalues --   -2.19507  -2.19479  -2.19198  -2.18982  -1.13612
  Beta  occ. eigenvalues --   -1.13569  -1.13550  -1.13350  -1.13335  -1.13320
  Beta  occ. eigenvalues --   -1.13237  -1.13205  -1.13186  -1.13182  -1.13165
  Beta  occ. eigenvalues --   -1.13156  -1.13146  -1.13140  -1.13124  -1.12907
  Beta  occ. eigenvalues --   -1.12867  -1.12843  -1.12653  -1.12642  -1.12611
  Beta  occ. eigenvalues --   -0.17767  -0.12620  -0.12264
  Beta virt. eigenvalues --   -0.07013  -0.05683  -0.05068  -0.04586  -0.02433
  Beta virt. eigenvalues --   -0.02253  -0.01675  -0.01456  -0.01089  -0.00477
  Beta virt. eigenvalues --   -0.00244   0.00108   0.00378   0.00817   0.00898

 Mulliken charges and spin densities:
               1          2
     1  Na   0.084393   0.046825
     2  Na  -0.352374   0.648361
     3  Na   0.044606   0.027895
     4  Na  -0.216870   0.408796
     5  Na   0.223846  -0.075032
     6  Na   0.137761  -0.012601
     7  Na   0.078637  -0.044244
 Sum of Mulliken charges =  -0.00000   1.00000

 Dipole moment (field-independent basis, Debye):
    X=             -0.2628    Y=             -0.3273    Z=              0.1077  Tot=              0.4334
 Quadrupole moment (field-independent basis, Debye-Ang):
   XX=            -57.2476   YY=            -63.1916   ZZ=            -73.6089
   XY=             -0.0882   XZ=             -1.0402   YZ=             -0.2391

 Normal termination of Gaussian 16 at Thu Dec  7 08:25:31 2023.
