 Gaussian 16, Revision B.01,
 Gaussian 16:  ES64L-G16RevB.01 20-Dec-2017

 -------------------------
 #P B3LYP/6-311+g(d) force
 -------------------------

 -----
 DPGEN
 -----
 Symbolic Z-matrix:
 Charge =  0 Multiplicity = 2

                         Standard orientation:
 ---------------------------------------------------------------------
 Center     Atomic      Atomic             Coordinates (Angstroms)
 Number     Number       Type             X           Y           Z
 ---------------------------------------------------------------------
      1         11           0        1.017278   -1.889885   -0.211870
      2         11           0        4.317454   -0.464168    0.285316
      3         11           0       -4.439858   -0.534197    0.527157
      4         11           0        0.312845    0.253918    1.837316
      5         11           0       -1.707802   -1.218862   -1.279964
      6         11           0        2.282502    1.540448   -0.861145
      7         11           0       -1.782419    2.312747   -0.296811
 ---------------------------------------------------------------------

 SCF Done:  E(UB3LYP) =  -1136.11014486     A.U. after   31 cycles

 The electronic state is 2-A.
 Alpha  occ. eigenvalues --  -38.45625 -38.44861 -38.44482 -38.44282 -38.43676
 Alpha  occ. eigenvalues --  -38.43304 -38.42606  -2.21493  -2.20662  -2.20338
 Alpha  occ. eigenvalues --   -2.20126  -2.19559  -2.19090  -2.18555  -1.15188
 Alpha  occ. eigenvalues --   -1.15118  -1.15104  -1.14313  -1.14302  -1.14273
 Alpha  occ. eigenvalues --   -1.14049  -1.13977  -1.13948  -1.13814  -1.13782
 Alpha  occ. eigenvalues --   -1.13735  -1.13279  -1.13225  -1.13188  -1.12793
 Alpha  occ. eigenvalues --   -1.12763  -1.12707  -1.12256  -1.12237  -1.12140
 Alpha  occ. eigenvalues --   -0.18066  -0.14465  -0.10996  -0.10927
 Alpha virt. eigenvalues --   -0.07440  -0.05309  -0.04358  -0.03497  -0.03025
 Alpha virt. eigenvalues --   -0.02047  -0.01910  -0.01560  -0.01261  -0.00535
 Alpha virt. eigenvalues --   -0.00361   0.00110   0.00309   0.00609   0.00691

  Beta  occ. eigenvalues --  -38.45572 -38.44775 -38.44413 -38.44277 -38.43671
  Beta  occ. eigenvalues --  -38.43309 -38.42584  -2.21397  -2.20503  -2.20210
  Beta  occ. eigenvalues --   -2.20122  -2.19556  -2.19102  -2.18518  -1.15115
  Beta  occ. eigenvalues --   -1.15060  -1.15036  -1.14200  -1.14195  -1.14166
  Beta  occ. eigenvalues --   -1.13971  -1.13890  -1.13863  -1.13810  -1.13777
  Beta  occ. eigenvalues --   -1.13693  -1.13236  -1.13229  -1.13191  -1.12805
  Beta  occ. eigenvalues --   -1.12770  -1.12704  -1.12221  -1.12206  -1.12119
  Beta  occ. eigenvalues --   -0.17550  -0.13623  -0.10750
  Beta virt. eigenvalues --   -0.07508  -0.07164  -0.05069  -0.03841  -0.03088
  Beta virt. eigenvalues --   -0.02957  -0.01880  -0.01481  -0.01313  -0.00742
  Beta virt. eigenvalues --   -0.00204  -0.00146   0.00187   0.00411   0.00702

 Mulliken charges and spin densities:
               1          2
     1  Na  -0.394468   0.102217
     2  Na   0.611804   0.294422
     3  Na   0.089625   0.467911
     4  Na   0.141362  -0.018831
     5  Na   0.146330  -0.017556
     6  Na  -0.352638   0.114393
     7  Na  -0.242016   0.057444
 Sum of Mulliken charges =  -0.00000   1.00000

 Dipole moment (field-independent basis, Debye):
    X=              0.2274    Y=             -0.0581    Z=              1.1594  Tot=              1.1829
 Quadrupole moment (field-independent basis, Debye-Ang):
   XX=            -61.9280   YY=            -80.6613   ZZ=            -60.0818
   XY=             -2.7527   XZ=             -0.7981   YZ=             -3.9600

 Normal termination of Gaussian 16 at Sun Dec  3 15:56:03 2023.
