 Gaussian 16, Revision B.01,
 Gaussian 16:  ES64L-G16RevB.01 20-Dec-2017

 -------------------------
 #P B3LYP/6-311+g(d) force
 -------------------------

 -----
 DPGEN
 -----
 Symbolic Z-matrix:
 Charge =  0 Multiplicity = 2

                         Standard orientation:
 ---------------------------------------------------------------------
 Center     Atomic      Atomic             Coordinates (Angstroms)
 Number     Number       Type             X           Y           Z
 ---------------------------------------------------------------------
      1         11           0       -2.927345   -0.374369   -0.067280
      2         11           0       -0.335049    0.047812    1.971704
      3         11           0       -1.076018    2.769078   -0.445980
      4         11           0        2.350682    1.638652    0.641625
      5         11           0       -0.567741   -2.763806    0.274763
      6         11           0        2.715407   -1.297960   -0.608031
      7         11           0       -0.159936   -0.019406   -1.766800
 ---------------------------------------------------------------------

 SCF Done:  E(UB3LYP) =  -1136.13813951     A.U. after   19 cycles

 The electronic state is 2-A.
 Alpha  occ. eigenvalues --  -38.43824 -38.43726 -38.43597 -38.43536 -38.43414
 Alpha  occ. eigenvalues --  -38.43335 -38.43233  -2.19715  -2.19665  -2.19453
 Alpha  occ. eigenvalues --   -2.19399  -2.19389  -2.19181  -2.19112  -1.13426
 Alpha  occ. eigenvalues --   -1.13409  -1.13332  -1.13329  -1.13294  -1.13283
 Alpha  occ. eigenvalues --   -1.13163  -1.13125  -1.13102  -1.13088  -1.13074
 Alpha  occ. eigenvalues --   -1.13046  -1.13026  -1.13004  -1.13000  -1.12857
 Alpha  occ. eigenvalues --   -1.12829  -1.12806  -1.12796  -1.12775  -1.12732
 Alpha  occ. eigenvalues --   -0.18926  -0.13060  -0.12407  -0.11263
 Alpha virt. eigenvalues --   -0.05357  -0.04823  -0.04656  -0.03393  -0.03077
 Alpha virt. eigenvalues --   -0.02845  -0.01296  -0.01029  -0.00257   0.00042
 Alpha virt. eigenvalues --    0.00067   0.00381   0.00882   0.00915   0.00932

  Beta  occ. eigenvalues --  -38.43818 -38.43638 -38.43584 -38.43526 -38.43340
  Beta  occ. eigenvalues --  -38.43328 -38.43226  -2.19707  -2.19504  -2.19431
  Beta  occ. eigenvalues --   -2.19374  -2.19265  -2.19171  -2.19104  -1.13414
  Beta  occ. eigenvalues --   -1.13375  -1.13322  -1.13230  -1.13185  -1.13179
  Beta  occ. eigenvalues --   -1.13149  -1.13083  -1.13076  -1.13054  -1.13015
  Beta  occ. eigenvalues --   -1.12995  -1.12990  -1.12960  -1.12920  -1.12827
  Beta  occ. eigenvalues --   -1.12819  -1.12793  -1.12785  -1.12757  -1.12720
  Beta  occ. eigenvalues --   -0.18183  -0.12804  -0.12123
  Beta virt. eigenvalues --   -0.07336  -0.05333  -0.04742  -0.04603  -0.02632
  Beta virt. eigenvalues --   -0.02314  -0.01792  -0.01217  -0.00954  -0.00188
  Beta virt. eigenvalues --   -0.00004   0.00131   0.00406   0.00896   0.00923

 Mulliken charges and spin densities:
               1          2
     1  Na   0.180140  -0.084549
     2  Na  -0.145536   0.546208
     3  Na  -0.015300  -0.047174
     4  Na  -0.000392   0.055795
     5  Na   0.053770   0.005756
     6  Na   0.017614  -0.013222
     7  Na  -0.090295   0.537186
 Sum of Mulliken charges =  -0.00000   1.00000

 Dipole moment (field-independent basis, Debye):
    X=             -0.2019    Y=              0.0144    Z=              0.0903  Tot=              0.2216
 Quadrupole moment (field-independent basis, Debye-Ang):
   XX=            -59.4015   YY=            -63.4426   ZZ=            -71.7385
   XY=             -0.1301   XZ=              0.1888   YZ=              0.3031

 Normal termination of Gaussian 16 at Thu Dec  7 06:09:17 2023.
