 Gaussian 16, Revision B.01,
 Gaussian 16:  ES64L-G16RevB.01 20-Dec-2017

 -------------------------
 #P B3LYP/6-311+g(d) force
 -------------------------

 -----
 DPGEN
 -----
 Symbolic Z-matrix:
 Charge =  0 Multiplicity = 2

                         Standard orientation:
 ---------------------------------------------------------------------
 Center     Atomic      Atomic             Coordinates (Angstroms)
 Number     Number       Type             X           Y           Z
 ---------------------------------------------------------------------
      1         11           0       -3.379482    1.639890    0.594432
      2         11           0       -2.632081   -1.102698   -1.342902
      3         11           0        2.360929   -0.708967    1.556877
      4         11           0       -0.003974    1.482958   -0.577683
      5         11           0        3.660421    1.426667   -0.707471
      6         11           0       -1.012760   -0.917940    1.531976
      7         11           0        1.006947   -1.819909   -1.055230
 ---------------------------------------------------------------------

 SCF Done:  E(UB3LYP) =  -1136.12613762     A.U. after   24 cycles

 The electronic state is 2-A.
 Alpha  occ. eigenvalues --  -38.44543 -38.44289 -38.44058 -38.43863 -38.43724
 Alpha  occ. eigenvalues --  -38.43284 -38.43218  -2.20407  -2.20149  -2.19967
 Alpha  occ. eigenvalues --   -2.19692  -2.19525  -2.19188  -2.19177  -1.14088
 Alpha  occ. eigenvalues --   -1.14065  -1.14015  -1.13874  -1.13845  -1.13735
 Alpha  occ. eigenvalues --   -1.13658  -1.13641  -1.13573  -1.13357  -1.13352
 Alpha  occ. eigenvalues --   -1.13327  -1.13197  -1.13184  -1.13158  -1.12906
 Alpha  occ. eigenvalues --   -1.12876  -1.12854  -1.12835  -1.12797  -1.12749
 Alpha  occ. eigenvalues --   -0.18679  -0.14246  -0.11173  -0.10993
 Alpha virt. eigenvalues --   -0.06684  -0.05374  -0.04783  -0.03115  -0.02548
 Alpha virt. eigenvalues --   -0.02420  -0.02041  -0.01266  -0.00871  -0.00131
 Alpha virt. eigenvalues --    0.00115   0.00294   0.00396   0.00473   0.00638

  Beta  occ. eigenvalues --  -38.44501 -38.44271 -38.44021 -38.43852 -38.43721
  Beta  occ. eigenvalues --  -38.43264 -38.43172  -2.20330  -2.20119  -2.19900
  Beta  occ. eigenvalues --   -2.19671  -2.19518  -2.19153  -2.19094  -1.14034
  Beta  occ. eigenvalues --   -1.14011  -1.13955  -1.13850  -1.13799  -1.13716
  Beta  occ. eigenvalues --   -1.13617  -1.13586  -1.13519  -1.13341  -1.13330
  Beta  occ. eigenvalues --   -1.13315  -1.13190  -1.13180  -1.13152  -1.12875
  Beta  occ. eigenvalues --   -1.12831  -1.12801  -1.12779  -1.12747  -1.12693
  Beta  occ. eigenvalues --   -0.18001  -0.14069  -0.10875
  Beta virt. eigenvalues --   -0.07172  -0.06530  -0.05276  -0.04140  -0.02850
  Beta virt. eigenvalues --   -0.02468  -0.01873  -0.01431  -0.01022  -0.00409
  Beta virt. eigenvalues --   -0.00098   0.00153   0.00313   0.00484   0.00595

 Mulliken charges and spin densities:
               1          2
     1  Na   0.937917  -0.033793
     2  Na   0.180425   0.199796
     3  Na   0.399529   0.060602
     4  Na  -1.377088   0.217546
     5  Na   0.250807  -0.035803
     6  Na  -0.252435   0.314917
     7  Na  -0.139156   0.276736
 Sum of Mulliken charges =  -0.00000   1.00000

 Dipole moment (field-independent basis, Debye):
    X=             -0.4546    Y=             -0.4304    Z=             -0.1198  Tot=              0.6374
 Quadrupole moment (field-independent basis, Debye-Ang):
   XX=            -50.5745   YY=            -74.7897   ZZ=            -69.4169
   XY=             -1.1638   XZ=              1.1765   YZ=              1.5419

 Normal termination of Gaussian 16 at Tue Dec  5 10:10:51 2023.
