 Gaussian 16, Revision B.01,
 Gaussian 16:  ES64L-G16RevB.01 20-Dec-2017

 -------------------------
 #P B3LYP/6-311+g(d) force
 -------------------------

 -----
 DPGEN
 -----
 Symbolic Z-matrix:
 Charge =  0 Multiplicity = 2

                         Standard orientation:
 ---------------------------------------------------------------------
 Center     Atomic      Atomic             Coordinates (Angstroms)
 Number     Number       Type             X           Y           Z
 ---------------------------------------------------------------------
      1         11           0       -1.810591    0.640093    0.568596
      2         11           0       -7.138925    0.700511   -0.334294
      3         11           0        0.625911   -0.852879    1.480871
      4         11           0        2.870030    2.276279   -0.089888
      5         11           0        4.429663   -2.053854   -0.405995
      6         11           0        5.695248    0.573112   -0.571375
      7         11           0       -4.671336   -1.283261   -0.647914
 ---------------------------------------------------------------------

 SCF Done:  E(UB3LYP) =  -1136.10726100     A.U. after   19 cycles

 The electronic state is 2-A.
 Alpha  occ. eigenvalues --  -38.44834 -38.44666 -38.44416 -38.44260 -38.44187
 Alpha  occ. eigenvalues --  -38.44091 -38.44004  -2.20604  -2.20462  -2.20227
 Alpha  occ. eigenvalues --   -2.20081  -2.19997  -2.19948  -2.19852  -1.14286
 Alpha  occ. eigenvalues --   -1.14266  -1.14262  -1.14129  -1.14122  -1.14071
 Alpha  occ. eigenvalues --   -1.13881  -1.13861  -1.13848  -1.13843  -1.13770
 Alpha  occ. eigenvalues --   -1.13749  -1.13730  -1.13651  -1.13636  -1.13600
 Alpha  occ. eigenvalues --   -1.13587  -1.13574  -1.13479  -1.13464  -1.13417
 Alpha  occ. eigenvalues --   -0.15864  -0.14450  -0.12240  -0.10780
 Alpha virt. eigenvalues --   -0.06881  -0.05224  -0.04687  -0.03422  -0.03027
 Alpha virt. eigenvalues --   -0.02922  -0.02546  -0.01672  -0.00943  -0.00606
 Alpha virt. eigenvalues --   -0.00508  -0.00396   0.00041   0.00331   0.00498

  Beta  occ. eigenvalues --  -38.44834 -38.44666 -38.44308 -38.44263 -38.44178
  Beta  occ. eigenvalues --  -38.44089 -38.43929  -2.20604  -2.20462  -2.20086
  Beta  occ. eigenvalues --   -2.20027  -2.19980  -2.19952  -2.19710  -1.14286
  Beta  occ. eigenvalues --   -1.14266  -1.14262  -1.14129  -1.14122  -1.14070
  Beta  occ. eigenvalues --   -1.13846  -1.13752  -1.13746  -1.13740  -1.13731
  Beta  occ. eigenvalues --   -1.13727  -1.13699  -1.13639  -1.13623  -1.13609
  Beta  occ. eigenvalues --   -1.13568  -1.13556  -1.13383  -1.13366  -1.13347
  Beta  occ. eigenvalues --   -0.15306  -0.14174  -0.12139
  Beta virt. eigenvalues --   -0.06925  -0.06670  -0.05087  -0.04242  -0.03137
  Beta virt. eigenvalues --   -0.02809  -0.02627  -0.01959  -0.01650  -0.00891
  Beta virt. eigenvalues --   -0.00391  -0.00238   0.00032   0.00305   0.00355

 Mulliken charges and spin densities:
               1          2
     1  Na  -0.160795  -0.065543
     2  Na   0.246010  -0.006325
     3  Na  -0.206906   0.134098
     4  Na   0.014726   0.593268
     5  Na  -0.052215   0.373859
     6  Na   0.160196  -0.021972
     7  Na  -0.001016  -0.007384
 Sum of Mulliken charges =  -0.00000   1.00000

 Dipole moment (field-independent basis, Debye):
    X=             -1.7559    Y=              0.1916    Z=             -0.0765  Tot=              1.7679
 Quadrupole moment (field-independent basis, Debye-Ang):
   XX=            -56.2668   YY=            -67.5007   ZZ=            -73.3654
   XY=             -4.3401   XZ=             -0.0558   YZ=              0.2796

 Normal termination of Gaussian 16 at Sun Dec  3 11:50:37 2023.
