 Gaussian 16, Revision B.01,
 Gaussian 16:  ES64L-G16RevB.01 20-Dec-2017

 -------------------------
 #P B3LYP/6-311+g(d) force
 -------------------------

 -----
 DPGEN
 -----
 Symbolic Z-matrix:
 Charge =  0 Multiplicity = 2

                         Standard orientation:
 ---------------------------------------------------------------------
 Center     Atomic      Atomic             Coordinates (Angstroms)
 Number     Number       Type             X           Y           Z
 ---------------------------------------------------------------------
      1         11           0       -1.158208    3.889144    0.314347
      2         11           0        2.839239    2.874319   -0.000114
      3         11           0       -4.426327    1.331970   -0.180927
      4         11           0       -0.542290   -3.419824    0.899371
      5         11           0        4.325477    0.190565   -0.145419
      6         11           0       -3.502952   -1.936304   -0.480467
      7         11           0        2.465061   -2.929870   -0.406792
 ---------------------------------------------------------------------

 SCF Done:  E(UB3LYP) =  -1136.10329775     A.U. after   23 cycles

 The electronic state is 2-A.
 Alpha  occ. eigenvalues --  -38.45120 -38.45049 -38.45005 -38.44580 -38.44523
 Alpha  occ. eigenvalues --  -38.44517 -38.44072  -2.20860  -2.20826  -2.20783
 Alpha  occ. eigenvalues --   -2.20365  -2.20306  -2.20280  -2.19899  -1.14542
 Alpha  occ. eigenvalues --   -1.14529  -1.14516  -1.14506  -1.14496  -1.14473
 Alpha  occ. eigenvalues --   -1.14453  -1.14447  -1.14424  -1.14033  -1.14025
 Alpha  occ. eigenvalues --   -1.13999  -1.13973  -1.13966  -1.13941  -1.13930
 Alpha  occ. eigenvalues --   -1.13917  -1.13893  -1.13561  -1.13544  -1.13530
 Alpha  occ. eigenvalues --   -0.15387  -0.13947  -0.13359  -0.10947
 Alpha virt. eigenvalues --   -0.07967  -0.04875  -0.04611  -0.03529  -0.03478
 Alpha virt. eigenvalues --   -0.02556  -0.02298  -0.01934  -0.01475  -0.00756
 Alpha virt. eigenvalues --   -0.00623  -0.00203  -0.00006   0.00184   0.00272

  Beta  occ. eigenvalues --  -38.45121 -38.45041 -38.44984 -38.44542 -38.44512
  Beta  occ. eigenvalues --  -38.44413 -38.44033  -2.20867  -2.20818  -2.20747
  Beta  occ. eigenvalues --   -2.20297  -2.20288  -2.20087  -2.19829  -1.14551
  Beta  occ. eigenvalues --   -1.14536  -1.14504  -1.14496  -1.14484  -1.14441
  Beta  occ. eigenvalues --   -1.14430  -1.14424  -1.14386  -1.13989  -1.13981
  Beta  occ. eigenvalues --   -1.13966  -1.13959  -1.13941  -1.13909  -1.13800
  Beta  occ. eigenvalues --   -1.13788  -1.13763  -1.13513  -1.13497  -1.13482
  Beta  occ. eigenvalues --   -0.14949  -0.13412  -0.12425
  Beta virt. eigenvalues --   -0.08202  -0.07700  -0.04425  -0.04122  -0.03330
  Beta virt. eigenvalues --   -0.03170  -0.02418  -0.02032  -0.01862  -0.01266
  Beta virt. eigenvalues --   -0.00441  -0.00315   0.00023   0.00159   0.00282

 Mulliken charges and spin densities:
               1          2
     1  Na  -0.026145   0.555404
     2  Na   0.201713   0.043509
     3  Na   0.196935   0.001802
     4  Na  -0.271601   0.037713
     5  Na   0.091693   0.103915
     6  Na  -0.103068   0.148922
     7  Na  -0.089528   0.108735
 Sum of Mulliken charges =  -0.00000   1.00000

 Dipole moment (field-independent basis, Debye):
    X=              0.0024    Y=             -0.5957    Z=             -0.0686  Tot=              0.5997
 Quadrupole moment (field-independent basis, Debye-Ang):
   XX=            -61.7607   YY=            -66.4879   ZZ=            -72.8535
   XY=             -2.8417   XZ=             -1.2740   YZ=              0.4618

 Normal termination of Gaussian 16 at Sun Dec  3 23:53:37 2023.
