 Gaussian 16, Revision B.01,
 Gaussian 16:  ES64L-G16RevB.01 20-Dec-2017

 -------------------------
 #P B3LYP/6-311+g(d) force
 -------------------------

 -----
 DPGEN
 -----
 Symbolic Z-matrix:
 Charge =  0 Multiplicity = 2

                         Standard orientation:
 ---------------------------------------------------------------------
 Center     Atomic      Atomic             Coordinates (Angstroms)
 Number     Number       Type             X           Y           Z
 ---------------------------------------------------------------------
      1         11           0        1.958149   -1.358356   -1.656649
      2         11           0       -2.060909   -3.023200   -0.357049
      3         11           0       -0.158023   -0.504224    1.886441
      4         11           0       -1.194201    3.078878    0.833937
      5         11           0       -3.282316    0.422620   -0.769005
      6         11           0        2.844063   -1.269586    1.219986
      7         11           0        1.893237    2.653867   -1.157660
 ---------------------------------------------------------------------

 SCF Done:  E(UB3LYP) =  -1136.11605909     A.U. after   21 cycles

 The electronic state is 2-A.
 Alpha  occ. eigenvalues --  -38.44880 -38.44713 -38.44466 -38.44211 -38.44185
 Alpha  occ. eigenvalues --  -38.44178 -38.43632  -2.20625  -2.20454  -2.20285
 Alpha  occ. eigenvalues --   -2.20056  -2.20046  -2.19939  -2.19404  -1.14313
 Alpha  occ. eigenvalues --   -1.14284  -1.14251  -1.14133  -1.14105  -1.14078
 Alpha  occ. eigenvalues --   -1.14029  -1.13934  -1.13901  -1.13799  -1.13705
 Alpha  occ. eigenvalues --   -1.13693  -1.13673  -1.13660  -1.13633  -1.13613
 Alpha  occ. eigenvalues --   -1.13593  -1.13575  -1.13081  -1.13065  -1.13048
 Alpha  occ. eigenvalues --   -0.16878  -0.13054  -0.12167  -0.10857
 Alpha virt. eigenvalues --   -0.06580  -0.05479  -0.04854  -0.03614  -0.03193
 Alpha virt. eigenvalues --   -0.02596  -0.01536  -0.01432  -0.00800  -0.00736
 Alpha virt. eigenvalues --   -0.00136   0.00076   0.00383   0.00485   0.00586

  Beta  occ. eigenvalues --  -38.44875 -38.44681 -38.44432 -38.44174 -38.44154
  Beta  occ. eigenvalues --  -38.44133 -38.43630  -2.20617  -2.20393  -2.20221
  Beta  occ. eigenvalues --   -2.20008  -2.19919  -2.19912  -2.19400  -1.14306
  Beta  occ. eigenvalues --   -1.14278  -1.14242  -1.14089  -1.14066  -1.14033
  Beta  occ. eigenvalues --   -1.13991  -1.13890  -1.13849  -1.13728  -1.13653
  Beta  occ. eigenvalues --   -1.13629  -1.13612  -1.13597  -1.13589  -1.13574
  Beta  occ. eigenvalues --   -1.13561  -1.13542  -1.13072  -1.13063  -1.13045
  Beta  occ. eigenvalues --   -0.16237  -0.12868  -0.11903
  Beta virt. eigenvalues --   -0.07286  -0.06445  -0.05054  -0.04562  -0.03202
  Beta virt. eigenvalues --   -0.02781  -0.01849  -0.01392  -0.01375  -0.00702
  Beta virt. eigenvalues --   -0.00595   0.00048   0.00179   0.00499   0.00622

 Mulliken charges and spin densities:
               1          2
     1  Na  -0.143342   0.495121
     2  Na  -0.161179   0.067527
     3  Na   0.423291   0.391983
     4  Na   0.014679   0.015711
     5  Na  -0.020583  -0.007529
     6  Na   0.078165  -0.071807
     7  Na  -0.191031   0.108995
 Sum of Mulliken charges =  -0.00000   1.00000

 Dipole moment (field-independent basis, Debye):
    X=              0.0155    Y=             -0.1872    Z=             -0.3236  Tot=              0.3742
 Quadrupole moment (field-independent basis, Debye-Ang):
   XX=            -62.6523   YY=            -65.0563   ZZ=            -70.5707
   XY=             -2.0067   XZ=              1.5797   YZ=              0.3062

 Normal termination of Gaussian 16 at Sun Dec  3 17:46:11 2023.
