 Gaussian 16, Revision B.01,
 Gaussian 16:  ES64L-G16RevB.01 20-Dec-2017

 -------------------------
 #P B3LYP/6-311+g(d) force
 -------------------------

 -----
 DPGEN
 -----
 Symbolic Z-matrix:
 Charge =  0 Multiplicity = 2

                         Standard orientation:
 ---------------------------------------------------------------------
 Center     Atomic      Atomic             Coordinates (Angstroms)
 Number     Number       Type             X           Y           Z
 ---------------------------------------------------------------------
      1         11           0        4.294961   -1.576294   -0.365332
      2         11           0       -1.001495    0.311430    1.703739
      3         11           0        2.413732    1.198546    0.773451
      4         11           0        0.560899   -0.962208   -1.025739
      5         11           0       -0.366746    2.816780   -0.367622
      6         11           0       -3.108890   -2.427606    0.497422
      7         11           0       -2.792461    0.639353   -1.215920
 ---------------------------------------------------------------------

 SCF Done:  E(UB3LYP) =  -1136.12741497     A.U. after   21 cycles

 The electronic state is 2-A.
 Alpha  occ. eigenvalues --  -38.45035 -38.44126 -38.43917 -38.43874 -38.43844
 Alpha  occ. eigenvalues --  -38.43695 -38.42911  -2.20858  -2.19895  -2.19747
 Alpha  occ. eigenvalues --   -2.19734  -2.19708  -2.19624  -2.18798  -1.14589
 Alpha  occ. eigenvalues --   -1.14531  -1.14447  -1.13568  -1.13563  -1.13519
 Alpha  occ. eigenvalues --   -1.13447  -1.13435  -1.13416  -1.13404  -1.13384
 Alpha  occ. eigenvalues --   -1.13373  -1.13356  -1.13337  -1.13324  -1.13312
 Alpha  occ. eigenvalues --   -1.13284  -1.13195  -1.12480  -1.12457  -1.12438
 Alpha  occ. eigenvalues --   -0.18290  -0.13709  -0.11893  -0.10484
 Alpha virt. eigenvalues --   -0.06648  -0.05688  -0.04434  -0.03044  -0.02645
 Alpha virt. eigenvalues --   -0.02526  -0.02022  -0.01605  -0.00762  -0.00428
 Alpha virt. eigenvalues --   -0.00055   0.00103   0.00449   0.00563   0.00713

  Beta  occ. eigenvalues --  -38.45020 -38.44118 -38.43905 -38.43857 -38.43786
  Beta  occ. eigenvalues --  -38.43633 -38.42901  -2.20832  -2.19880  -2.19718
  Beta  occ. eigenvalues --   -2.19688  -2.19628  -2.19512  -2.18784  -1.14555
  Beta  occ. eigenvalues --   -1.14511  -1.14432  -1.13557  -1.13552  -1.13509
  Beta  occ. eigenvalues --   -1.13430  -1.13409  -1.13368  -1.13349  -1.13348
  Beta  occ. eigenvalues --   -1.13331  -1.13324  -1.13305  -1.13253  -1.13242
  Beta  occ. eigenvalues --   -1.13202  -1.13107  -1.12476  -1.12451  -1.12388
  Beta  occ. eigenvalues --   -0.17644  -0.13475  -0.11591
  Beta virt. eigenvalues --   -0.06803  -0.06426  -0.05514  -0.04122  -0.02730
  Beta virt. eigenvalues --   -0.02418  -0.01998  -0.01652  -0.01126  -0.00694
  Beta virt. eigenvalues --   -0.00134   0.00064   0.00189   0.00572   0.00639

 Mulliken charges and spin densities:
               1          2
     1  Na   0.341289   0.025026
     2  Na  -0.220453   0.373114
     3  Na   0.132716   0.027974
     4  Na  -1.015028   0.158785
     5  Na   0.001735   0.063188
     6  Na   0.300386   0.021321
     7  Na   0.459355   0.330593
 Sum of Mulliken charges =  -0.00000   1.00000

 Dipole moment (field-independent basis, Debye):
    X=              0.1877    Y=             -0.2162    Z=              0.1618  Tot=              0.3288
 Quadrupole moment (field-independent basis, Debye-Ang):
   XX=            -55.5641   YY=            -65.6305   ZZ=            -73.2249
   XY=              1.8151   XZ=              0.8665   YZ=              0.5243

 Normal termination of Gaussian 16 at Tue Dec  5 10:05:45 2023.
