 Gaussian 16, Revision B.01,
 Gaussian 16:  ES64L-G16RevB.01 20-Dec-2017

 -------------------------
 #P B3LYP/6-311+g(d) force
 -------------------------

 -----
 DPGEN
 -----
 Symbolic Z-matrix:
 Charge =  0 Multiplicity = 2

                         Standard orientation:
 ---------------------------------------------------------------------
 Center     Atomic      Atomic             Coordinates (Angstroms)
 Number     Number       Type             X           Y           Z
 ---------------------------------------------------------------------
      1         11           0       -0.523298    1.590005    1.320034
      2         11           0        2.029838    3.123860   -0.715935
      3         11           0        3.277096    0.455015   -0.028789
      4         11           0        0.110760   -0.995332   -0.119611
      5         11           0       -3.255438   -1.243863    0.348539
      6         11           0        4.231911   -2.785262   -0.132175
      7         11           0       -5.870868   -0.144424   -0.672064
 ---------------------------------------------------------------------

 SCF Done:  E(UB3LYP) =  -1136.11432928     A.U. after   21 cycles

 The electronic state is 2-A.
 Alpha  occ. eigenvalues --  -38.44986 -38.44842 -38.44822 -38.44219 -38.43857
 Alpha  occ. eigenvalues --  -38.43489 -38.43208  -2.20821  -2.20708  -2.20677
 Alpha  occ. eigenvalues --   -2.20073  -2.19705  -2.19391  -2.18977  -1.14616
 Alpha  occ. eigenvalues --   -1.14493  -1.14407  -1.14372  -1.14354  -1.14348
 Alpha  occ. eigenvalues --   -1.14296  -1.14294  -1.14282  -1.13796  -1.13711
 Alpha  occ. eigenvalues --   -1.13666  -1.13403  -1.13376  -1.13344  -1.13078
 Alpha  occ. eigenvalues --   -1.13070  -1.12995  -1.12646  -1.12643  -1.12605
 Alpha  occ. eigenvalues --   -0.17310  -0.14469  -0.11765  -0.11601
 Alpha virt. eigenvalues --   -0.06241  -0.05298  -0.04684  -0.03678  -0.02857
 Alpha virt. eigenvalues --   -0.02612  -0.01749  -0.01657  -0.01179  -0.00867
 Alpha virt. eigenvalues --   -0.00451  -0.00054   0.00206   0.00489   0.00565

  Beta  occ. eigenvalues --  -38.44969 -38.44764 -38.44747 -38.44166 -38.43856
  Beta  occ. eigenvalues --  -38.43465 -38.43207  -2.20793  -2.20604  -2.20500
  Beta  occ. eigenvalues --   -2.19976  -2.19714  -2.19350  -2.18976  -1.14571
  Beta  occ. eigenvalues --   -1.14477  -1.14383  -1.14308  -1.14290  -1.14235
  Beta  occ. eigenvalues --   -1.14197  -1.14175  -1.14173  -1.13719  -1.13644
  Beta  occ. eigenvalues --   -1.13607  -1.13395  -1.13387  -1.13303  -1.13051
  Beta  occ. eigenvalues --   -1.13036  -1.12956  -1.12646  -1.12641  -1.12605
  Beta  occ. eigenvalues --   -0.16675  -0.13549  -0.11509
  Beta virt. eigenvalues --   -0.08208  -0.05949  -0.04919  -0.04422  -0.03393
  Beta virt. eigenvalues --   -0.02556  -0.02108  -0.01626  -0.01355  -0.00942
  Beta virt. eigenvalues --   -0.00500  -0.00250   0.00056   0.00316   0.00577

 Mulliken charges and spin densities:
               1          2
     1  Na   0.086699  -0.022205
     2  Na   0.412245   0.106122
     3  Na  -0.059199   0.294733
     4  Na  -1.002036   0.120677
     5  Na  -0.360084   0.078296
     6  Na   0.459250   0.009193
     7  Na   0.463125   0.413185
 Sum of Mulliken charges =  -0.00000   1.00000

 Dipole moment (field-independent basis, Debye):
    X=             -1.3531    Y=              1.2437    Z=              0.0710  Tot=              1.8392
 Quadrupole moment (field-independent basis, Debye-Ang):
   XX=            -66.1863   YY=            -64.9274   ZZ=            -68.9732
   XY=             -2.1757   XZ=              0.5365   YZ=             -0.5577

 Normal termination of Gaussian 16 at Wed Nov 29 02:13:26 2023.
