 Gaussian 16, Revision B.01,
 Gaussian 16:  ES64L-G16RevB.01 20-Dec-2017

 -------------------------
 #P B3LYP/6-311+g(d) force
 -------------------------

 -----
 DPGEN
 -----
 Symbolic Z-matrix:
 Charge =  0 Multiplicity = 2

                         Standard orientation:
 ---------------------------------------------------------------------
 Center     Atomic      Atomic             Coordinates (Angstroms)
 Number     Number       Type             X           Y           Z
 ---------------------------------------------------------------------
      1         11           0        0.117075    0.528917   -1.665400
      2         11           0        1.111747    1.758940    0.433000
      3         11           0       -1.728352    1.695274    0.153700
      4         11           0       -2.708700   -0.986948    0.159600
      5         11           0       -0.056971   -1.825687   -0.498300
      6         11           0        2.466100   -0.557529   -0.449700
      7         11           0        0.799101   -0.612967    1.867100
 ---------------------------------------------------------------------

 SCF Done:  E(UB3LYP) =  -1136.06880176     A.U. after   21 cycles

 The electronic state is 2-A.
 Alpha  occ. eigenvalues --  -38.44735 -38.44629 -38.44237 -38.44236 -38.43648
 Alpha  occ. eigenvalues --  -38.43584 -38.43563  -2.21060  -2.20769  -2.20420
 Alpha  occ. eigenvalues --   -2.20199  -2.19884  -2.19798  -2.19652  -1.14961
 Alpha  occ. eigenvalues --   -1.14875  -1.14695  -1.14626  -1.14478  -1.14373
 Alpha  occ. eigenvalues --   -1.14124  -1.14102  -1.13981  -1.13956  -1.13948
 Alpha  occ. eigenvalues --   -1.13801  -1.13612  -1.13491  -1.13465  -1.13420
 Alpha  occ. eigenvalues --   -1.13393  -1.13313  -1.13296  -1.13237  -1.13195
 Alpha  occ. eigenvalues --   -0.21626  -0.14153  -0.12642  -0.12373
 Alpha virt. eigenvalues --   -0.05580  -0.04397  -0.03945  -0.03776  -0.03067
 Alpha virt. eigenvalues --   -0.02937  -0.01231  -0.00334  -0.00145   0.00307
 Alpha virt. eigenvalues --    0.00689   0.00784   0.01060   0.01102   0.01160

  Beta  occ. eigenvalues --  -38.44645 -38.44542 -38.44238 -38.44212 -38.43623
  Beta  occ. eigenvalues --  -38.43577 -38.43534  -2.20900  -2.20612  -2.20384
  Beta  occ. eigenvalues --   -2.20203  -2.19846  -2.19753  -2.19644  -1.14876
  Beta  occ. eigenvalues --   -1.14751  -1.14579  -1.14538  -1.14360  -1.14264
  Beta  occ. eigenvalues --   -1.14084  -1.14074  -1.13962  -1.13949  -1.13894
  Beta  occ. eigenvalues --   -1.13785  -1.13594  -1.13452  -1.13403  -1.13379
  Beta  occ. eigenvalues --   -1.13302  -1.13292  -1.13272  -1.13217  -1.13183
  Beta  occ. eigenvalues --   -0.20765  -0.13845  -0.12235
  Beta virt. eigenvalues --   -0.08149  -0.05519  -0.04365  -0.03768  -0.03000
  Beta virt. eigenvalues --   -0.02236  -0.01846  -0.01154  -0.00302   0.00038
  Beta virt. eigenvalues --    0.00349   0.00695   0.00790   0.01066   0.01128

 Mulliken charges and spin densities:
               1          2
     1  Na  -0.030826   0.327097
     2  Na   0.126868   0.191116
     3  Na  -0.061646   0.051585
     4  Na  -0.345130  -0.051546
     5  Na  -0.155171   0.079273
     6  Na   0.719226  -0.126006
     7  Na  -0.253322   0.528480
 Sum of Mulliken charges =  -0.00000   1.00000

 Dipole moment (field-independent basis, Debye):
    X=             -0.3434    Y=             -0.1720    Z=              0.4993  Tot=              0.6299
 Quadrupole moment (field-independent basis, Debye-Ang):
   XX=            -57.8811   YY=            -73.2345   ZZ=            -67.1312
   XY=             -0.1752   XZ=             -1.2275   YZ=              0.7513

 Normal termination of Gaussian 16 at Sat Dec  9 06:20:02 2023.
