 Gaussian 16, Revision B.01,
 Gaussian 16:  ES64L-G16RevB.01 20-Dec-2017

 -------------------------
 #P B3LYP/6-311+g(d) force
 -------------------------

 -----
 DPGEN
 -----
 Symbolic Z-matrix:
 Charge =  0 Multiplicity = 2

                         Standard orientation:
 ---------------------------------------------------------------------
 Center     Atomic      Atomic             Coordinates (Angstroms)
 Number     Number       Type             X           Y           Z
 ---------------------------------------------------------------------
      1         11           0       -2.180310    2.513997   -0.515157
      2         11           0        3.183359    0.043607    1.008253
      3         11           0       -1.284875   -1.265876   -1.313698
      4         11           0        1.768547   -1.872013   -1.821742
      5         11           0        2.062515    2.653644   -0.103282
      6         11           0        0.086388   -1.607841    1.987139
      7         11           0       -3.635624   -0.465517    0.758487
 ---------------------------------------------------------------------

 SCF Done:  E(UB3LYP) =  -1136.11873195     A.U. after   22 cycles

 The electronic state is 2-A.
 Alpha  occ. eigenvalues --  -38.44887 -38.44484 -38.44454 -38.44144 -38.44057
 Alpha  occ. eigenvalues --  -38.43836 -38.43766  -2.20698  -2.20283  -2.20204
 Alpha  occ. eigenvalues --   -2.19987  -2.19892  -2.19655  -2.19617  -1.14388
 Alpha  occ. eigenvalues --   -1.14349  -1.14323  -1.13951  -1.13920  -1.13905
 Alpha  occ. eigenvalues --   -1.13889  -1.13869  -1.13827  -1.13703  -1.13650
 Alpha  occ. eigenvalues --   -1.13616  -1.13604  -1.13524  -1.13503  -1.13335
 Alpha  occ. eigenvalues --   -1.13316  -1.13284  -1.13275  -1.13269  -1.13253
 Alpha  occ. eigenvalues --   -0.17270  -0.13739  -0.11897  -0.11132
 Alpha virt. eigenvalues --   -0.06380  -0.05933  -0.04719  -0.03595  -0.02851
 Alpha virt. eigenvalues --   -0.02543  -0.01979  -0.01165  -0.00966  -0.00510
 Alpha virt. eigenvalues --   -0.00281   0.00239   0.00303   0.00378   0.00696

  Beta  occ. eigenvalues --  -38.44877 -38.44445 -38.44414 -38.44130 -38.43994
  Beta  occ. eigenvalues --  -38.43841 -38.43734  -2.20679  -2.20188  -2.20151
  Beta  occ. eigenvalues --   -2.19960  -2.19778  -2.19628  -2.19601  -1.14378
  Beta  occ. eigenvalues --   -1.14335  -1.14303  -1.13875  -1.13863  -1.13859
  Beta  occ. eigenvalues --   -1.13831  -1.13818  -1.13810  -1.13689  -1.13618
  Beta  occ. eigenvalues --   -1.13601  -1.13516  -1.13448  -1.13424  -1.13298
  Beta  occ. eigenvalues --   -1.13288  -1.13282  -1.13261  -1.13259  -1.13221
  Beta  occ. eigenvalues --   -0.16665  -0.13595  -0.11540
  Beta virt. eigenvalues --   -0.07444  -0.06069  -0.05872  -0.04138  -0.03334
  Beta virt. eigenvalues --   -0.02327  -0.01857  -0.01801  -0.01076  -0.00833
  Beta virt. eigenvalues --   -0.00293  -0.00121   0.00348   0.00387   0.00479

 Mulliken charges and spin densities:
               1          2
     1  Na  -0.170414  -0.084167
     2  Na   0.006733   0.189852
     3  Na  -0.622663   0.409647
     4  Na   0.064141   0.060798
     5  Na  -0.103575  -0.020678
     6  Na  -0.181339   0.285846
     7  Na   1.007117   0.158703
 Sum of Mulliken charges =  -0.00000   1.00000

 Dipole moment (field-independent basis, Debye):
    X=             -0.7242    Y=             -0.3644    Z=              0.3548  Tot=              0.8849
 Quadrupole moment (field-independent basis, Debye-Ang):
   XX=            -55.6015   YY=            -72.2884   ZZ=            -70.8096
   XY=             -1.8751   XZ=             -2.7534   YZ=             -1.8137

 Normal termination of Gaussian 16 at Mon Dec  4 02:22:12 2023.
