 Gaussian 16, Revision B.01,
 Gaussian 16:  ES64L-G16RevB.01 20-Dec-2017

 -------------------------
 #P B3LYP/6-311+g(d) force
 -------------------------

 -----
 DPGEN
 -----
 Symbolic Z-matrix:
 Charge =  0 Multiplicity = 2

                         Standard orientation:
 ---------------------------------------------------------------------
 Center     Atomic      Atomic             Coordinates (Angstroms)
 Number     Number       Type             X           Y           Z
 ---------------------------------------------------------------------
      1         11           0        1.178412    2.352415   -0.142501
      2         11           0       -2.071093    2.120123    0.070209
      3         11           0       -3.001318   -1.376807   -0.125049
      4         11           0        0.049435   -0.213582    2.297154
      5         11           0       -0.088661   -0.060877   -1.880586
      6         11           0        3.257208   -0.232835   -0.075187
      7         11           0        0.676017   -2.588438   -0.144041
 ---------------------------------------------------------------------

 SCF Done:  E(UB3LYP) =  -1136.13625072     A.U. after   19 cycles

 The electronic state is 2-A.
 Alpha  occ. eigenvalues --  -38.44275 -38.44155 -38.44148 -38.43749 -38.43408
 Alpha  occ. eigenvalues --  -38.43191 -38.42855  -2.20122  -2.19972  -2.19939
 Alpha  occ. eigenvalues --   -2.19695  -2.19255  -2.19063  -2.18761  -1.13777
 Alpha  occ. eigenvalues --   -1.13753  -1.13737  -1.13643  -1.13634  -1.13618
 Alpha  occ. eigenvalues --   -1.13616  -1.13597  -1.13581  -1.13384  -1.13360
 Alpha  occ. eigenvalues --   -1.13299  -1.12935  -1.12921  -1.12896  -1.12764
 Alpha  occ. eigenvalues --   -1.12735  -1.12666  -1.12453  -1.12416  -1.12391
 Alpha  occ. eigenvalues --   -0.18590  -0.12903  -0.12224  -0.11272
 Alpha virt. eigenvalues --   -0.05890  -0.05001  -0.04189  -0.03314  -0.03179
 Alpha virt. eigenvalues --   -0.03026  -0.01707  -0.00944  -0.00178  -0.00119
 Alpha virt. eigenvalues --   -0.00035   0.00354   0.00760   0.00807   0.00900

  Beta  occ. eigenvalues --  -38.44170 -38.44156 -38.44148 -38.43677 -38.43406
  Beta  occ. eigenvalues --  -38.43183 -38.42848  -2.19974  -2.19943  -2.19929
  Beta  occ. eigenvalues --   -2.19564  -2.19254  -2.19052  -2.18752  -1.13653
  Beta  occ. eigenvalues --   -1.13646  -1.13622  -1.13616  -1.13615  -1.13604
  Beta  occ. eigenvalues --   -1.13603  -1.13596  -1.13586  -1.13300  -1.13263
  Beta  occ. eigenvalues --   -1.13204  -1.12937  -1.12900  -1.12898  -1.12752
  Beta  occ. eigenvalues --   -1.12699  -1.12663  -1.12444  -1.12391  -1.12384
  Beta  occ. eigenvalues --   -0.17816  -0.12727  -0.11982
  Beta virt. eigenvalues --   -0.07290  -0.05834  -0.05000  -0.04135  -0.02548
  Beta virt. eigenvalues --   -0.02238  -0.02061  -0.01616  -0.00892  -0.00239
  Beta virt. eigenvalues --   -0.00086   0.00054   0.00371   0.00833   0.00898

 Mulliken charges and spin densities:
               1          2
     1  Na   0.205310   0.030971
     2  Na   0.088909  -0.024294
     3  Na   0.134869  -0.093645
     4  Na  -0.653705   0.708417
     5  Na  -0.229199   0.476522
     6  Na   0.199238  -0.036151
     7  Na   0.254577  -0.061820
 Sum of Mulliken charges =  -0.00000   1.00000

 Dipole moment (field-independent basis, Debye):
    X=             -0.0959    Y=             -0.2605    Z=              0.2092  Tot=              0.3476
 Quadrupole moment (field-independent basis, Debye-Ang):
   XX=            -55.4164   YY=            -68.3149   ZZ=            -71.0510
   XY=              0.0760   XZ=             -0.2857   YZ=              0.3159

 Normal termination of Gaussian 16 at Thu Dec  7 19:33:02 2023.
