 Gaussian 16, Revision B.01,
 Gaussian 16:  ES64L-G16RevB.01 20-Dec-2017

 -------------------------
 #P B3LYP/6-311+g(d) force
 -------------------------

 -----
 DPGEN
 -----
 Symbolic Z-matrix:
 Charge =  0 Multiplicity = 2

                         Standard orientation:
 ---------------------------------------------------------------------
 Center     Atomic      Atomic             Coordinates (Angstroms)
 Number     Number       Type             X           Y           Z
 ---------------------------------------------------------------------
      1         11           0        1.240946   -2.069466    0.509357
      2         11           0        4.347664   -1.413337    0.576804
      3         11           0        5.382468    2.486795   -0.080885
      4         11           0        2.408176    0.855995   -0.362234
      5         11           0       -1.139362   -0.955584   -0.812728
      6         11           0       -5.322512   -0.152849   -0.993408
      7         11           0       -6.917379    1.248445    1.163095
 ---------------------------------------------------------------------

 SCF Done:  E(UB3LYP) =  -1136.11153213     A.U. after   21 cycles

 The electronic state is 2-A.
 Alpha  occ. eigenvalues --  -38.44606 -38.44512 -38.44310 -38.44153 -38.44001
 Alpha  occ. eigenvalues --  -38.43751 -38.43697  -2.20494  -2.20403  -2.20110
 Alpha  occ. eigenvalues --   -2.19946  -2.19795  -2.19705  -2.19545  -1.14265
 Alpha  occ. eigenvalues --   -1.14189  -1.14088  -1.14067  -1.14050  -1.13982
 Alpha  occ. eigenvalues --   -1.13816  -1.13756  -1.13754  -1.13603  -1.13602
 Alpha  occ. eigenvalues --   -1.13555  -1.13478  -1.13454  -1.13447  -1.13428
 Alpha  occ. eigenvalues --   -1.13371  -1.13350  -1.13184  -1.13183  -1.13121
 Alpha  occ. eigenvalues --   -0.17155  -0.13749  -0.12538  -0.11056
 Alpha virt. eigenvalues --   -0.06524  -0.05420  -0.04262  -0.03778  -0.02803
 Alpha virt. eigenvalues --   -0.02485  -0.02127  -0.01794  -0.01445  -0.00992
 Alpha virt. eigenvalues --   -0.00285  -0.00184   0.00218   0.00481   0.00622

  Beta  occ. eigenvalues --  -38.44596 -38.44438 -38.44293 -38.44105 -38.44006
  Beta  occ. eigenvalues --  -38.43727 -38.43657  -2.20478  -2.20269  -2.20076
  Beta  occ. eigenvalues --   -2.19856  -2.19806  -2.19669  -2.19469  -1.14221
  Beta  occ. eigenvalues --   -1.14181  -1.14071  -1.13978  -1.13962  -1.13880
  Beta  occ. eigenvalues --   -1.13797  -1.13733  -1.13731  -1.13542  -1.13535
  Beta  occ. eigenvalues --   -1.13502  -1.13463  -1.13455  -1.13422  -1.13410
  Beta  occ. eigenvalues --   -1.13353  -1.13330  -1.13130  -1.13128  -1.13068
  Beta  occ. eigenvalues --   -0.16471  -0.13457  -0.12143
  Beta virt. eigenvalues --   -0.07552  -0.06034  -0.05205  -0.04043  -0.03440
  Beta virt. eigenvalues --   -0.02547  -0.02183  -0.01791  -0.01575  -0.01202
  Beta virt. eigenvalues --   -0.00714  -0.00029   0.00040   0.00399   0.00534

 Mulliken charges and spin densities:
               1          2
     1  Na  -0.197519   0.332997
     2  Na   0.677902   0.137638
     3  Na   1.302650   0.243636
     4  Na  -1.623848   0.263844
     5  Na  -0.048900  -0.018869
     6  Na  -0.280814  -0.032717
     7  Na   0.170529   0.073471
 Sum of Mulliken charges =  -0.00000   1.00000

 Dipole moment (field-independent basis, Debye):
    X=              0.9984    Y=              0.1361    Z=              0.4759  Tot=              1.1143
 Quadrupole moment (field-independent basis, Debye-Ang):
   XX=            -58.0555   YY=            -67.5477   ZZ=            -68.3724
   XY=             -1.6554   XZ=             -2.6476   YZ=              2.2246

 Normal termination of Gaussian 16 at Tue Nov 28 20:02:33 2023.
