 Gaussian 16, Revision B.01,
 Gaussian 16:  ES64L-G16RevB.01 20-Dec-2017

 -------------------------
 #P B3LYP/6-311+g(d) force
 -------------------------

 -----
 DPGEN
 -----
 Symbolic Z-matrix:
 Charge =  0 Multiplicity = 2

                         Standard orientation:
 ---------------------------------------------------------------------
 Center     Atomic      Atomic             Coordinates (Angstroms)
 Number     Number       Type             X           Y           Z
 ---------------------------------------------------------------------
      1         11           0        0.063299   -0.017011    1.892646
      2         11           0        2.000627    2.133797    0.269701
      3         11           0       -1.702269    2.387803   -0.067199
      4         11           0        2.845183   -0.983666   -0.602514
      5         11           0       -0.169168   -0.080735   -1.814131
      6         11           0        0.095468   -2.538775    0.508239
      7         11           0       -3.133141   -0.901413   -0.186741
 ---------------------------------------------------------------------

 SCF Done:  E(UB3LYP) =  -1136.13578235     A.U. after   19 cycles

 The electronic state is 2-A.
 Alpha  occ. eigenvalues --  -38.44165 -38.43745 -38.43638 -38.43560 -38.43456
 Alpha  occ. eigenvalues --  -38.43390 -38.43016  -2.19979  -2.19625  -2.19619
 Alpha  occ. eigenvalues --   -2.19514  -2.19296  -2.19246  -2.18957  -1.13660
 Alpha  occ. eigenvalues --   -1.13632  -1.13620  -1.13383  -1.13313  -1.13278
 Alpha  occ. eigenvalues --   -1.13272  -1.13259  -1.13218  -1.13191  -1.13156
 Alpha  occ. eigenvalues --   -1.13127  -1.12976  -1.12965  -1.12927  -1.12918
 Alpha  occ. eigenvalues --   -1.12902  -1.12871  -1.12659  -1.12596  -1.12545
 Alpha  occ. eigenvalues --   -0.18981  -0.13145  -0.12297  -0.11162
 Alpha virt. eigenvalues --   -0.05649  -0.05072  -0.04185  -0.03370  -0.02987
 Alpha virt. eigenvalues --   -0.02759  -0.01634  -0.00978  -0.00192  -0.00059
 Alpha virt. eigenvalues --    0.00087   0.00353   0.00807   0.00900   0.00945

  Beta  occ. eigenvalues --  -38.44163 -38.43729 -38.43547 -38.43489 -38.43454
  Beta  occ. eigenvalues --  -38.43384 -38.42997  -2.19978  -2.19595  -2.19456
  Beta  occ. eigenvalues --   -2.19384  -2.19294  -2.19239  -2.18928  -1.13647
  Beta  occ. eigenvalues --   -1.13633  -1.13616  -1.13289  -1.13265  -1.13260
  Beta  occ. eigenvalues --   -1.13235  -1.13151  -1.13111  -1.13101  -1.13071
  Beta  occ. eigenvalues --   -1.13032  -1.12961  -1.12956  -1.12916  -1.12911
  Beta  occ. eigenvalues --   -1.12882  -1.12868  -1.12626  -1.12548  -1.12531
  Beta  occ. eigenvalues --   -0.18240  -0.12886  -0.12019
  Beta virt. eigenvalues --   -0.07216  -0.05604  -0.05053  -0.04165  -0.02609
  Beta virt. eigenvalues --   -0.02175  -0.01705  -0.01515  -0.00917  -0.00175
  Beta virt. eigenvalues --   -0.00055   0.00132   0.00380   0.00870   0.00900

 Mulliken charges and spin densities:
               1          2
     1  Na  -0.159088   0.544973
     2  Na   0.028916  -0.052591
     3  Na  -0.065705  -0.115245
     4  Na   0.105591   0.074551
     5  Na  -0.252616   0.614905
     6  Na   0.327850   0.033256
     7  Na   0.015052  -0.099849
 Sum of Mulliken charges =  -0.00000   1.00000

 Dipole moment (field-independent basis, Debye):
    X=             -0.2950    Y=              0.0736    Z=             -0.1642  Tot=              0.3455
 Quadrupole moment (field-independent basis, Debye-Ang):
   XX=            -55.2869   YY=            -66.0628   ZZ=            -72.4663
   XY=              0.3234   XZ=             -0.7211   YZ=              0.4588

 Normal termination of Gaussian 16 at Fri Dec  8 00:21:29 2023.
