 Gaussian 16, Revision B.01,
 Gaussian 16:  ES64L-G16RevB.01 20-Dec-2017

 -------------------------
 #P B3LYP/6-311+g(d) force
 -------------------------

 -----
 DPGEN
 -----
 Symbolic Z-matrix:
 Charge =  0 Multiplicity = 2

                         Standard orientation:
 ---------------------------------------------------------------------
 Center     Atomic      Atomic             Coordinates (Angstroms)
 Number     Number       Type             X           Y           Z
 ---------------------------------------------------------------------
      1         11           0        2.720154   -2.619146    0.241642
      2         11           0       -3.823157    1.425194    0.652288
      3         11           0       -3.490214   -2.345354   -0.565116
      4         11           0        4.282544    0.501173    0.081355
      5         11           0        2.051398    3.111081   -0.335037
      6         11           0       -0.189096   -3.122209    0.063435
      7         11           0       -1.551629    3.049261   -0.138567
 ---------------------------------------------------------------------

 SCF Done:  E(UB3LYP) =  -1136.10580566     A.U. after   24 cycles

 The electronic state is 2-A.
 Alpha  occ. eigenvalues --  -38.45354 -38.45079 -38.44554 -38.44523 -38.44373
 Alpha  occ. eigenvalues --  -38.44229 -38.43825  -2.21120  -2.20904  -2.20377
 Alpha  occ. eigenvalues --   -2.20302  -2.20209  -2.20028  -2.19681  -1.14798
 Alpha  occ. eigenvalues --   -1.14783  -1.14766  -1.14657  -1.14547  -1.14517
 Alpha  occ. eigenvalues --   -1.14107  -1.14041  -1.14030  -1.13968  -1.13962
 Alpha  occ. eigenvalues --   -1.13937  -1.13871  -1.13851  -1.13837  -1.13675
 Alpha  occ. eigenvalues --   -1.13664  -1.13652  -1.13348  -1.13310  -1.13296
 Alpha  occ. eigenvalues --   -0.15838  -0.14195  -0.13688  -0.10911
 Alpha virt. eigenvalues --   -0.07843  -0.04570  -0.04063  -0.03772  -0.03690
 Alpha virt. eigenvalues --   -0.02528  -0.02283  -0.01951  -0.01305  -0.00492
 Alpha virt. eigenvalues --   -0.00461  -0.00252   0.00257   0.00355   0.00625

  Beta  occ. eigenvalues --  -38.45349 -38.45048 -38.44542 -38.44488 -38.44349
  Beta  occ. eigenvalues --  -38.44147 -38.43771  -2.21114  -2.20853  -2.20363
  Beta  occ. eigenvalues --   -2.20239  -2.20169  -2.19876  -2.19582  -1.14798
  Beta  occ. eigenvalues --   -1.14783  -1.14733  -1.14604  -1.14516  -1.14474
  Beta  occ. eigenvalues --   -1.14055  -1.14039  -1.14010  -1.13926  -1.13921
  Beta  occ. eigenvalues --   -1.13889  -1.13838  -1.13827  -1.13798  -1.13572
  Beta  occ. eigenvalues --   -1.13561  -1.13550  -1.13282  -1.13242  -1.13231
  Beta  occ. eigenvalues --   -0.15327  -0.13499  -0.12815
  Beta virt. eigenvalues --   -0.08055  -0.07728  -0.04102  -0.03570  -0.03530
  Beta virt. eigenvalues --   -0.03418  -0.02302  -0.02063  -0.01709  -0.01146
  Beta virt. eigenvalues --   -0.00228  -0.00140  -0.00067   0.00352   0.00442

 Mulliken charges and spin densities:
               1          2
     1  Na   1.276869   0.178940
     2  Na  -0.127393   0.051278
     3  Na  -0.065762   0.312047
     4  Na   0.000910   0.057120
     5  Na   0.563928   0.174326
     6  Na  -1.213609   0.119198
     7  Na  -0.434944   0.107092
 Sum of Mulliken charges =  -0.00000   1.00000

 Dipole moment (field-independent basis, Debye):
    X=              0.1017    Y=              0.5171    Z=              0.0923  Tot=              0.5350
 Quadrupole moment (field-independent basis, Debye-Ang):
   XX=            -54.8328   YY=            -72.1780   ZZ=            -73.0405
   XY=             -0.3900   XZ=             -0.5248   YZ=             -0.5845

 Normal termination of Gaussian 16 at Sun Dec  3 20:15:12 2023.
