 Gaussian 16, Revision B.01,
 Gaussian 16:  ES64L-G16RevB.01 20-Dec-2017

 -------------------------
 #P B3LYP/6-311+g(d) force
 -------------------------

 -----
 DPGEN
 -----
 Symbolic Z-matrix:
 Charge =  0 Multiplicity = 2

                         Standard orientation:
 ---------------------------------------------------------------------
 Center     Atomic      Atomic             Coordinates (Angstroms)
 Number     Number       Type             X           Y           Z
 ---------------------------------------------------------------------
      1         11           0        2.480626   -2.294503    0.099183
      2         11           0       -3.101082    1.337956   -0.329925
      3         11           0        3.309510    0.754013   -0.296910
      4         11           0        0.617943    2.704645   -0.261599
      5         11           0       -0.165834    0.218310    2.249219
      6         11           0       -0.275528   -0.805120   -1.519481
      7         11           0       -2.865636   -1.915300    0.059513
 ---------------------------------------------------------------------

 SCF Done:  E(UB3LYP) =  -1136.12544735     A.U. after   22 cycles

 The electronic state is 2-A.
 Alpha  occ. eigenvalues --  -38.44980 -38.44618 -38.44422 -38.44145 -38.43797
 Alpha  occ. eigenvalues --  -38.43728 -38.42662  -2.20779  -2.20449  -2.20251
 Alpha  occ. eigenvalues --   -2.20011  -2.19611  -2.19558  -2.18490  -1.14456
 Alpha  occ. eigenvalues --   -1.14440  -1.14417  -1.14125  -1.14106  -1.14099
 Alpha  occ. eigenvalues --   -1.13946  -1.13901  -1.13895  -1.13705  -1.13666
 Alpha  occ. eigenvalues --   -1.13626  -1.13281  -1.13267  -1.13257  -1.13212
 Alpha  occ. eigenvalues --   -1.13180  -1.13177  -1.12170  -1.12154  -1.12135
 Alpha  occ. eigenvalues --   -0.17933  -0.13841  -0.11601  -0.10504
 Alpha virt. eigenvalues --   -0.06555  -0.06084  -0.03961  -0.03526  -0.02748
 Alpha virt. eigenvalues --   -0.02353  -0.02266  -0.01522  -0.00891  -0.00264
 Alpha virt. eigenvalues --   -0.00099   0.00240   0.00557   0.00675   0.00698

  Beta  occ. eigenvalues --  -38.44972 -38.44611 -38.44420 -38.44113 -38.43797
  Beta  occ. eigenvalues --  -38.43614 -38.42656  -2.20767  -2.20438  -2.20251
  Beta  occ. eigenvalues --   -2.19952  -2.19613  -2.19347  -2.18482  -1.14441
  Beta  occ. eigenvalues --   -1.14429  -1.14406  -1.14113  -1.14097  -1.14090
  Beta  occ. eigenvalues --   -1.13943  -1.13904  -1.13874  -1.13658  -1.13623
  Beta  occ. eigenvalues --   -1.13583  -1.13285  -1.13266  -1.13247  -1.13070
  Beta  occ. eigenvalues --   -1.13034  -1.13027  -1.12167  -1.12137  -1.12124
  Beta  occ. eigenvalues --   -0.17274  -0.13660  -0.11436
  Beta virt. eigenvalues --   -0.06587  -0.06437  -0.06041  -0.03922  -0.02847
  Beta virt. eigenvalues --   -0.02150  -0.01973  -0.01513  -0.01321  -0.00911
  Beta virt. eigenvalues --   -0.00269   0.00104   0.00309   0.00656   0.00702

 Mulliken charges and spin densities:
               1          2
     1  Na   0.315346   0.013374
     2  Na   0.060519   0.029390
     3  Na   0.015776   0.010612
     4  Na  -0.122090   0.013541
     5  Na  -0.428131   0.709722
     6  Na  -0.159861   0.189166
     7  Na   0.318440   0.034195
 Sum of Mulliken charges =  -0.00000   1.00000

 Dipole moment (field-independent basis, Debye):
    X=             -0.6399    Y=             -0.2680    Z=             -0.0424  Tot=              0.6951
 Quadrupole moment (field-independent basis, Debye-Ang):
   XX=            -50.6814   YY=            -68.5253   ZZ=            -75.7030
   XY=             -0.2992   XZ=             -0.1049   YZ=             -2.1282

 Normal termination of Gaussian 16 at Tue Dec  5 19:44:46 2023.
