 Gaussian 16, Revision B.01,
 Gaussian 16:  ES64L-G16RevB.01 20-Dec-2017

 -------------------------
 #P B3LYP/6-311+g(d) force
 -------------------------

 -----
 DPGEN
 -----
 Symbolic Z-matrix:
 Charge =  0 Multiplicity = 2

                         Standard orientation:
 ---------------------------------------------------------------------
 Center     Atomic      Atomic             Coordinates (Angstroms)
 Number     Number       Type             X           Y           Z
 ---------------------------------------------------------------------
      1         11           0       -3.691740   -2.379809   -0.426946
      2         11           0        0.085032   -2.919241    0.654060
      3         11           0        3.334238   -2.241552   -0.124199
      4         11           0        1.720688    3.055695   -0.243762
      5         11           0       -1.706408    3.107846    0.523711
      6         11           0        4.655754    0.556429   -0.175433
      7         11           0       -4.397565    0.820632   -0.207431
 ---------------------------------------------------------------------

 SCF Done:  E(UB3LYP) =  -1136.10713438     A.U. after   23 cycles

 The electronic state is 2-A.
 Alpha  occ. eigenvalues --  -38.45217 -38.45007 -38.44841 -38.44703 -38.44253
 Alpha  occ. eigenvalues --  -38.44176 -38.44095  -2.20960  -2.20772  -2.20634
 Alpha  occ. eigenvalues --   -2.20517  -2.20040  -2.19946  -2.19924  -1.14643
 Alpha  occ. eigenvalues --   -1.14633  -1.14583  -1.14455  -1.14446  -1.14421
 Alpha  occ. eigenvalues --   -1.14299  -1.14283  -1.14258  -1.14211  -1.14185
 Alpha  occ. eigenvalues --   -1.14179  -1.13694  -1.13689  -1.13657  -1.13619
 Alpha  occ. eigenvalues --   -1.13611  -1.13581  -1.13578  -1.13563  -1.13544
 Alpha  occ. eigenvalues --   -0.15607  -0.14263  -0.13139  -0.10949
 Alpha virt. eigenvalues --   -0.07848  -0.04726  -0.04635  -0.03643  -0.03474
 Alpha virt. eigenvalues --   -0.02632  -0.02144  -0.01810  -0.01089  -0.00861
 Alpha virt. eigenvalues --   -0.00627  -0.00280  -0.00021   0.00412   0.00528

  Beta  occ. eigenvalues --  -38.45198 -38.45001 -38.44810 -38.44691 -38.44178
  Beta  occ. eigenvalues --  -38.44157 -38.44030  -2.20930  -2.20766  -2.20578
  Beta  occ. eigenvalues --   -2.20503  -2.19914  -2.19902  -2.19804  -1.14626
  Beta  occ. eigenvalues --   -1.14615  -1.14537  -1.14446  -1.14442  -1.14401
  Beta  occ. eigenvalues --   -1.14262  -1.14249  -1.14214  -1.14190  -1.14182
  Beta  occ. eigenvalues --   -1.14131  -1.13600  -1.13598  -1.13597  -1.13591
  Beta  occ. eigenvalues --   -1.13561  -1.13549  -1.13499  -1.13480  -1.13463
  Beta  occ. eigenvalues --   -0.15027  -0.13632  -0.12354
  Beta virt. eigenvalues --   -0.08080  -0.07769  -0.04172  -0.04120  -0.03404
  Beta virt. eigenvalues --   -0.03187  -0.02471  -0.02061  -0.01654  -0.00951
  Beta virt. eigenvalues --   -0.00539  -0.00330   0.00080   0.00169   0.00395

 Mulliken charges and spin densities:
               1          2
     1  Na   0.365954   0.015323
     2  Na  -0.557589   0.334231
     3  Na   0.027927   0.050042
     4  Na  -0.113588   0.118710
     5  Na   0.081515   0.025244
     6  Na   0.141840   0.304499
     7  Na   0.053942   0.151951
 Sum of Mulliken charges =  -0.00000   1.00000

 Dipole moment (field-independent basis, Debye):
    X=             -0.4624    Y=              0.0264    Z=             -0.1581  Tot=              0.4894
 Quadrupole moment (field-independent basis, Debye-Ang):
   XX=            -59.7143   YY=            -66.4650   ZZ=            -73.5992
   XY=              1.2378   XZ=             -0.5616   YZ=              0.8269

 Normal termination of Gaussian 16 at Sun Dec  3 20:21:20 2023.
