 Gaussian 16, Revision B.01,
 Gaussian 16:  ES64L-G16RevB.01 20-Dec-2017

 -------------------------
 #P B3LYP/6-311+g(d) force
 -------------------------

 -----
 DPGEN
 -----
 Symbolic Z-matrix:
 Charge =  0 Multiplicity = 2

                         Standard orientation:
 ---------------------------------------------------------------------
 Center     Atomic      Atomic             Coordinates (Angstroms)
 Number     Number       Type             X           Y           Z
 ---------------------------------------------------------------------
      1         11           0        1.587186   -2.090207    0.508130
      2         11           0       -1.682931   -2.161768   -0.530198
      3         11           0       -2.943003    0.516100    0.336278
      4         11           0       -0.434221    2.705983   -0.384776
      5         11           0       -0.035097    0.303292    1.821028
      6         11           0        0.552177   -0.098270   -1.814648
      7         11           0        2.955890    0.824870    0.064186
 ---------------------------------------------------------------------

 SCF Done:  E(UB3LYP) =  -1136.13467884     A.U. after   19 cycles

 The electronic state is 2-A.
 Alpha  occ. eigenvalues --  -38.44064 -38.43878 -38.43487 -38.43422 -38.43263
 Alpha  occ. eigenvalues --  -38.43138 -38.43100  -2.19946  -2.19768  -2.19479
 Alpha  occ. eigenvalues --   -2.19427  -2.19207  -2.19018  -2.19004  -1.13648
 Alpha  occ. eigenvalues --   -1.13613  -1.13574  -1.13468  -1.13441  -1.13404
 Alpha  occ. eigenvalues --   -1.13176  -1.13135  -1.13102  -1.13093  -1.13072
 Alpha  occ. eigenvalues --   -1.13060  -1.12881  -1.12854  -1.12825  -1.12701
 Alpha  occ. eigenvalues --   -1.12685  -1.12678  -1.12655  -1.12635  -1.12632
 Alpha  occ. eigenvalues --   -0.19366  -0.13409  -0.12366  -0.11263
 Alpha virt. eigenvalues --   -0.05677  -0.04721  -0.04306  -0.03478  -0.03001
 Alpha virt. eigenvalues --   -0.02734  -0.01501  -0.00815  -0.00154   0.00070
 Alpha virt. eigenvalues --    0.00193   0.00383   0.00890   0.00927   0.00971

  Beta  occ. eigenvalues --  -38.44058 -38.43874 -38.43408 -38.43342 -38.43246
  Beta  occ. eigenvalues --  -38.43130 -38.43089  -2.19940  -2.19763  -2.19337
  Beta  occ. eigenvalues --   -2.19280  -2.19181  -2.19006  -2.18988  -1.13642
  Beta  occ. eigenvalues --   -1.13583  -1.13570  -1.13465  -1.13422  -1.13398
  Beta  occ. eigenvalues --   -1.13088  -1.13034  -1.13010  -1.12992  -1.12973
  Beta  occ. eigenvalues --   -1.12951  -1.12851  -1.12820  -1.12792  -1.12690
  Beta  occ. eigenvalues --   -1.12665  -1.12656  -1.12636  -1.12623  -1.12613
  Beta  occ. eigenvalues --   -0.18610  -0.13153  -0.12091
  Beta virt. eigenvalues --   -0.07277  -0.05635  -0.04708  -0.04261  -0.02686
  Beta virt. eigenvalues --   -0.02214  -0.01645  -0.01429  -0.00749  -0.00075
  Beta virt. eigenvalues --    0.00080   0.00186   0.00407   0.00921   0.00944

 Mulliken charges and spin densities:
               1          2
     1  Na   0.227374   0.117918
     2  Na   0.043915  -0.013608
     3  Na   0.093648   0.000923
     4  Na  -0.063442  -0.094511
     5  Na  -0.231946   0.468142
     6  Na  -0.215927   0.623261
     7  Na   0.146378  -0.102124
 Sum of Mulliken charges =  -0.00000   1.00000

 Dipole moment (field-independent basis, Debye):
    X=              0.2488    Y=              0.2337    Z=              0.0578  Tot=              0.3462
 Quadrupole moment (field-independent basis, Debye-Ang):
   XX=            -56.5886   YY=            -66.3027   ZZ=            -71.7249
   XY=              0.4152   XZ=              0.7449   YZ=             -0.6925

 Normal termination of Gaussian 16 at Thu Dec  7 03:52:55 2023.
