 Gaussian 16, Revision B.01,
 Gaussian 16:  ES64L-G16RevB.01 20-Dec-2017

 -------------------------
 #P B3LYP/6-311+g(d) force
 -------------------------

 -----
 DPGEN
 -----
 Symbolic Z-matrix:
 Charge =  0 Multiplicity = 2

                         Standard orientation:
 ---------------------------------------------------------------------
 Center     Atomic      Atomic             Coordinates (Angstroms)
 Number     Number       Type             X           Y           Z
 ---------------------------------------------------------------------
      1         11           0        1.859588    2.291149   -0.207467
      2         11           0       -2.072024    2.042500   -0.499558
      3         11           0       -2.881986   -1.177707    0.447100
      4         11           0       -0.290611    0.360537    1.940102
      5         11           0        0.150766   -2.484566   -0.795340
      6         11           0        0.359666   -0.009176   -1.537422
      7         11           0        2.874601   -1.022735    0.652586
 ---------------------------------------------------------------------

 SCF Done:  E(UB3LYP) =  -1136.12678485     A.U. after   18 cycles

 The electronic state is 2-A.
 Alpha  occ. eigenvalues --  -38.44023 -38.43871 -38.43783 -38.43734 -38.43531
 Alpha  occ. eigenvalues --  -38.43506 -38.43309  -2.19873  -2.19716  -2.19652
 Alpha  occ. eigenvalues --   -2.19634  -2.19632  -2.19397  -2.19260  -1.13725
 Alpha  occ. eigenvalues --   -1.13544  -1.13532  -1.13512  -1.13418  -1.13386
 Alpha  occ. eigenvalues --   -1.13359  -1.13343  -1.13326  -1.13306  -1.13276
 Alpha  occ. eigenvalues --   -1.13267  -1.13252  -1.13246  -1.13191  -1.13076
 Alpha  occ. eigenvalues --   -1.13043  -1.13006  -1.12849  -1.12816  -1.12792
 Alpha  occ. eigenvalues --   -0.19052  -0.13243  -0.12262  -0.11132
 Alpha virt. eigenvalues --   -0.05479  -0.05307  -0.04031  -0.03537  -0.02944
 Alpha virt. eigenvalues --   -0.02636  -0.01568  -0.01082  -0.00149  -0.00000
 Alpha virt. eigenvalues --    0.00176   0.00364   0.00780   0.00861   0.00932

  Beta  occ. eigenvalues --  -38.44008 -38.43864 -38.43773 -38.43658 -38.43526
  Beta  occ. eigenvalues --  -38.43434 -38.43288  -2.19846  -2.19705  -2.19618
  Beta  occ. eigenvalues --   -2.19513  -2.19505  -2.19391  -2.19222  -1.13643
  Beta  occ. eigenvalues --   -1.13522  -1.13509  -1.13487  -1.13393  -1.13374
  Beta  occ. eigenvalues --   -1.13344  -1.13312  -1.13285  -1.13244  -1.13234
  Beta  occ. eigenvalues --   -1.13201  -1.13179  -1.13157  -1.13115  -1.13036
  Beta  occ. eigenvalues --   -1.13030  -1.12998  -1.12809  -1.12794  -1.12737
  Beta  occ. eigenvalues --   -0.18341  -0.12997  -0.11977
  Beta virt. eigenvalues --   -0.07213  -0.05366  -0.05282  -0.04002  -0.02786
  Beta virt. eigenvalues --   -0.02199  -0.01602  -0.01429  -0.01010  -0.00058
  Beta virt. eigenvalues --   -0.00005   0.00199   0.00397   0.00833   0.00880

 Mulliken charges and spin densities:
               1          2
     1  Na  -0.008624  -0.048131
     2  Na  -0.013513  -0.029601
     3  Na   0.001117   0.049075
     4  Na  -0.315257   0.576413
     5  Na   0.374380   0.055681
     6  Na   0.025825   0.237974
     7  Na  -0.063928   0.158589
 Sum of Mulliken charges =  -0.00000   1.00000

 Dipole moment (field-independent basis, Debye):
    X=             -0.0611    Y=              0.2765    Z=              0.5354  Tot=              0.6057
 Quadrupole moment (field-independent basis, Debye-Ang):
   XX=            -55.2019   YY=            -65.6892   ZZ=            -72.4747
   XY=              0.0617   XZ=              1.8159   YZ=             -1.7848

 Normal termination of Gaussian 16 at Thu Dec  7 13:49:48 2023.
