 Gaussian 16, Revision B.01,
 Gaussian 16:  ES64L-G16RevB.01 20-Dec-2017

 -------------------------
 #P B3LYP/6-311+g(d) force
 -------------------------

 -----
 DPGEN
 -----
 Symbolic Z-matrix:
 Charge =  0 Multiplicity = 2

                         Standard orientation:
 ---------------------------------------------------------------------
 Center     Atomic      Atomic             Coordinates (Angstroms)
 Number     Number       Type             X           Y           Z
 ---------------------------------------------------------------------
      1         11           0       -0.210818   -0.105269    1.987023
      2         11           0       -0.760193   -2.670267    0.023574
      3         11           0       -3.235780   -0.325539   -0.369255
      4         11           0        2.458057    1.813664   -0.381970
      5         11           0       -0.187804   -0.064953   -1.633469
      6         11           0       -1.144850    2.778577    0.302542
      7         11           0        3.081387   -1.426214    0.071556
 ---------------------------------------------------------------------

 SCF Done:  E(UB3LYP) =  -1136.13558803     A.U. after   19 cycles

 The electronic state is 2-A.
 Alpha  occ. eigenvalues --  -38.44438 -38.44192 -38.43783 -38.43483 -38.43404
 Alpha  occ. eigenvalues --  -38.43228 -38.43162  -2.20276  -2.19981  -2.19610
 Alpha  occ. eigenvalues --   -2.19390  -2.19371  -2.19119  -2.18988  -1.13961
 Alpha  occ. eigenvalues --   -1.13927  -1.13908  -1.13658  -1.13649  -1.13619
 Alpha  occ. eigenvalues --   -1.13296  -1.13271  -1.13236  -1.13105  -1.13055
 Alpha  occ. eigenvalues --   -1.13031  -1.13017  -1.13002  -1.12987  -1.12795
 Alpha  occ. eigenvalues --   -1.12784  -1.12723  -1.12663  -1.12650  -1.12623
 Alpha  occ. eigenvalues --   -0.18535  -0.13196  -0.12159  -0.10694
 Alpha virt. eigenvalues --   -0.05996  -0.05196  -0.04491  -0.03180  -0.02791
 Alpha virt. eigenvalues --   -0.02501  -0.01864  -0.01121  -0.00397  -0.00374
 Alpha virt. eigenvalues --   -0.00023   0.00321   0.00756   0.00855   0.00866

  Beta  occ. eigenvalues --  -38.44426 -38.44195 -38.43776 -38.43387 -38.43344
  Beta  occ. eigenvalues --  -38.43218 -38.43156  -2.20256  -2.19987  -2.19599
  Beta  occ. eigenvalues --   -2.19263  -2.19213  -2.19108  -2.18979  -1.13935
  Beta  occ. eigenvalues --   -1.13910  -1.13892  -1.13664  -1.13642  -1.13623
  Beta  occ. eigenvalues --   -1.13279  -1.13260  -1.13229  -1.13029  -1.12956
  Beta  occ. eigenvalues --   -1.12940  -1.12906  -1.12901  -1.12877  -1.12780
  Beta  occ. eigenvalues --   -1.12745  -1.12709  -1.12651  -1.12628  -1.12621
  Beta  occ. eigenvalues --   -0.17814  -0.12956  -0.11913
  Beta virt. eigenvalues --   -0.06799  -0.05923  -0.05185  -0.04453  -0.02467
  Beta virt. eigenvalues --   -0.02023  -0.01779  -0.01435  -0.01054  -0.00423
  Beta virt. eigenvalues --   -0.00408   0.00115   0.00358   0.00823   0.00852

 Mulliken charges and spin densities:
               1          2
     1  Na  -0.311932   0.762588
     2  Na   0.150288  -0.073123
     3  Na   0.323457   0.006479
     4  Na   0.055428  -0.036522
     5  Na  -0.145072   0.479452
     6  Na  -0.044936  -0.059480
     7  Na  -0.027233  -0.079393
 Sum of Mulliken charges =  -0.00000   1.00000

 Dipole moment (field-independent basis, Debye):
    X=             -0.1086    Y=             -0.1230    Z=              0.0514  Tot=              0.1719
 Quadrupole moment (field-independent basis, Debye-Ang):
   XX=            -53.6580   YY=            -64.4573   ZZ=            -74.8037
   XY=             -0.7136   XZ=              0.3857   YZ=             -0.1858

 Normal termination of Gaussian 16 at Tue Dec  5 18:28:07 2023.
