 Gaussian 16, Revision B.01,
 Gaussian 16:  ES64L-G16RevB.01 20-Dec-2017

 -------------------------
 #P B3LYP/6-311+g(d) force
 -------------------------

 -----
 DPGEN
 -----
 Symbolic Z-matrix:
 Charge =  0 Multiplicity = 2

                         Standard orientation:
 ---------------------------------------------------------------------
 Center     Atomic      Atomic             Coordinates (Angstroms)
 Number     Number       Type             X           Y           Z
 ---------------------------------------------------------------------
      1         11           0       -0.633008   -0.085051   -1.928743
      2         11           0       -3.917233    0.494032   -0.209110
      3         11           0        0.294914    2.721849    0.042182
      4         11           0        3.201498    0.406502   -1.024748
      5         11           0       -1.599113   -1.818028    0.734492
      6         11           0        1.625169   -2.281409   -0.082716
      7         11           0        1.027773    0.562104    2.468644
 ---------------------------------------------------------------------

 SCF Done:  E(UB3LYP) =  -1136.12641156     A.U. after   24 cycles

 The electronic state is 2-A.
 Alpha  occ. eigenvalues --  -38.44900 -38.44855 -38.44598 -38.44437 -38.43322
 Alpha  occ. eigenvalues --  -38.42867 -38.42625  -2.20664  -2.20659  -2.20454
 Alpha  occ. eigenvalues --   -2.20269  -2.19195  -2.18679  -2.18493  -1.14343
 Alpha  occ. eigenvalues --   -1.14331  -1.14322  -1.14320  -1.14298  -1.14278
 Alpha  occ. eigenvalues --   -1.14152  -1.14105  -1.14056  -1.13928  -1.13893
 Alpha  occ. eigenvalues --   -1.13884  -1.12892  -1.12859  -1.12813  -1.12368
 Alpha  occ. eigenvalues --   -1.12355  -1.12304  -1.12165  -1.12155  -1.12148
 Alpha  occ. eigenvalues --   -0.17952  -0.13155  -0.11588  -0.11471
 Alpha virt. eigenvalues --   -0.06695  -0.04650  -0.04118  -0.03516  -0.03189
 Alpha virt. eigenvalues --   -0.02990  -0.02312  -0.00910  -0.00426  -0.00118
 Alpha virt. eigenvalues --    0.00043   0.00207   0.00420   0.00817   0.00870

  Beta  occ. eigenvalues --  -38.44905 -38.44827 -38.44551 -38.44338 -38.43305
  Beta  occ. eigenvalues --  -38.42865 -38.42621  -2.20673  -2.20609  -2.20367
  Beta  occ. eigenvalues --   -2.20086  -2.19165  -2.18679  -2.18490  -1.14346
  Beta  occ. eigenvalues --   -1.14327  -1.14303  -1.14300  -1.14274  -1.14245
  Beta  occ. eigenvalues --   -1.14096  -1.14046  -1.13987  -1.13803  -1.13773
  Beta  occ. eigenvalues --   -1.13749  -1.12875  -1.12828  -1.12787  -1.12368
  Beta  occ. eigenvalues --   -1.12330  -1.12309  -1.12166  -1.12156  -1.12118
  Beta  occ. eigenvalues --   -0.17219  -0.12980  -0.11276
  Beta virt. eigenvalues --   -0.07649  -0.06561  -0.04413  -0.03820  -0.03176
  Beta virt. eigenvalues --   -0.02411  -0.02264  -0.02072  -0.00829  -0.00222
  Beta virt. eigenvalues --   -0.00095   0.00071   0.00306   0.00514   0.00896

 Mulliken charges and spin densities:
               1          2
     1  Na  -0.342960   0.474010
     2  Na   0.366905  -0.063909
     3  Na  -0.090027  -0.064189
     4  Na   0.284079   0.096173
     5  Na  -0.028649   0.115232
     6  Na   0.079152   0.022238
     7  Na  -0.268500   0.420445
 Sum of Mulliken charges =  -0.00000   1.00000

 Dipole moment (field-independent basis, Debye):
    X=             -0.4180    Y=              0.3118    Z=             -0.1428  Tot=              0.5407
 Quadrupole moment (field-independent basis, Debye-Ang):
   XX=            -52.0204   YY=            -75.4113   ZZ=            -67.3660
   XY=             -1.3983   XZ=             -1.7153   YZ=             -1.5816

 Normal termination of Gaussian 16 at Mon Dec  4 00:50:19 2023.
