 Gaussian 16, Revision B.01,
 Gaussian 16:  ES64L-G16RevB.01 20-Dec-2017

 -------------------------
 #P B3LYP/6-311+g(d) force
 -------------------------

 -----
 DPGEN
 -----
 Symbolic Z-matrix:
 Charge =  0 Multiplicity = 2

                         Standard orientation:
 ---------------------------------------------------------------------
 Center     Atomic      Atomic             Coordinates (Angstroms)
 Number     Number       Type             X           Y           Z
 ---------------------------------------------------------------------
      1         11           0       -0.498231   -0.065868   -1.864345
      2         11           0        3.080489   -1.641865   -0.198666
      3         11           0       -0.468960   -2.155635    0.279187
      4         11           0       -4.032443   -0.679255    0.213001
      5         11           0        1.571712    0.581870    2.089957
      6         11           0       -1.768304    2.064725    0.389672
      7         11           0        2.115737    1.896027   -0.908807
 ---------------------------------------------------------------------

 SCF Done:  E(UB3LYP) =  -1136.12404383     A.U. after   22 cycles

 The electronic state is 2-A.
 Alpha  occ. eigenvalues --  -38.45209 -38.44372 -38.44041 -38.43928 -38.43681
 Alpha  occ. eigenvalues --  -38.43596 -38.43313  -2.20969  -2.20165  -2.19893
 Alpha  occ. eigenvalues --   -2.19858  -2.19489  -2.19439  -2.19165  -1.14644
 Alpha  occ. eigenvalues --   -1.14629  -1.14591  -1.13840  -1.13826  -1.13808
 Alpha  occ. eigenvalues --   -1.13594  -1.13558  -1.13545  -1.13499  -1.13497
 Alpha  occ. eigenvalues --   -1.13458  -1.13179  -1.13171  -1.13114  -1.13102
 Alpha  occ. eigenvalues --   -1.13097  -1.13066  -1.12897  -1.12836  -1.12734
 Alpha  occ. eigenvalues --   -0.18095  -0.13599  -0.11353  -0.10911
 Alpha virt. eigenvalues --   -0.06834  -0.05433  -0.04087  -0.03224  -0.02806
 Alpha virt. eigenvalues --   -0.02651  -0.02282  -0.01448  -0.00434  -0.00254
 Alpha virt. eigenvalues --    0.00068   0.00190   0.00347   0.00656   0.00782

  Beta  occ. eigenvalues --  -38.45201 -38.44374 -38.43967 -38.43848 -38.43676
  Beta  occ. eigenvalues --  -38.43578 -38.43304  -2.20953  -2.20172  -2.19756
  Beta  occ. eigenvalues --   -2.19714  -2.19480  -2.19411  -2.19153  -1.14630
  Beta  occ. eigenvalues --   -1.14618  -1.14582  -1.13837  -1.13825  -1.13810
  Beta  occ. eigenvalues --   -1.13498  -1.13463  -1.13457  -1.13399  -1.13398
  Beta  occ. eigenvalues --   -1.13351  -1.13171  -1.13151  -1.13092  -1.13088
  Beta  occ. eigenvalues --   -1.13056  -1.13052  -1.12878  -1.12811  -1.12731
  Beta  occ. eigenvalues --   -0.17390  -0.13370  -0.11130
  Beta virt. eigenvalues --   -0.07171  -0.06560  -0.05414  -0.03569  -0.03033
  Beta virt. eigenvalues --   -0.02399  -0.01967  -0.01669  -0.01357  -0.00317
  Beta virt. eigenvalues --   -0.00090   0.00077   0.00228   0.00576   0.00734

 Mulliken charges and spin densities:
               1          2
     1  Na   0.002541   0.418773
     2  Na   0.252302  -0.035475
     3  Na  -0.253544   0.099933
     4  Na   0.323065  -0.099162
     5  Na  -0.271437   0.460287
     6  Na  -0.315661   0.143446
     7  Na   0.262733   0.012198
 Sum of Mulliken charges =  -0.00000   1.00000

 Dipole moment (field-independent basis, Debye):
    X=             -0.5184    Y=             -0.1630    Z=              0.0243  Tot=              0.5440
 Quadrupole moment (field-independent basis, Debye-Ang):
   XX=            -47.3971   YY=            -74.5595   ZZ=            -70.9491
   XY=              0.3706   XZ=             -2.9346   YZ=             -0.1798

 Normal termination of Gaussian 16 at Mon Dec  4 01:58:37 2023.
