 Gaussian 16, Revision B.01,
 Gaussian 16:  ES64L-G16RevB.01 20-Dec-2017

 -------------------------
 #P B3LYP/6-311+g(d) force
 -------------------------

 -----
 DPGEN
 -----
 Symbolic Z-matrix:
 Charge =  0 Multiplicity = 2

                         Standard orientation:
 ---------------------------------------------------------------------
 Center     Atomic      Atomic             Coordinates (Angstroms)
 Number     Number       Type             X           Y           Z
 ---------------------------------------------------------------------
      1         11           0       -1.969472    2.674479   -0.079409
      2         11           0        1.164108    1.587600    0.090036
      3         11           0        3.984830    0.007730   -0.070515
      4         11           0        1.310742   -1.624297    0.003485
      5         11           0       -2.088031   -2.637804   -0.018060
      6         11           0       -1.220823   -0.012194   -1.658893
      7         11           0       -1.181354    0.004485    1.733356
 ---------------------------------------------------------------------

 SCF Done:  E(UB3LYP) =  -1136.13063439     A.U. after   19 cycles

 The electronic state is 2-A.
 Alpha  occ. eigenvalues --  -38.44384 -38.43509 -38.43482 -38.43478 -38.43316
 Alpha  occ. eigenvalues --  -38.43142 -38.43122  -2.20227  -2.19430  -2.19380
 Alpha  occ. eigenvalues --   -2.19370  -2.19299  -2.19145  -2.19117  -1.13907
 Alpha  occ. eigenvalues --   -1.13887  -1.13867  -1.13201  -1.13111  -1.13082
 Alpha  occ. eigenvalues --   -1.13072  -1.13049  -1.13047  -1.13040  -1.13031
 Alpha  occ. eigenvalues --   -1.13014  -1.12986  -1.12982  -1.12866  -1.12824
 Alpha  occ. eigenvalues --   -1.12804  -1.12786  -1.12733  -1.12721  -1.12692
 Alpha  occ. eigenvalues --   -0.19167  -0.13599  -0.12601  -0.10552
 Alpha virt. eigenvalues --   -0.06292  -0.04891  -0.04317  -0.02965  -0.02831
 Alpha virt. eigenvalues --   -0.02247  -0.01960  -0.01474  -0.00145  -0.00080
 Alpha virt. eigenvalues --    0.00035   0.00336   0.00838   0.00852   0.00884

  Beta  occ. eigenvalues --  -38.44390 -38.43504 -38.43476 -38.43466 -38.43301
  Beta  occ. eigenvalues --  -38.43068 -38.43040  -2.20237  -2.19414  -2.19374
  Beta  occ. eigenvalues --   -2.19363  -2.19279  -2.19008  -2.18967  -1.13915
  Beta  occ. eigenvalues --   -1.13894  -1.13870  -1.13191  -1.13074  -1.13065
  Beta  occ. eigenvalues --   -1.13060  -1.13045  -1.13037  -1.13014  -1.13008
  Beta  occ. eigenvalues --   -1.12992  -1.12980  -1.12923  -1.12856  -1.12740
  Beta  occ. eigenvalues --   -1.12710  -1.12687  -1.12631  -1.12624  -1.12586
  Beta  occ. eigenvalues --   -0.18438  -0.13464  -0.12323
  Beta virt. eigenvalues --   -0.06537  -0.06098  -0.04895  -0.04311  -0.02409
  Beta virt. eigenvalues --   -0.02011  -0.01962  -0.01435  -0.01187  -0.00097
  Beta virt. eigenvalues --    0.00081   0.00138   0.00401   0.00863   0.00868

 Mulliken charges and spin densities:
               1          2
     1  Na   0.804166   0.271904
     2  Na  -0.478059   0.262565
     3  Na   0.135316  -0.298681
     4  Na  -0.419260   0.229361
     5  Na   0.815439   0.282545
     6  Na  -0.422846   0.154553
     7  Na  -0.434755   0.097753
 Sum of Mulliken charges =  -0.00000   1.00000

 Dipole moment (field-independent basis, Debye):
    X=              0.4108    Y=             -0.0062    Z=              0.0620  Tot=              0.4155
 Quadrupole moment (field-independent basis, Debye-Ang):
   XX=            -51.8425   YY=            -63.4572   ZZ=            -75.4339
   XY=              0.0113   XZ=             -0.5917   YZ=             -0.0574

 Normal termination of Gaussian 16 at Tue Dec  5 12:35:00 2023.
