 Gaussian 16, Revision B.01,
 Gaussian 16:  ES64L-G16RevB.01 20-Dec-2017

 -------------------------
 #P B3LYP/6-311+g(d) force
 -------------------------

 -----
 DPGEN
 -----
 Symbolic Z-matrix:
 Charge =  0 Multiplicity = 2

                         Standard orientation:
 ---------------------------------------------------------------------
 Center     Atomic      Atomic             Coordinates (Angstroms)
 Number     Number       Type             X           Y           Z
 ---------------------------------------------------------------------
      1         11           0        0.461927   -0.303363   -1.676530
      2         11           0       -3.182181   -0.166669   -0.473309
      3         11           0        3.594933   -1.064708   -0.019207
      4         11           0        0.014086   -0.345792    2.054950
      5         11           0       -1.471861    2.655864    0.234051
      6         11           0        1.737742    2.232071   -0.167900
      7         11           0       -1.154646   -3.007403    0.047945
 ---------------------------------------------------------------------

 SCF Done:  E(UB3LYP) =  -1136.13172381     A.U. after   20 cycles

 The electronic state is 2-A.
 Alpha  occ. eigenvalues --  -38.44875 -38.44315 -38.43762 -38.43737 -38.43668
 Alpha  occ. eigenvalues --  -38.43626 -38.43078  -2.20626  -2.20127  -2.19626
 Alpha  occ. eigenvalues --   -2.19561  -2.19545  -2.19480  -2.18924  -1.14302
 Alpha  occ. eigenvalues --   -1.14286  -1.14261  -1.13798  -1.13793  -1.13762
 Alpha  occ. eigenvalues --   -1.13374  -1.13292  -1.13253  -1.13244  -1.13220
 Alpha  occ. eigenvalues --   -1.13217  -1.13188  -1.13186  -1.13158  -1.13142
 Alpha  occ. eigenvalues --   -1.13102  -1.13097  -1.12593  -1.12583  -1.12578
 Alpha  occ. eigenvalues --   -0.18086  -0.13028  -0.12216  -0.10523
 Alpha virt. eigenvalues --   -0.06459  -0.05166  -0.04610  -0.03206  -0.02819
 Alpha virt. eigenvalues --   -0.02522  -0.02071  -0.01181  -0.00721  -0.00315
 Alpha virt. eigenvalues --   -0.00057   0.00285   0.00709   0.00732   0.00776

  Beta  occ. eigenvalues --  -38.44879 -38.44302 -38.43755 -38.43734 -38.43613
  Beta  occ. eigenvalues --  -38.43527 -38.43075  -2.20635  -2.20104  -2.19617
  Beta  occ. eigenvalues --   -2.19544  -2.19460  -2.19297  -2.18922  -1.14303
  Beta  occ. eigenvalues --   -1.14287  -1.14269  -1.13780  -1.13765  -1.13750
  Beta  occ. eigenvalues --   -1.13354  -1.13263  -1.13246  -1.13220  -1.13199
  Beta  occ. eigenvalues --   -1.13181  -1.13170  -1.13128  -1.13086  -1.13021
  Beta  occ. eigenvalues --   -1.12976  -1.12966  -1.12594  -1.12583  -1.12554
  Beta  occ. eigenvalues --   -0.17376  -0.12821  -0.12021
  Beta virt. eigenvalues --   -0.06677  -0.06397  -0.05072  -0.04578  -0.02497
  Beta virt. eigenvalues --   -0.02088  -0.02008  -0.01471  -0.01092  -0.00759
  Beta virt. eigenvalues --   -0.00328   0.00096   0.00329   0.00734   0.00821

 Mulliken charges and spin densities:
               1          2
     1  Na   0.057108   0.323032
     2  Na   0.066474   0.098491
     3  Na   0.058624  -0.091295
     4  Na  -0.271593   0.675469
     5  Na  -0.070775   0.016238
     6  Na   0.112930   0.025180
     7  Na   0.047232  -0.047115
 Sum of Mulliken charges =  -0.00000   1.00000

 Dipole moment (field-independent basis, Debye):
    X=              0.5187    Y=             -0.5082    Z=              0.0106  Tot=              0.7263
 Quadrupole moment (field-independent basis, Debye-Ang):
   XX=            -53.8898   YY=            -63.6780   ZZ=            -75.5469
   XY=             -1.1248   XZ=              1.3064   YZ=              0.1622

 Normal termination of Gaussian 16 at Fri Dec  8 05:06:44 2023.
