 Gaussian 16, Revision B.01,
 Gaussian 16:  ES64L-G16RevB.01 20-Dec-2017

 -------------------------
 #P B3LYP/6-311+g(d) force
 -------------------------

 -----
 DPGEN
 -----
 Symbolic Z-matrix:
 Charge =  0 Multiplicity = 2

                         Standard orientation:
 ---------------------------------------------------------------------
 Center     Atomic      Atomic             Coordinates (Angstroms)
 Number     Number       Type             X           Y           Z
 ---------------------------------------------------------------------
      1         11           0       -1.043092   -2.502597    0.556357
      2         11           0        0.165513    0.460132    2.048778
      3         11           0        1.039577    2.853983    0.160162
      4         11           0       -2.325958    1.917832   -0.045213
      5         11           0       -3.494195   -0.784270   -1.385987
      6         11           0        3.440789    0.310461   -1.565413
      7         11           0        2.217367   -2.255540    0.231318
 ---------------------------------------------------------------------

 SCF Done:  E(UB3LYP) =  -1136.12581425     A.U. after   19 cycles

 The electronic state is 2-A.
 Alpha  occ. eigenvalues --  -38.44472 -38.44439 -38.44129 -38.43905 -38.43844
 Alpha  occ. eigenvalues --  -38.43804 -38.43745  -2.20349  -2.20239  -2.19960
 Alpha  occ. eigenvalues --   -2.19727  -2.19663  -2.19630  -2.19574  -1.14023
 Alpha  occ. eigenvalues --   -1.14015  -1.13953  -1.13888  -1.13884  -1.13859
 Alpha  occ. eigenvalues --   -1.13653  -1.13637  -1.13604  -1.13376  -1.13371
 Alpha  occ. eigenvalues --   -1.13362  -1.13354  -1.13331  -1.13322  -1.13320
 Alpha  occ. eigenvalues --   -1.13295  -1.13255  -1.13249  -1.13238  -1.13182
 Alpha  occ. eigenvalues --   -0.17334  -0.13564  -0.12640  -0.11221
 Alpha virt. eigenvalues --   -0.05949  -0.05458  -0.04614  -0.03879  -0.03433
 Alpha virt. eigenvalues --   -0.02264  -0.01327  -0.00913  -0.00757  -0.00680
 Alpha virt. eigenvalues --   -0.00374   0.00250   0.00385   0.00499   0.00629

  Beta  occ. eigenvalues --  -38.44404 -38.44359 -38.44121 -38.43858 -38.43845
  Beta  occ. eigenvalues --  -38.43804 -38.43733  -2.20224  -2.20090  -2.19949
  Beta  occ. eigenvalues --   -2.19669  -2.19639  -2.19632  -2.19555  -1.13942
  Beta  occ. eigenvalues --   -1.13934  -1.13857  -1.13786  -1.13784  -1.13759
  Beta  occ. eigenvalues --   -1.13643  -1.13633  -1.13570  -1.13366  -1.13333
  Beta  occ. eigenvalues --   -1.13316  -1.13314  -1.13309  -1.13306  -1.13298
  Beta  occ. eigenvalues --   -1.13298  -1.13240  -1.13233  -1.13226  -1.13158
  Beta  occ. eigenvalues --   -0.16759  -0.12784  -0.12444
  Beta virt. eigenvalues --   -0.07832  -0.05872  -0.05121  -0.04055  -0.03683
  Beta virt. eigenvalues --   -0.02778  -0.01772  -0.01169  -0.00911  -0.00662
  Beta virt. eigenvalues --   -0.00536  -0.00074   0.00449   0.00509   0.00689

 Mulliken charges and spin densities:
               1          2
     1  Na  -0.352407  -0.033441
     2  Na   0.860688   0.006769
     3  Na  -0.155581   0.184525
     4  Na  -0.561813   0.027948
     5  Na   0.464238   0.314381
     6  Na  -0.016891   0.345387
     7  Na  -0.238234   0.154431
 Sum of Mulliken charges =  -0.00000   1.00000

 Dipole moment (field-independent basis, Debye):
    X=              0.0314    Y=              0.2703    Z=             -0.0663  Tot=              0.2801
 Quadrupole moment (field-independent basis, Debye-Ang):
   XX=            -66.5770   YY=            -65.4733   ZZ=            -68.0252
   XY=              0.8980   XZ=              0.1778   YZ=             -0.8603

 Normal termination of Gaussian 16 at Tue Nov 28 20:24:10 2023.
