 Gaussian 16, Revision B.01,
 Gaussian 16:  ES64L-G16RevB.01 20-Dec-2017

 -------------------------
 #P B3LYP/6-311+g(d) force
 -------------------------

 -----
 DPGEN
 -----
 Symbolic Z-matrix:
 Charge =  0 Multiplicity = 2

                         Standard orientation:
 ---------------------------------------------------------------------
 Center     Atomic      Atomic             Coordinates (Angstroms)
 Number     Number       Type             X           Y           Z
 ---------------------------------------------------------------------
      1         11           0       -1.850071   -0.202603   -1.377288
      2         11           0       -2.274227    2.452311    0.455717
      3         11           0       -2.344394   -2.386863    0.454960
      4         11           0        1.847711   -1.461955   -1.399961
      5         11           0        0.044462   -0.466729    2.049638
      6         11           0        3.851684    0.265815    0.698214
      7         11           0        0.724835    1.800025   -0.881280
 ---------------------------------------------------------------------

 SCF Done:  E(UB3LYP) =  -1136.12619507     A.U. after   20 cycles

 The electronic state is 2-A.
 Alpha  occ. eigenvalues --  -38.44871 -38.44379 -38.44375 -38.43499 -38.43411
 Alpha  occ. eigenvalues --  -38.43248 -38.43163  -2.20654  -2.20209  -2.20203
 Alpha  occ. eigenvalues --   -2.19472  -2.19249  -2.19142  -2.19020  -1.14326
 Alpha  occ. eigenvalues --   -1.14314  -1.14289  -1.13890  -1.13879  -1.13857
 Alpha  occ. eigenvalues --   -1.13848  -1.13823  -1.13814  -1.13229  -1.13150
 Alpha  occ. eigenvalues --   -1.13119  -1.12916  -1.12899  -1.12892  -1.12856
 Alpha  occ. eigenvalues --   -1.12818  -1.12718  -1.12688  -1.12655  -1.12638
 Alpha  occ. eigenvalues --   -0.18255  -0.13506  -0.11610  -0.11146
 Alpha virt. eigenvalues --   -0.06379  -0.05194  -0.04321  -0.03305  -0.02883
 Alpha virt. eigenvalues --   -0.02702  -0.02036  -0.01216  -0.00595   0.00033
 Alpha virt. eigenvalues --    0.00123   0.00253   0.00422   0.00623   0.00746

  Beta  occ. eigenvalues --  -38.44865 -38.44334 -38.44299 -38.43467 -38.43407
  Beta  occ. eigenvalues --  -38.43229 -38.43165  -2.20645  -2.20131  -2.20061
  Beta  occ. eigenvalues --   -2.19415  -2.19241  -2.19113  -2.19028  -1.14320
  Beta  occ. eigenvalues --   -1.14297  -1.14283  -1.13833  -1.13800  -1.13779
  Beta  occ. eigenvalues --   -1.13762  -1.13744  -1.13716  -1.13192  -1.13114
  Beta  occ. eigenvalues --   -1.13070  -1.12908  -1.12890  -1.12878  -1.12833
  Beta  occ. eigenvalues --   -1.12770  -1.12705  -1.12685  -1.12650  -1.12639
  Beta  occ. eigenvalues --   -0.17489  -0.13390  -0.11441
  Beta virt. eigenvalues --   -0.07276  -0.06114  -0.05021  -0.03957  -0.03037
  Beta virt. eigenvalues --   -0.02238  -0.01896  -0.01857  -0.01053  -0.00314
  Beta virt. eigenvalues --    0.00068   0.00218   0.00289   0.00556   0.00706

 Mulliken charges and spin densities:
               1          2
     1  Na   0.449231   0.282045
     2  Na   0.122466  -0.070606
     3  Na  -0.102275  -0.132663
     4  Na  -0.095761   0.111033
     5  Na  -0.460368   0.605778
     6  Na   0.435233   0.008171
     7  Na  -0.348526   0.196241
 Sum of Mulliken charges =  -0.00000   1.00000

 Dipole moment (field-independent basis, Debye):
    X=              1.1585    Y=              0.0941    Z=              0.4007  Tot=              1.2295
 Quadrupole moment (field-independent basis, Debye-Ang):
   XX=            -53.2264   YY=            -71.3871   ZZ=            -69.7062
   XY=             -0.6655   XZ=              0.4576   YZ=              2.7916

 Normal termination of Gaussian 16 at Tue Dec  5 10:29:35 2023.
