 Gaussian 16, Revision B.01,
 Gaussian 16:  ES64L-G16RevB.01 20-Dec-2017

 -------------------------
 #P B3LYP/6-311+g(d) force
 -------------------------

 -----
 DPGEN
 -----
 Symbolic Z-matrix:
 Charge =  0 Multiplicity = 2

                         Standard orientation:
 ---------------------------------------------------------------------
 Center     Atomic      Atomic             Coordinates (Angstroms)
 Number     Number       Type             X           Y           Z
 ---------------------------------------------------------------------
      1         11           0        4.851038   -2.037441    0.617293
      2         11           0        2.350409    3.295741   -0.174231
      3         11           0        3.698645    0.050095   -1.188691
      4         11           0       -6.297441    0.084828   -0.777295
      5         11           0       -0.164121    0.891516    1.275080
      6         11           0       -0.617210   -1.903220   -0.601436
      7         11           0       -3.821320   -0.381520    0.849279
 ---------------------------------------------------------------------

 SCF Done:  E(UB3LYP) =  -1136.10585816     A.U. after   21 cycles

 The electronic state is 2-A.
 Alpha  occ. eigenvalues --  -38.46058 -38.44982 -38.44452 -38.43744 -38.43670
 Alpha  occ. eigenvalues --  -38.43649 -38.43647  -2.21843  -2.20774  -2.20227
 Alpha  occ. eigenvalues --   -2.19568  -2.19486  -2.19481  -2.19470  -1.15498
 Alpha  occ. eigenvalues --   -1.15481  -1.15447  -1.14421  -1.14410  -1.14386
 Alpha  occ. eigenvalues --   -1.13924  -1.13915  -1.13855  -1.13337  -1.13296
 Alpha  occ. eigenvalues --   -1.13205  -1.13203  -1.13156  -1.13153  -1.13138
 Alpha  occ. eigenvalues --   -1.13136  -1.13112  -1.13105  -1.13052  -1.13027
 Alpha  occ. eigenvalues --   -0.16228  -0.14066  -0.11807  -0.11674
 Alpha virt. eigenvalues --   -0.06685  -0.05165  -0.04909  -0.03598  -0.02968
 Alpha virt. eigenvalues --   -0.02288  -0.02223  -0.01885  -0.01208  -0.00978
 Alpha virt. eigenvalues --   -0.00530  -0.00437   0.00069   0.00375   0.00586

  Beta  occ. eigenvalues --  -38.45982 -38.44888 -38.44470 -38.43697 -38.43654
  Beta  occ. eigenvalues --  -38.43648 -38.43648  -2.21700  -2.20599  -2.20264
  Beta  occ. eigenvalues --   -2.19493  -2.19480  -2.19476  -2.19449  -1.15401
  Beta  occ. eigenvalues --   -1.15387  -1.15349  -1.14302  -1.14290  -1.14272
  Beta  occ. eigenvalues --   -1.13950  -1.13941  -1.13856  -1.13293  -1.13282
  Beta  occ. eigenvalues --   -1.13177  -1.13156  -1.13146  -1.13133  -1.13130
  Beta  occ. eigenvalues --   -1.13127  -1.13095  -1.13093  -1.13015  -1.13009
  Beta  occ. eigenvalues --   -0.15635  -0.13494  -0.11105
  Beta virt. eigenvalues --   -0.08585  -0.06342  -0.04863  -0.04416  -0.03396
  Beta virt. eigenvalues --   -0.02678  -0.02140  -0.01848  -0.01560  -0.00941
  Beta virt. eigenvalues --   -0.00757  -0.00313  -0.00269   0.00264   0.00441

 Mulliken charges and spin densities:
               1          2
     1  Na   0.280828   0.142239
     2  Na   0.581675   0.497794
     3  Na  -0.525027  -0.076403
     4  Na   0.360865   0.180580
     5  Na  -0.341955  -0.135886
     6  Na   0.327147   0.334179
     7  Na  -0.683533   0.057497
 Sum of Mulliken charges =  -0.00000   1.00000

 Dipole moment (field-independent basis, Debye):
    X=              0.0922    Y=             -0.1035    Z=             -0.1540  Tot=              0.2072
 Quadrupole moment (field-independent basis, Debye-Ang):
   XX=            -80.6493   YY=            -63.7599   ZZ=            -65.3094
   XY=              2.3533   XZ=              5.5106   YZ=             -0.6753

 Normal termination of Gaussian 16 at Sun Dec  3 12:36:20 2023.
