 Gaussian 16, Revision B.01,
 Gaussian 16:  ES64L-G16RevB.01 20-Dec-2017

 -------------------------
 #P B3LYP/6-311+g(d) force
 -------------------------

 -----
 DPGEN
 -----
 Symbolic Z-matrix:
 Charge =  0 Multiplicity = 2

                         Standard orientation:
 ---------------------------------------------------------------------
 Center     Atomic      Atomic             Coordinates (Angstroms)
 Number     Number       Type             X           Y           Z
 ---------------------------------------------------------------------
      1         11           0        3.745193   -0.725233    0.081327
      2         11           0       -4.572833    0.552749    1.742632
      3         11           0        0.742542    1.308742   -0.946052
      4         11           0       -0.944553   -1.205658   -1.583168
      5         11           0       -3.190203   -2.550765    0.176795
      6         11           0        6.390812    0.079887    1.002429
      7         11           0       -2.170958    2.540278   -0.473963
 ---------------------------------------------------------------------

 SCF Done:  E(UB3LYP) =  -1136.10955244     A.U. after   22 cycles

 The electronic state is 2-A.
 Alpha  occ. eigenvalues --  -38.45277 -38.44932 -38.44723 -38.44116 -38.44037
 Alpha  occ. eigenvalues --  -38.43789 -38.43528  -2.21094  -2.20812  -2.20482
 Alpha  occ. eigenvalues --   -2.19931  -2.19848  -2.19619  -2.19404  -1.14769
 Alpha  occ. eigenvalues --   -1.14733  -1.14712  -1.14477  -1.14476  -1.14441
 Alpha  occ. eigenvalues --   -1.14154  -1.14137  -1.14102  -1.13692  -1.13571
 Alpha  occ. eigenvalues --   -1.13569  -1.13539  -1.13506  -1.13454  -1.13272
 Alpha  occ. eigenvalues --   -1.13270  -1.13229  -1.13091  -1.13063  -1.13037
 Alpha  occ. eigenvalues --   -0.16843  -0.13727  -0.12389  -0.11843
 Alpha virt. eigenvalues --   -0.06739  -0.05155  -0.04446  -0.03840  -0.03205
 Alpha virt. eigenvalues --   -0.02616  -0.02229  -0.01490  -0.01100  -0.00643
 Alpha virt. eigenvalues --   -0.00427  -0.00050   0.00075   0.00154   0.00541

  Beta  occ. eigenvalues --  -38.45210 -38.44863 -38.44683 -38.44109 -38.44004
  Beta  occ. eigenvalues --  -38.43790 -38.43525  -2.20969  -2.20687  -2.20409
  Beta  occ. eigenvalues --   -2.19919  -2.19790  -2.19622  -2.19401  -1.14684
  Beta  occ. eigenvalues --   -1.14654  -1.14612  -1.14394  -1.14381  -1.14349
  Beta  occ. eigenvalues --   -1.14106  -1.14079  -1.14056  -1.13685  -1.13562
  Beta  occ. eigenvalues --   -1.13560  -1.13486  -1.13470  -1.13410  -1.13275
  Beta  occ. eigenvalues --   -1.13273  -1.13225  -1.13080  -1.13057  -1.13033
  Beta  occ. eigenvalues --   -0.16072  -0.13479  -0.11782
  Beta virt. eigenvalues --   -0.08437  -0.06333  -0.04631  -0.03975  -0.03634
  Beta virt. eigenvalues --   -0.02716  -0.02447  -0.02148  -0.01111  -0.00960
  Beta virt. eigenvalues --   -0.00462  -0.00189   0.00127   0.00261   0.00329

 Mulliken charges and spin densities:
               1          2
     1  Na  -0.400195   0.010001
     2  Na  -0.086263   0.167031
     3  Na  -0.181825  -0.097354
     4  Na  -0.330879   0.359887
     5  Na   0.257303   0.104111
     6  Na   0.607840   0.018992
     7  Na   0.134019   0.437332
 Sum of Mulliken charges =  -0.00000   1.00000

 Dipole moment (field-independent basis, Debye):
    X=             -0.5153    Y=              0.6454    Z=              0.0740  Tot=              0.8292
 Quadrupole moment (field-independent basis, Debye-Ang):
   XX=            -62.9168   YY=            -66.1991   ZZ=            -69.6920
   XY=             -0.5059   XZ=              0.7389   YZ=              1.7386

 Normal termination of Gaussian 16 at Mon Dec  4 01:43:18 2023.
