 Gaussian 16, Revision B.01,
 Gaussian 16:  ES64L-G16RevB.01 20-Dec-2017

 -------------------------
 #P B3LYP/6-311+g(d) force
 -------------------------

 -----
 DPGEN
 -----
 Symbolic Z-matrix:
 Charge =  0 Multiplicity = 2

                         Standard orientation:
 ---------------------------------------------------------------------
 Center     Atomic      Atomic             Coordinates (Angstroms)
 Number     Number       Type             X           Y           Z
 ---------------------------------------------------------------------
      1         11           0        0.215212   -0.415423   -1.611987
      2         11           0       -3.345975    0.748906   -0.066951
      3         11           0       -0.353841   -0.292129    1.706002
      4         11           0        3.031650    1.143992    0.577110
      5         11           0        3.224084   -1.491655   -0.305254
      6         11           0       -2.285449   -2.212318    0.102267
      7         11           0       -0.485680    2.518627   -0.401187
 ---------------------------------------------------------------------

 SCF Done:  E(UB3LYP) =  -1136.11799790     A.U. after   25 cycles

 The electronic state is 2-A.
 Alpha  occ. eigenvalues --  -38.45538 -38.44780 -38.44775 -38.44135 -38.43482
 Alpha  occ. eigenvalues --  -38.43224 -38.42102  -2.21385  -2.20676  -2.20626
 Alpha  occ. eigenvalues --   -2.20054  -2.19424  -2.19114  -2.17984  -1.15058
 Alpha  occ. eigenvalues --   -1.15047  -1.15022  -1.14632  -1.14315  -1.14299
 Alpha  occ. eigenvalues --   -1.14246  -1.14234  -1.14145  -1.13769  -1.13687
 Alpha  occ. eigenvalues --   -1.13671  -1.13123  -1.13058  -1.13032  -1.12788
 Alpha  occ. eigenvalues --   -1.12781  -1.12750  -1.11681  -1.11641  -1.11619
 Alpha  occ. eigenvalues --   -0.18758  -0.14462  -0.11438  -0.10464
 Alpha virt. eigenvalues --   -0.07206  -0.05512  -0.03891  -0.03515  -0.02843
 Alpha virt. eigenvalues --   -0.02245  -0.02137  -0.01381  -0.00460  -0.00190
 Alpha virt. eigenvalues --   -0.00044   0.00196   0.00514   0.00635   0.00742

  Beta  occ. eigenvalues --  -38.45537 -38.44772 -38.44763 -38.44073 -38.43399
  Beta  occ. eigenvalues --  -38.43221 -38.42095  -2.21384  -2.20658  -2.20610
  Beta  occ. eigenvalues --   -2.19942  -2.19273  -2.19113  -2.17974  -1.15059
  Beta  occ. eigenvalues --   -1.15039  -1.15015  -1.14624  -1.14290  -1.14280
  Beta  occ. eigenvalues --   -1.14226  -1.14216  -1.14135  -1.13686  -1.13607
  Beta  occ. eigenvalues --   -1.13589  -1.13019  -1.12948  -1.12924  -1.12786
  Beta  occ. eigenvalues --   -1.12783  -1.12724  -1.11674  -1.11627  -1.11599
  Beta  occ. eigenvalues --   -0.18068  -0.14243  -0.11192
  Beta virt. eigenvalues --   -0.07099  -0.06665  -0.05379  -0.03573  -0.03104
  Beta virt. eigenvalues --   -0.02665  -0.01572  -0.01425  -0.01082  -0.00482
  Beta virt. eigenvalues --   -0.00052   0.00043   0.00227   0.00692   0.00735

 Mulliken charges and spin densities:
               1          2
     1  Na  -0.148703   0.342553
     2  Na   0.165118  -0.017680
     3  Na  -0.281669   0.332586
     4  Na   0.049575   0.140945
     5  Na   0.210549   0.059099
     6  Na   0.262987   0.091862
     7  Na  -0.257856   0.050635
 Sum of Mulliken charges =  -0.00000   1.00000

 Dipole moment (field-independent basis, Debye):
    X=             -0.1147    Y=             -0.0158    Z=              0.0606  Tot=              0.1307
 Quadrupole moment (field-independent basis, Debye-Ang):
   XX=            -46.9524   YY=            -70.9304   ZZ=            -75.8860
   XY=             -1.5504   XZ=              1.3758   YZ=              1.0125

 Normal termination of Gaussian 16 at Tue Dec  5 23:24:53 2023.
