 Gaussian 16, Revision B.01,
 Gaussian 16:  ES64L-G16RevB.01 20-Dec-2017

 -------------------------
 #P B3LYP/6-311+g(d) force
 -------------------------

 -----
 DPGEN
 -----
 Symbolic Z-matrix:
 Charge =  0 Multiplicity = 2

                         Standard orientation:
 ---------------------------------------------------------------------
 Center     Atomic      Atomic             Coordinates (Angstroms)
 Number     Number       Type             X           Y           Z
 ---------------------------------------------------------------------
      1         11           0       -0.974642    2.701285   -0.651381
      2         11           0        1.499265   -1.669063   -0.605190
      3         11           0       -0.355802   -0.018478   -1.825849
      4         11           0        3.643161    0.847452    0.232008
      5         11           0        0.576466    0.009863    2.067699
      6         11           0       -1.428732   -2.287622   -0.063853
      7         11           0       -2.959715    0.416563    0.846565
 ---------------------------------------------------------------------

 SCF Done:  E(UB3LYP) =  -1136.11953225     A.U. after   21 cycles

 The electronic state is 2-A.
 Alpha  occ. eigenvalues --  -38.44605 -38.44476 -38.44249 -38.44008 -38.43275
 Alpha  occ. eigenvalues --  -38.43238 -38.42781  -2.20465  -2.20250  -2.20111
 Alpha  occ. eigenvalues --   -2.20071  -2.19304  -2.19097  -2.18749  -1.14154
 Alpha  occ. eigenvalues --   -1.14109  -1.14068  -1.13926  -1.13910  -1.13891
 Alpha  occ. eigenvalues --   -1.13885  -1.13786  -1.13772  -1.13744  -1.13699
 Alpha  occ. eigenvalues --   -1.13680  -1.13006  -1.12967  -1.12875  -1.12802
 Alpha  occ. eigenvalues --   -1.12725  -1.12712  -1.12434  -1.12396  -1.12379
 Alpha  occ. eigenvalues --   -0.19042  -0.13283  -0.11957  -0.11716
 Alpha virt. eigenvalues --   -0.06241  -0.04419  -0.04164  -0.03453  -0.03263
 Alpha virt. eigenvalues --   -0.02960  -0.01943  -0.00742  -0.00261   0.00035
 Alpha virt. eigenvalues --    0.00225   0.00308   0.00585   0.00880   0.00945

  Beta  occ. eigenvalues --  -38.44534 -38.44482 -38.44227 -38.43921 -38.43254
  Beta  occ. eigenvalues --  -38.43217 -38.42774  -2.20333  -2.20262  -2.20073
  Beta  occ. eigenvalues --   -2.19914  -2.19271  -2.19062  -2.18741  -1.14069
  Beta  occ. eigenvalues --   -1.14020  -1.13967  -1.13933  -1.13913  -1.13891
  Beta  occ. eigenvalues --   -1.13779  -1.13764  -1.13737  -1.13708  -1.13589
  Beta  occ. eigenvalues --   -1.13573  -1.12978  -1.12922  -1.12846  -1.12763
  Beta  occ. eigenvalues --   -1.12696  -1.12693  -1.12429  -1.12395  -1.12336
  Beta  occ. eigenvalues --   -0.18261  -0.13078  -0.11654
  Beta virt. eigenvalues --   -0.07748  -0.06070  -0.04356  -0.03956  -0.02940
  Beta virt. eigenvalues --   -0.02388  -0.02171  -0.01684  -0.00717  -0.00106
  Beta virt. eigenvalues --    0.00068   0.00256   0.00336   0.00726   0.00893

 Mulliken charges and spin densities:
               1          2
     1  Na   0.213047   0.046680
     2  Na   0.481253   0.101982
     3  Na  -0.225495   0.163817
     4  Na   0.087250  -0.077759
     5  Na  -0.624570   0.472187
     6  Na   0.123885   0.139126
     7  Na  -0.055371   0.153966
 Sum of Mulliken charges =  -0.00000   1.00000

 Dipole moment (field-independent basis, Debye):
    X=              0.3102    Y=              0.3588    Z=              0.6317  Tot=              0.7900
 Quadrupole moment (field-independent basis, Debye-Ang):
   XX=            -55.7507   YY=            -70.1865   ZZ=            -69.4260
   XY=              2.8610   XZ=             -2.5837   YZ=             -0.6174

 Normal termination of Gaussian 16 at Tue Dec  5 13:31:25 2023.
