 Gaussian 16, Revision B.01,
 Gaussian 16:  ES64L-G16RevB.01 20-Dec-2017

 -------------------------
 #P B3LYP/6-311+g(d) force
 -------------------------

 -----
 DPGEN
 -----
 Symbolic Z-matrix:
 Charge =  0 Multiplicity = 2

                         Standard orientation:
 ---------------------------------------------------------------------
 Center     Atomic      Atomic             Coordinates (Angstroms)
 Number     Number       Type             X           Y           Z
 ---------------------------------------------------------------------
      1         11           0       -0.300618    2.708781   -0.496110
      2         11           0       -3.205226   -0.271310   -1.429035
      3         11           0        4.339622   -1.175236   -0.450824
      4         11           0        0.119775   -0.779897   -1.412248
      5         11           0       -1.149540    1.147130    1.608486
      6         11           0        2.172794    0.779766    0.856459
      7         11           0       -1.976808   -2.409234    1.323272
 ---------------------------------------------------------------------

 SCF Done:  E(UB3LYP) =  -1136.12134131     A.U. after   21 cycles

 The electronic state is 2-A.
 Alpha  occ. eigenvalues --  -38.44535 -38.44519 -38.44011 -38.44000 -38.43622
 Alpha  occ. eigenvalues --  -38.43395 -38.43328  -2.20374  -2.20350  -2.19818
 Alpha  occ. eigenvalues --   -2.19780  -2.19593  -2.19323  -2.19237  -1.14077
 Alpha  occ. eigenvalues --   -1.14056  -1.14040  -1.14004  -1.13973  -1.13943
 Alpha  occ. eigenvalues --   -1.13490  -1.13478  -1.13470  -1.13465  -1.13441
 Alpha  occ. eigenvalues --   -1.13428  -1.13415  -1.13258  -1.13188  -1.12971
 Alpha  occ. eigenvalues --   -1.12936  -1.12930  -1.12915  -1.12890  -1.12821
 Alpha  occ. eigenvalues --   -0.18308  -0.13351  -0.11811  -0.11195
 Alpha virt. eigenvalues --   -0.06563  -0.04798  -0.04700  -0.03209  -0.02765
 Alpha virt. eigenvalues --   -0.02624  -0.02183  -0.01279  -0.00813  -0.00264
 Alpha virt. eigenvalues --    0.00126   0.00172   0.00330   0.00754   0.00793

  Beta  occ. eigenvalues --  -38.44499 -38.44483 -38.44005 -38.43956 -38.43579
  Beta  occ. eigenvalues --  -38.43387 -38.43320  -2.20311  -2.20285  -2.19789
  Beta  occ. eigenvalues --   -2.19716  -2.19517  -2.19308  -2.19223  -1.14031
  Beta  occ. eigenvalues --   -1.13996  -1.13989  -1.13962  -1.13917  -1.13900
  Beta  occ. eigenvalues --   -1.13472  -1.13446  -1.13437  -1.13420  -1.13410
  Beta  occ. eigenvalues --   -1.13393  -1.13362  -1.13200  -1.13138  -1.12962
  Beta  occ. eigenvalues --   -1.12927  -1.12907  -1.12894  -1.12858  -1.12811
  Beta  occ. eigenvalues --   -0.17608  -0.13139  -0.11685
  Beta virt. eigenvalues --   -0.07245  -0.06393  -0.04579  -0.04308  -0.02885
  Beta virt. eigenvalues --   -0.02370  -0.02219  -0.01543  -0.01215  -0.00477
  Beta virt. eigenvalues --   -0.00136   0.00186   0.00262   0.00393   0.00832

 Mulliken charges and spin densities:
               1          2
     1  Na   0.286662   0.190305
     2  Na   0.367932   0.065165
     3  Na   0.430148  -0.013382
     4  Na  -0.568871   0.376767
     5  Na   0.055564   0.285807
     6  Na  -0.435247  -0.099932
     7  Na  -0.136188   0.195271
 Sum of Mulliken charges =  -0.00000   1.00000

 Dipole moment (field-independent basis, Debye):
    X=             -0.5480    Y=             -0.1063    Z=             -0.3978  Tot=              0.6855
 Quadrupole moment (field-independent basis, Debye-Ang):
   XX=            -56.9006   YY=            -68.1949   ZZ=            -69.9714
   XY=             -2.3869   XZ=              0.3765   YZ=             -2.5210

 Normal termination of Gaussian 16 at Tue Dec  5 20:07:40 2023.
