 Gaussian 16, Revision B.01,
 Gaussian 16:  ES64L-G16RevB.01 20-Dec-2017

 -------------------------
 #P B3LYP/6-311+g(d) force
 -------------------------

 -----
 DPGEN
 -----
 Symbolic Z-matrix:
 Charge =  0 Multiplicity = 2

                         Standard orientation:
 ---------------------------------------------------------------------
 Center     Atomic      Atomic             Coordinates (Angstroms)
 Number     Number       Type             X           Y           Z
 ---------------------------------------------------------------------
      1         11           0       -0.300343   -1.512260    1.628122
      2         11           0        3.505401    1.991856   -0.306187
      3         11           0        2.628049   -1.132128    0.426100
      4         11           0        0.557094   -1.597184   -1.571227
      5         11           0       -3.176605   -1.235857   -0.491716
      6         11           0       -3.098198    2.378632    0.069678
      7         11           0       -0.115397    1.106942    0.245230
 ---------------------------------------------------------------------

 SCF Done:  E(UB3LYP) =  -1136.11355232     A.U. after   24 cycles

 The electronic state is 2-A.
 Alpha  occ. eigenvalues --  -38.45106 -38.44219 -38.44194 -38.44178 -38.43868
 Alpha  occ. eigenvalues --  -38.43616 -38.43102  -2.20897  -2.20163  -2.20009
 Alpha  occ. eigenvalues --   -2.19959  -2.19805  -2.19589  -2.19095  -1.14583
 Alpha  occ. eigenvalues --   -1.14544  -1.14520  -1.13957  -1.13831  -1.13783
 Alpha  occ. eigenvalues --   -1.13699  -1.13668  -1.13643  -1.13628  -1.13616
 Alpha  occ. eigenvalues --   -1.13590  -1.13495  -1.13437  -1.13389  -1.13351
 Alpha  occ. eigenvalues --   -1.13278  -1.13162  -1.12779  -1.12718  -1.12678
 Alpha  occ. eigenvalues --   -0.18710  -0.13877  -0.11711  -0.10382
 Alpha virt. eigenvalues --   -0.06898  -0.06206  -0.03938  -0.03296  -0.02489
 Alpha virt. eigenvalues --   -0.02283  -0.01918  -0.01660  -0.00953  -0.00296
 Alpha virt. eigenvalues --   -0.00004   0.00174   0.00381   0.00511   0.00649

  Beta  occ. eigenvalues --  -38.45082 -38.44223 -38.44179 -38.44177 -38.43818
  Beta  occ. eigenvalues --  -38.43588 -38.43031  -2.20852  -2.20141  -2.20017
  Beta  occ. eigenvalues --   -2.19957  -2.19713  -2.19544  -2.18966  -1.14542
  Beta  occ. eigenvalues --   -1.14515  -1.14487  -1.13940  -1.13790  -1.13753
  Beta  occ. eigenvalues --   -1.13703  -1.13670  -1.13649  -1.13627  -1.13610
  Beta  occ. eigenvalues --   -1.13588  -1.13437  -1.13374  -1.13321  -1.13296
  Beta  occ. eigenvalues --   -1.13223  -1.13140  -1.12693  -1.12627  -1.12575
  Beta  occ. eigenvalues --   -0.18024  -0.13650  -0.11575
  Beta virt. eigenvalues --   -0.06844  -0.06350  -0.06050  -0.03715  -0.02736
  Beta virt. eigenvalues --   -0.02350  -0.01935  -0.01590  -0.01002  -0.00869
  Beta virt. eigenvalues --   -0.00089   0.00098   0.00242   0.00494   0.00593

 Mulliken charges and spin densities:
               1          2
     1  Na   0.201182   0.114773
     2  Na   0.110240  -0.025943
     3  Na   1.756588   0.421235
     4  Na  -0.375597   0.340904
     5  Na   0.179028   0.161490
     6  Na   0.129442  -0.152458
     7  Na  -2.000884   0.140000
 Sum of Mulliken charges =  -0.00000   1.00000

 Dipole moment (field-independent basis, Debye):
    X=             -0.6402    Y=             -0.3079    Z=              0.0898  Tot=              0.7160
 Quadrupole moment (field-independent basis, Debye-Ang):
   XX=            -51.4281   YY=            -66.7936   ZZ=            -74.6862
   XY=              0.7709   XZ=              0.3080   YZ=             -1.8229

 Normal termination of Gaussian 16 at Tue Dec  5 23:59:25 2023.
