 Gaussian 16, Revision B.01,
 Gaussian 16:  ES64L-G16RevB.01 20-Dec-2017

 -------------------------
 #P B3LYP/6-311+g(d) force
 -------------------------

 -----
 DPGEN
 -----
 Symbolic Z-matrix:
 Charge =  0 Multiplicity = 2

                         Standard orientation:
 ---------------------------------------------------------------------
 Center     Atomic      Atomic             Coordinates (Angstroms)
 Number     Number       Type             X           Y           Z
 ---------------------------------------------------------------------
      1         11           0       -0.175533    0.137900   -1.566333
      2         11           0        0.056961    3.169575   -0.350216
      3         11           0       -0.044060    0.095344    2.102468
      4         11           0       -2.151644   -2.257143   -0.369233
      5         11           0        3.428281    0.492839   -0.055631
      6         11           0        1.605026   -2.579399   -0.026919
      7         11           0       -2.719032    0.940884    0.265864
 ---------------------------------------------------------------------

 SCF Done:  E(UB3LYP) =  -1136.13527467     A.U. after   21 cycles

 The electronic state is 2-A.
 Alpha  occ. eigenvalues --  -38.44504 -38.43778 -38.43732 -38.43725 -38.43586
 Alpha  occ. eigenvalues --  -38.43450 -38.43161  -2.20261  -2.19627  -2.19602
 Alpha  occ. eigenvalues --   -2.19584  -2.19402  -2.19299  -2.19136  -1.13941
 Alpha  occ. eigenvalues --   -1.13910  -1.13909  -1.13347  -1.13312  -1.13267
 Alpha  occ. eigenvalues --   -1.13266  -1.13256  -1.13247  -1.13217  -1.13211
 Alpha  occ. eigenvalues --   -1.13208  -1.13100  -1.13053  -1.13035  -1.12988
 Alpha  occ. eigenvalues --   -1.12949  -1.12938  -1.12821  -1.12765  -1.12750
 Alpha  occ. eigenvalues --   -0.18391  -0.12883  -0.12356  -0.10669
 Alpha virt. eigenvalues --   -0.05883  -0.05031  -0.04952  -0.03122  -0.02791
 Alpha virt. eigenvalues --   -0.02538  -0.01606  -0.01265  -0.00552  -0.00490
 Alpha virt. eigenvalues --   -0.00013   0.00337   0.00756   0.00840   0.00867

  Beta  occ. eigenvalues --  -38.44506 -38.43775 -38.43713 -38.43631 -38.43579
  Beta  occ. eigenvalues --  -38.43442 -38.43103  -2.20268  -2.19610  -2.19582
  Beta  occ. eigenvalues --   -2.19417  -2.19391  -2.19288  -2.19031  -1.13936
  Beta  occ. eigenvalues --   -1.13915  -1.13914  -1.13329  -1.13260  -1.13255
  Beta  occ. eigenvalues --   -1.13248  -1.13246  -1.13211  -1.13140  -1.13092
  Beta  occ. eigenvalues --   -1.13082  -1.13081  -1.13037  -1.13029  -1.12972
  Beta  occ. eigenvalues --   -1.12936  -1.12925  -1.12749  -1.12690  -1.12672
  Beta  occ. eigenvalues --   -0.17662  -0.12700  -0.12107
  Beta virt. eigenvalues --   -0.06725  -0.05870  -0.04987  -0.04892  -0.02364
  Beta virt. eigenvalues --   -0.02085  -0.01573  -0.01434  -0.01178  -0.00580
  Beta virt. eigenvalues --   -0.00531   0.00133   0.00374   0.00777   0.00857

 Mulliken charges and spin densities:
               1          2
     1  Na  -0.156222   0.442330
     2  Na   0.007909  -0.086914
     3  Na  -0.372310   0.670648
     4  Na   0.106157  -0.018326
     5  Na  -0.073929  -0.101826
     6  Na   0.016747  -0.052835
     7  Na   0.471649   0.146923
 Sum of Mulliken charges =  -0.00000   1.00000

 Dipole moment (field-independent basis, Debye):
    X=              0.3878    Y=              0.0805    Z=              0.1507  Tot=              0.4238
 Quadrupole moment (field-independent basis, Debye-Ang):
   XX=            -56.9312   YY=            -60.8267   ZZ=            -75.2611
   XY=              1.1507   XZ=             -0.1978   YZ=              0.2030

 Normal termination of Gaussian 16 at Thu Dec  7 14:41:07 2023.
