 Gaussian 16, Revision B.01,
 Gaussian 16:  ES64L-G16RevB.01 20-Dec-2017

 -------------------------
 #P B3LYP/6-311+g(d) force
 -------------------------

 -----
 DPGEN
 -----
 Symbolic Z-matrix:
 Charge =  0 Multiplicity = 2

                         Standard orientation:
 ---------------------------------------------------------------------
 Center     Atomic      Atomic             Coordinates (Angstroms)
 Number     Number       Type             X           Y           Z
 ---------------------------------------------------------------------
      1         11           0        2.556935   -1.680815   -0.332995
      2         11           0       -0.023354    0.064247   -1.595890
      3         11           0        2.831913    1.618670   -0.251272
      4         11           0       -1.315665    2.664028    0.413771
      5         11           0       -3.038386   -0.039809   -0.567398
      6         11           0       -1.351574   -2.360109    0.264602
      7         11           0        0.340132   -0.266212    2.069182
 ---------------------------------------------------------------------

 SCF Done:  E(UB3LYP) =  -1136.13189865     A.U. after   20 cycles

 The electronic state is 2-A.
 Alpha  occ. eigenvalues --  -38.44311 -38.44011 -38.43998 -38.43706 -38.43455
 Alpha  occ. eigenvalues --  -38.43193 -38.43018  -2.20124  -2.19932  -2.19853
 Alpha  occ. eigenvalues --   -2.19609  -2.19441  -2.19016  -2.18943  -1.13800
 Alpha  occ. eigenvalues --   -1.13790  -1.13764  -1.13647  -1.13601  -1.13556
 Alpha  occ. eigenvalues --   -1.13539  -1.13514  -1.13475  -1.13285  -1.13236
 Alpha  occ. eigenvalues --   -1.13221  -1.13130  -1.13076  -1.13071  -1.12686
 Alpha  occ. eigenvalues --   -1.12677  -1.12659  -1.12625  -1.12595  -1.12574
 Alpha  occ. eigenvalues --   -0.18810  -0.13639  -0.11886  -0.11022
 Alpha virt. eigenvalues --   -0.05829  -0.05383  -0.04149  -0.03471  -0.02815
 Alpha virt. eigenvalues --   -0.02649  -0.01730  -0.01095  -0.00361  -0.00072
 Alpha virt. eigenvalues --    0.00013   0.00352   0.00719   0.00842   0.00911

  Beta  occ. eigenvalues --  -38.44308 -38.43998 -38.43990 -38.43606 -38.43402
  Beta  occ. eigenvalues --  -38.43185 -38.43009  -2.20120  -2.19910  -2.19840
  Beta  occ. eigenvalues --   -2.19425  -2.19345  -2.19005  -2.18932  -1.13792
  Beta  occ. eigenvalues --   -1.13785  -1.13756  -1.13633  -1.13578  -1.13533
  Beta  occ. eigenvalues --   -1.13523  -1.13499  -1.13460  -1.13166  -1.13108
  Beta  occ. eigenvalues --   -1.13087  -1.13062  -1.13004  -1.13000  -1.12679
  Beta  occ. eigenvalues --   -1.12659  -1.12647  -1.12621  -1.12572  -1.12546
  Beta  occ. eigenvalues --   -0.18085  -0.13363  -0.11649
  Beta virt. eigenvalues --   -0.07102  -0.05761  -0.05365  -0.04031  -0.02771
  Beta virt. eigenvalues --   -0.02046  -0.01653  -0.01576  -0.01049  -0.00338
  Beta virt. eigenvalues --   -0.00089   0.00126   0.00392   0.00810   0.00846

 Mulliken charges and spin densities:
               1          2
     1  Na   0.173030  -0.016444
     2  Na  -0.117762   0.261569
     3  Na  -0.069900  -0.037017
     4  Na  -0.150134   0.004861
     5  Na   0.337351   0.059359
     6  Na   0.208021   0.021383
     7  Na  -0.380606   0.706289
 Sum of Mulliken charges =  -0.00000   1.00000

 Dipole moment (field-independent basis, Debye):
    X=              0.5989    Y=              0.0828    Z=              0.0462  Tot=              0.6064
 Quadrupole moment (field-independent basis, Debye-Ang):
   XX=            -54.8938   YY=            -66.4861   ZZ=            -72.9141
   XY=              0.4033   XZ=             -0.0310   YZ=              0.9857

 Normal termination of Gaussian 16 at Thu Dec  7 07:42:52 2023.
