 Gaussian 16, Revision B.01,
 Gaussian 16:  ES64L-G16RevB.01 20-Dec-2017

 -------------------------
 #P B3LYP/6-311+g(d) force
 -------------------------

 -----
 DPGEN
 -----
 Symbolic Z-matrix:
 Charge =  0 Multiplicity = 2

                         Standard orientation:
 ---------------------------------------------------------------------
 Center     Atomic      Atomic             Coordinates (Angstroms)
 Number     Number       Type             X           Y           Z
 ---------------------------------------------------------------------
      1         11           0        2.394540    1.960113   -0.500642
      2         11           0       -3.956113    0.571043    0.666018
      3         11           0        1.184194   -1.716397   -0.710195
      4         11           0       -2.262817   -1.614442   -0.916243
      5         11           0       -0.306714    0.016816    2.137000
      6         11           0       -0.959948    1.460607   -1.211802
      7         11           0        3.906858   -0.677740    0.535865
 ---------------------------------------------------------------------

 SCF Done:  E(UB3LYP) =  -1136.11296692     A.U. after   29 cycles

 The electronic state is 2-A.
 Alpha  occ. eigenvalues --  -38.46276 -38.45694 -38.45432 -38.43639 -38.43083
 Alpha  occ. eigenvalues --  -38.43051 -38.42747  -2.22045  -2.21506  -2.21264
 Alpha  occ. eigenvalues --   -2.19532  -2.18966  -2.18889  -2.18628  -1.15733
 Alpha  occ. eigenvalues --   -1.15687  -1.15655  -1.15188  -1.15153  -1.15130
 Alpha  occ. eigenvalues --   -1.14941  -1.14913  -1.14900  -1.13216  -1.13182
 Alpha  occ. eigenvalues --   -1.13171  -1.12664  -1.12620  -1.12601  -1.12554
 Alpha  occ. eigenvalues --   -1.12550  -1.12533  -1.12322  -1.12288  -1.12271
 Alpha  occ. eigenvalues --   -0.18345  -0.14583  -0.11029  -0.10651
 Alpha virt. eigenvalues --   -0.08050  -0.05221  -0.04678  -0.03430  -0.03094
 Alpha virt. eigenvalues --   -0.02281  -0.02169  -0.01377  -0.01198  -0.00258
 Alpha virt. eigenvalues --   -0.00179   0.00189   0.00234   0.00602   0.00681

  Beta  occ. eigenvalues --  -38.46217 -38.45670 -38.45423 -38.43610 -38.43048
  Beta  occ. eigenvalues --  -38.43036 -38.42732  -2.21935  -2.21462  -2.21246
  Beta  occ. eigenvalues --   -2.19482  -2.18887  -2.18882  -2.18604  -1.15652
  Beta  occ. eigenvalues --   -1.15615  -1.15571  -1.15160  -1.15114  -1.15097
  Beta  occ. eigenvalues --   -1.14930  -1.14907  -1.14884  -1.13170  -1.13147
  Beta  occ. eigenvalues --   -1.13128  -1.12612  -1.12561  -1.12557  -1.12544
  Beta  occ. eigenvalues --   -1.12538  -1.12502  -1.12310  -1.12258  -1.12240
  Beta  occ. eigenvalues --   -0.17655  -0.14425  -0.10384
  Beta virt. eigenvalues --   -0.07793  -0.07210  -0.05254  -0.04078  -0.03114
  Beta virt. eigenvalues --   -0.02779  -0.01692  -0.01583  -0.01220  -0.00873
  Beta virt. eigenvalues --   -0.00216  -0.00101   0.00227   0.00388   0.00673

 Mulliken charges and spin densities:
               1          2
     1  Na  -0.280930  -0.073403
     2  Na   0.793757   0.225522
     3  Na  -0.719743  -0.007375
     4  Na  -0.050394   0.078884
     5  Na  -0.470585   0.381651
     6  Na  -0.345712   0.232347
     7  Na   1.073607   0.162374
 Sum of Mulliken charges =  -0.00000   1.00000

 Dipole moment (field-independent basis, Debye):
    X=             -0.5306    Y=             -0.0848    Z=              0.9886  Tot=              1.1252
 Quadrupole moment (field-independent basis, Debye-Ang):
   XX=            -40.6509   YY=            -82.5515   ZZ=            -70.4960
   XY=             -1.0805   XZ=              1.9929   YZ=              1.1294

 Normal termination of Gaussian 16 at Thu Dec  7 06:20:03 2023.
