 Gaussian 16, Revision B.01,
 Gaussian 16:  ES64L-G16RevB.01 20-Dec-2017

 -------------------------
 #P B3LYP/6-311+g(d) force
 -------------------------

 -----
 DPGEN
 -----
 Symbolic Z-matrix:
 Charge =  0 Multiplicity = 2

                         Standard orientation:
 ---------------------------------------------------------------------
 Center     Atomic      Atomic             Coordinates (Angstroms)
 Number     Number       Type             X           Y           Z
 ---------------------------------------------------------------------
      1         11           0        2.734102   -1.294255    0.252445
      2         11           0       -0.086714   -0.186980    1.716863
      3         11           0       -3.317679   -0.264377   -0.148907
      4         11           0       -0.795747   -2.842544   -0.168894
      5         11           0        2.410876    1.794940   -0.157331
      6         11           0        0.414264   -0.083323   -1.590867
      7         11           0       -1.359102    2.876541    0.096691
 ---------------------------------------------------------------------

 SCF Done:  E(UB3LYP) =  -1136.13400841     A.U. after   19 cycles

 The electronic state is 2-A.
 Alpha  occ. eigenvalues --  -38.44596 -38.43922 -38.43815 -38.43618 -38.43319
 Alpha  occ. eigenvalues --  -38.43059 -38.43014  -2.20381  -2.19833  -2.19710
 Alpha  occ. eigenvalues --   -2.19404  -2.19179  -2.19068  -2.18975  -1.14061
 Alpha  occ. eigenvalues --   -1.14032  -1.14021  -1.13567  -1.13495  -1.13479
 Alpha  occ. eigenvalues --   -1.13413  -1.13347  -1.13315  -1.13082  -1.13066
 Alpha  occ. eigenvalues --   -1.13046  -1.12886  -1.12857  -1.12801  -1.12772
 Alpha  occ. eigenvalues --   -1.12688  -1.12679  -1.12651  -1.12591  -1.12585
 Alpha  occ. eigenvalues --   -0.18801  -0.13336  -0.12328  -0.10269
 Alpha virt. eigenvalues --   -0.05983  -0.05272  -0.04775  -0.03149  -0.02569
 Alpha virt. eigenvalues --   -0.02034  -0.01761  -0.01186  -0.00571  -0.00495
 Alpha virt. eigenvalues --    0.00033   0.00338   0.00758   0.00851   0.00870

  Beta  occ. eigenvalues --  -38.44595 -38.43910 -38.43806 -38.43617 -38.43311
  Beta  occ. eigenvalues --  -38.42991 -38.42935  -2.20381  -2.19815  -2.19697
  Beta  occ. eigenvalues --   -2.19406  -2.19169  -2.18944  -2.18830  -1.14048
  Beta  occ. eigenvalues --   -1.14033  -1.14022  -1.13561  -1.13476  -1.13438
  Beta  occ. eigenvalues --   -1.13394  -1.13315  -1.13310  -1.13069  -1.13068
  Beta  occ. eigenvalues --   -1.13049  -1.12875  -1.12822  -1.12795  -1.12686
  Beta  occ. eigenvalues --   -1.12598  -1.12592  -1.12554  -1.12491  -1.12474
  Beta  occ. eigenvalues --   -0.18081  -0.13096  -0.12084
  Beta virt. eigenvalues --   -0.06379  -0.05942  -0.05250  -0.04757  -0.02365
  Beta virt. eigenvalues --   -0.01853  -0.01674  -0.01148  -0.01013  -0.00597
  Beta virt. eigenvalues --   -0.00550   0.00175   0.00378   0.00790   0.00860

 Mulliken charges and spin densities:
               1          2
     1  Na   0.462112   0.037841
     2  Na  -0.251948   0.707403
     3  Na  -0.098113  -0.093226
     4  Na   0.085992  -0.092909
     5  Na   0.192568  -0.031635
     6  Na  -0.259188   0.601118
     7  Na  -0.131421  -0.128592
 Sum of Mulliken charges =  -0.00000   1.00000

 Dipole moment (field-independent basis, Debye):
    X=             -0.2675    Y=             -0.0394    Z=              0.0542  Tot=              0.2757
 Quadrupole moment (field-independent basis, Debye-Ang):
   XX=            -53.1104   YY=            -61.4128   ZZ=            -77.0739
   XY=              0.1904   XZ=              1.2024   YZ=              0.1458

 Normal termination of Gaussian 16 at Thu Dec  7 02:58:04 2023.
