 Gaussian 16, Revision B.01,
 Gaussian 16:  ES64L-G16RevB.01 20-Dec-2017

 -------------------------
 #P B3LYP/6-311+g(d) force
 -------------------------

 -----
 DPGEN
 -----
 Symbolic Z-matrix:
 Charge =  0 Multiplicity = 2

                         Standard orientation:
 ---------------------------------------------------------------------
 Center     Atomic      Atomic             Coordinates (Angstroms)
 Number     Number       Type             X           Y           Z
 ---------------------------------------------------------------------
      1         11           0        0.964367   -1.612468   -1.693529
      2         11           0        3.730967   -0.644121    1.325483
      3         11           0       -0.918421    2.547413   -0.978341
      4         11           0       -2.233056   -1.997092   -0.561415
      5         11           0       -0.273105   -0.017247    1.638002
      6         11           0       -3.796153    0.398493    0.901417
      7         11           0        2.525401    1.325022   -0.631618
 ---------------------------------------------------------------------

 SCF Done:  E(UB3LYP) =  -1136.12022204     A.U. after   25 cycles

 The electronic state is 2-A.
 Alpha  occ. eigenvalues --  -38.45585 -38.44890 -38.44712 -38.43997 -38.43511
 Alpha  occ. eigenvalues --  -38.43191 -38.43054  -2.21390  -2.20707  -2.20552
 Alpha  occ. eigenvalues --   -2.19878  -2.19346  -2.19043  -2.18841  -1.15094
 Alpha  occ. eigenvalues --   -1.15040  -1.15014  -1.14388  -1.14357  -1.14322
 Alpha  occ. eigenvalues --   -1.14255  -1.14185  -1.14160  -1.13564  -1.13539
 Alpha  occ. eigenvalues --   -1.13507  -1.13016  -1.12993  -1.12972  -1.12713
 Alpha  occ. eigenvalues --   -1.12712  -1.12693  -1.12515  -1.12503  -1.12471
 Alpha  occ. eigenvalues --   -0.17826  -0.14302  -0.11164  -0.11125
 Alpha virt. eigenvalues --   -0.06946  -0.05150  -0.04951  -0.03221  -0.02894
 Alpha virt. eigenvalues --   -0.02736  -0.02226  -0.01080  -0.00916  -0.00291
 Alpha virt. eigenvalues --   -0.00044   0.00198   0.00225   0.00404   0.00809

  Beta  occ. eigenvalues --  -38.45573 -38.44865 -38.44648 -38.43983 -38.43452
  Beta  occ. eigenvalues --  -38.43191 -38.43030  -2.21367  -2.20660  -2.20433
  Beta  occ. eigenvalues --   -2.19859  -2.19239  -2.19046  -2.18799  -1.15066
  Beta  occ. eigenvalues --   -1.15032  -1.14995  -1.14358  -1.14321  -1.14294
  Beta  occ. eigenvalues --   -1.14179  -1.14099  -1.14080  -1.13535  -1.13525
  Beta  occ. eigenvalues --   -1.13475  -1.12943  -1.12914  -1.12901  -1.12720
  Beta  occ. eigenvalues --   -1.12717  -1.12665  -1.12483  -1.12477  -1.12434
  Beta  occ. eigenvalues --   -0.17250  -0.13873  -0.10762
  Beta virt. eigenvalues --   -0.07672  -0.06707  -0.04896  -0.04477  -0.02989
  Beta virt. eigenvalues --   -0.02624  -0.02261  -0.01566  -0.00893  -0.00713
  Beta virt. eigenvalues --   -0.00140   0.00094   0.00224   0.00305   0.00579

 Mulliken charges and spin densities:
               1          2
     1  Na  -0.186011   0.247933
     2  Na   0.432140   0.305192
     3  Na  -0.199280   0.118064
     4  Na  -0.169348   0.079554
     5  Na  -0.904228   0.011825
     6  Na   0.811963   0.045686
     7  Na   0.214765   0.191746
 Sum of Mulliken charges =  -0.00000   1.00000

 Dipole moment (field-independent basis, Debye):
    X=             -0.1889    Y=             -0.0932    Z=              0.6360  Tot=              0.6700
 Quadrupole moment (field-independent basis, Debye-Ang):
   XX=            -50.8721   YY=            -78.9600   ZZ=            -67.4316
   XY=             -2.0049   XZ=             -0.6072   YZ=             -2.5447

 Normal termination of Gaussian 16 at Fri Dec  8 02:59:45 2023.
