 Gaussian 16, Revision B.01,
 Gaussian 16:  ES64L-G16RevB.01 20-Dec-2017

 -------------------------
 #P B3LYP/6-311+g(d) force
 -------------------------

 -----
 DPGEN
 -----
 Symbolic Z-matrix:
 Charge =  0 Multiplicity = 2

                         Standard orientation:
 ---------------------------------------------------------------------
 Center     Atomic      Atomic             Coordinates (Angstroms)
 Number     Number       Type             X           Y           Z
 ---------------------------------------------------------------------
      1         11           0       -0.030475   -0.953943    1.855030
      2         11           0       -0.446616    2.082556   -0.348748
      3         11           0       -3.637665    1.013700    0.639426
      4         11           0        3.299312    1.439273    0.233183
      5         11           0       -2.825905   -1.757646   -0.748473
      6         11           0        3.092404   -1.622113    0.093316
      7         11           0        0.548945   -0.201827   -1.723734
 ---------------------------------------------------------------------

 SCF Done:  E(UB3LYP) =  -1136.10926182     A.U. after   33 cycles

 The electronic state is 2-A.
 Alpha  occ. eigenvalues --  -38.45520 -38.45115 -38.44833 -38.44663 -38.44128
 Alpha  occ. eigenvalues --  -38.43486 -38.42473  -2.21283  -2.20937  -2.20655
 Alpha  occ. eigenvalues --   -2.20471  -2.19987  -2.19456  -2.18378  -1.14990
 Alpha  occ. eigenvalues --   -1.14955  -1.14895  -1.14642  -1.14601  -1.14551
 Alpha  occ. eigenvalues --   -1.14352  -1.14297  -1.14289  -1.14125  -1.14122
 Alpha  occ. eigenvalues --   -1.14103  -1.13661  -1.13652  -1.13616  -1.13229
 Alpha  occ. eigenvalues --   -1.13076  -1.13032  -1.12103  -1.12037  -1.11952
 Alpha  occ. eigenvalues --   -0.18281  -0.14463  -0.10883  -0.10610
 Alpha virt. eigenvalues --   -0.07620  -0.06033  -0.04088  -0.03094  -0.03002
 Alpha virt. eigenvalues --   -0.02457  -0.02340  -0.01615  -0.00691  -0.00503
 Alpha virt. eigenvalues --   -0.00006   0.00130   0.00320   0.00514   0.00540

  Beta  occ. eigenvalues --  -38.45519 -38.45105 -38.44798 -38.44638 -38.44121
  Beta  occ. eigenvalues --  -38.43393 -38.42452  -2.21283  -2.20920  -2.20591
  Beta  occ. eigenvalues --   -2.20426  -2.19976  -2.19287  -2.18344  -1.14989
  Beta  occ. eigenvalues --   -1.14943  -1.14895  -1.14632  -1.14585  -1.14531
  Beta  occ. eigenvalues --   -1.14307  -1.14251  -1.14243  -1.14099  -1.14076
  Beta  occ. eigenvalues --   -1.14062  -1.13658  -1.13621  -1.13615  -1.13111
  Beta  occ. eigenvalues --   -1.12963  -1.12908  -1.12064  -1.11996  -1.11935
  Beta  occ. eigenvalues --   -0.17679  -0.14067  -0.10727
  Beta virt. eigenvalues --   -0.07400  -0.07004  -0.05755  -0.03571  -0.02946
  Beta virt. eigenvalues --   -0.02869  -0.01944  -0.01629  -0.01332  -0.00561
  Beta virt. eigenvalues --   -0.00260   0.00074   0.00165   0.00480   0.00598

 Mulliken charges and spin densities:
               1          2
     1  Na  -0.421906   0.130944
     2  Na  -0.274437  -0.074512
     3  Na   0.177559   0.296116
     4  Na  -0.052789   0.042741
     5  Na   0.200190  -0.046221
     6  Na   0.521854   0.038010
     7  Na  -0.150470   0.612923
 Sum of Mulliken charges =  -0.00000   1.00000

 Dipole moment (field-independent basis, Debye):
    X=              0.1096    Y=             -0.1908    Z=              0.2890  Tot=              0.3633
 Quadrupole moment (field-independent basis, Debye-Ang):
   XX=            -48.9587   YY=            -75.3667   ZZ=            -71.7074
   XY=              1.9441   XZ=              0.0348   YZ=              4.6157

 Normal termination of Gaussian 16 at Thu Dec  7 17:54:14 2023.
