 Gaussian 16, Revision B.01,
 Gaussian 16:  ES64L-G16RevB.01 20-Dec-2017

 -------------------------
 #P B3LYP/6-311+g(d) force
 -------------------------

 -----
 DPGEN
 -----
 Symbolic Z-matrix:
 Charge =  0 Multiplicity = 2

                         Standard orientation:
 ---------------------------------------------------------------------
 Center     Atomic      Atomic             Coordinates (Angstroms)
 Number     Number       Type             X           Y           Z
 ---------------------------------------------------------------------
      1         11           0       -1.957787    0.615714   -0.876157
      2         11           0        0.321242   -0.128524    2.266502
      3         11           0        3.868595   -0.808958    0.248185
      4         11           0        1.656905    0.893569   -1.162647
      5         11           0       -3.380014   -2.019309    0.254582
      6         11           0       -0.931987    3.351920    0.227043
      7         11           0        0.423045   -1.904412   -0.957508
 ---------------------------------------------------------------------

 SCF Done:  E(UB3LYP) =  -1136.12418148     A.U. after   21 cycles

 The electronic state is 2-A.
 Alpha  occ. eigenvalues --  -38.45034 -38.44445 -38.44310 -38.44100 -38.43593
 Alpha  occ. eigenvalues --  -38.42978 -38.42962  -2.20835  -2.20257  -2.20185
 Alpha  occ. eigenvalues --   -2.19884  -2.19533  -2.18922  -2.18779  -1.14537
 Alpha  occ. eigenvalues --   -1.14482  -1.14464  -1.13948  -1.13920  -1.13882
 Alpha  occ. eigenvalues --   -1.13865  -1.13854  -1.13753  -1.13584  -1.13540
 Alpha  occ. eigenvalues --   -1.13508  -1.13255  -1.13188  -1.13112  -1.12630
 Alpha  occ. eigenvalues --   -1.12613  -1.12576  -1.12435  -1.12426  -1.12394
 Alpha  occ. eigenvalues --   -0.18226  -0.13360  -0.11753  -0.10873
 Alpha virt. eigenvalues --   -0.06812  -0.04870  -0.04288  -0.03364  -0.02865
 Alpha virt. eigenvalues --   -0.02503  -0.02359  -0.01306  -0.00514  -0.00231
 Alpha virt. eigenvalues --    0.00073   0.00217   0.00558   0.00634   0.00763

  Beta  occ. eigenvalues --  -38.45036 -38.44335 -38.44278 -38.44105 -38.43557
  Beta  occ. eigenvalues --  -38.42965 -38.42964  -2.20841  -2.20132  -2.20052
  Beta  occ. eigenvalues --   -2.19896  -2.19471  -2.18898  -2.18786  -1.14541
  Beta  occ. eigenvalues --   -1.14474  -1.14466  -1.13907  -1.13802  -1.13772
  Beta  occ. eigenvalues --   -1.13738  -1.13721  -1.13717  -1.13593  -1.13541
  Beta  occ. eigenvalues --   -1.13516  -1.13209  -1.13130  -1.13068  -1.12606
  Beta  occ. eigenvalues --   -1.12603  -1.12552  -1.12438  -1.12420  -1.12395
  Beta  occ. eigenvalues --   -0.17449  -0.13262  -0.11656
  Beta virt. eigenvalues --   -0.06829  -0.06589  -0.04807  -0.04222  -0.02821
  Beta virt. eigenvalues --   -0.02253  -0.01934  -0.01721  -0.01190  -0.00327
  Beta virt. eigenvalues --   -0.00213   0.00144   0.00272   0.00674   0.00693

 Mulliken charges and spin densities:
               1          2
     1  Na  -0.325784   0.206309
     2  Na  -0.622516   0.783720
     3  Na   0.357226  -0.044349
     4  Na  -0.115942   0.199457
     5  Na   0.355561  -0.083980
     6  Na   0.279240  -0.141180
     7  Na   0.072214   0.080023
 Sum of Mulliken charges =  -0.00000   1.00000

 Dipole moment (field-independent basis, Debye):
    X=              1.0108    Y=             -0.6595    Z=              0.4477  Tot=              1.2873
 Quadrupole moment (field-independent basis, Debye-Ang):
   XX=            -51.7112   YY=            -66.9869   ZZ=            -73.6260
   XY=             -0.2459   XZ=             -0.4913   YZ=              0.0754

 Normal termination of Gaussian 16 at Thu Dec  7 19:00:08 2023.
