 Gaussian 16, Revision B.01,
 Gaussian 16:  ES64L-G16RevB.01 20-Dec-2017

 -------------------------
 #P B3LYP/6-311+g(d) force
 -------------------------

 -----
 DPGEN
 -----
 Symbolic Z-matrix:
 Charge =  0 Multiplicity = 2

                         Standard orientation:
 ---------------------------------------------------------------------
 Center     Atomic      Atomic             Coordinates (Angstroms)
 Number     Number       Type             X           Y           Z
 ---------------------------------------------------------------------
      1         11           0        1.631303    1.062265   -1.416456
      2         11           0        0.812750    1.992670    1.805114
      3         11           0       -2.503388   -2.447685    0.858994
      4         11           0       -2.234871    2.659060    0.089245
      5         11           0        4.536739   -0.729829   -0.522894
      6         11           0       -3.207548   -0.532410   -1.522126
      7         11           0        0.965015   -2.004071    0.708122
 ---------------------------------------------------------------------

 SCF Done:  E(UB3LYP) =  -1136.11833967     A.U. after   20 cycles

 The electronic state is 2-A.
 Alpha  occ. eigenvalues --  -38.45265 -38.44584 -38.44195 -38.44120 -38.44033
 Alpha  occ. eigenvalues --  -38.43882 -38.43581  -2.21054  -2.20361  -2.19985
 Alpha  occ. eigenvalues --   -2.19880  -2.19843  -2.19702  -2.19395  -1.14754
 Alpha  occ. eigenvalues --   -1.14737  -1.14648  -1.14022  -1.14020  -1.13974
 Alpha  occ. eigenvalues --   -1.13675  -1.13661  -1.13584  -1.13569  -1.13547
 Alpha  occ. eigenvalues --   -1.13523  -1.13505  -1.13492  -1.13449  -1.13389
 Alpha  occ. eigenvalues --   -1.13355  -1.13332  -1.13054  -1.13049  -1.13043
 Alpha  occ. eigenvalues --   -0.16739  -0.13595  -0.12105  -0.10600
 Alpha virt. eigenvalues --   -0.06377  -0.05764  -0.04971  -0.03284  -0.02969
 Alpha virt. eigenvalues --   -0.02573  -0.02231  -0.01396  -0.00583  -0.00515
 Alpha virt. eigenvalues --   -0.00235  -0.00009   0.00068   0.00330   0.00633

  Beta  occ. eigenvalues --  -38.45256 -38.44543 -38.44152 -38.44119 -38.43984
  Beta  occ. eigenvalues --  -38.43839 -38.43578  -2.21040  -2.20285  -2.19908
  Beta  occ. eigenvalues --   -2.19880  -2.19751  -2.19621  -2.19394  -1.14745
  Beta  occ. eigenvalues --   -1.14720  -1.14632  -1.13970  -1.13961  -1.13926
  Beta  occ. eigenvalues --   -1.13625  -1.13601  -1.13569  -1.13547  -1.13523
  Beta  occ. eigenvalues --   -1.13504  -1.13442  -1.13428  -1.13394  -1.13343
  Beta  occ. eigenvalues --   -1.13300  -1.13274  -1.13055  -1.13049  -1.13016
  Beta  occ. eigenvalues --   -0.16226  -0.13108  -0.11808
  Beta virt. eigenvalues --   -0.07304  -0.06173  -0.05507  -0.04331  -0.03080
  Beta virt. eigenvalues --   -0.02622  -0.02341  -0.01733  -0.01271  -0.00399
  Beta virt. eigenvalues --   -0.00315  -0.00004   0.00124   0.00198   0.00465

 Mulliken charges and spin densities:
               1          2
     1  Na  -0.139637   0.050014
     2  Na   0.219960   0.261525
     3  Na   0.103053  -0.181626
     4  Na  -0.068508   0.014773
     5  Na   0.386529   0.236292
     6  Na  -0.008259   0.323981
     7  Na  -0.493137   0.295042
 Sum of Mulliken charges =  -0.00000   1.00000

 Dipole moment (field-independent basis, Debye):
    X=              1.0577    Y=              0.3708    Z=              0.1728  Tot=              1.1341
 Quadrupole moment (field-independent basis, Debye-Ang):
   XX=            -60.8137   YY=            -72.2316   ZZ=            -66.8022
   XY=             -1.6111   XZ=              1.2996   YZ=             -1.2798

 Normal termination of Gaussian 16 at Sun Dec  3 22:49:38 2023.
