 Gaussian 16, Revision B.01,
 Gaussian 16:  ES64L-G16RevB.01 20-Dec-2017

 -------------------------
 #P B3LYP/6-311+g(d) force
 -------------------------

 -----
 DPGEN
 -----
 Symbolic Z-matrix:
 Charge =  0 Multiplicity = 2

                         Standard orientation:
 ---------------------------------------------------------------------
 Center     Atomic      Atomic             Coordinates (Angstroms)
 Number     Number       Type             X           Y           Z
 ---------------------------------------------------------------------
      1         11           0       -0.244761    1.727215    0.403357
      2         11           0        2.977970   -0.178594    0.269457
      3         11           0       -0.734549   -1.713563   -1.060912
      4         11           0       -2.923185   -0.060490    1.775372
      5         11           0       -3.923153    0.157006   -1.113277
      6         11           0        2.428676   -3.151691    0.204340
      7         11           0        2.419003    3.220117   -0.478336
 ---------------------------------------------------------------------

 SCF Done:  E(UB3LYP) =  -1136.12082112     A.U. after   23 cycles

 The electronic state is 2-A.
 Alpha  occ. eigenvalues --  -38.45054 -38.44655 -38.44425 -38.44144 -38.43718
 Alpha  occ. eigenvalues --  -38.43478 -38.43467  -2.20883  -2.20452  -2.20281
 Alpha  occ. eigenvalues --   -2.19996  -2.19606  -2.19311  -2.19303  -1.14579
 Alpha  occ. eigenvalues --   -1.14533  -1.14508  -1.14160  -1.14140  -1.14024
 Alpha  occ. eigenvalues --   -1.13973  -1.13956  -1.13924  -1.13705  -1.13687
 Alpha  occ. eigenvalues --   -1.13608  -1.13270  -1.13239  -1.13223  -1.12992
 Alpha  occ. eigenvalues --   -1.12980  -1.12959  -1.12948  -1.12941  -1.12926
 Alpha  occ. eigenvalues --   -0.17364  -0.14321  -0.12523  -0.09892
 Alpha virt. eigenvalues --   -0.06973  -0.05311  -0.05027  -0.03578  -0.02785
 Alpha virt. eigenvalues --   -0.02347  -0.01717  -0.01649  -0.01128  -0.00614
 Alpha virt. eigenvalues --   -0.00099   0.00098   0.00347   0.00467   0.00571

  Beta  occ. eigenvalues --  -38.45028 -38.44613 -38.44419 -38.44127 -38.43650
  Beta  occ. eigenvalues --  -38.43470 -38.43462  -2.20840  -2.20376  -2.20272
  Beta  occ. eigenvalues --   -2.19970  -2.19479  -2.19297  -2.19294  -1.14543
  Beta  occ. eigenvalues --   -1.14500  -1.14461  -1.14110  -1.14082  -1.13966
  Beta  occ. eigenvalues --   -1.13961  -1.13951  -1.13913  -1.13691  -1.13652
  Beta  occ. eigenvalues --   -1.13578  -1.13184  -1.13148  -1.13131  -1.12983
  Beta  occ. eigenvalues --   -1.12969  -1.12948  -1.12941  -1.12932  -1.12922
  Beta  occ. eigenvalues --   -0.16875  -0.14008  -0.12352
  Beta virt. eigenvalues --   -0.06783  -0.06121  -0.05006  -0.04982  -0.03213
  Beta virt. eigenvalues --   -0.02659  -0.01847  -0.01595  -0.01163  -0.01017
  Beta virt. eigenvalues --   -0.00209   0.00123   0.00233   0.00529   0.00639

 Mulliken charges and spin densities:
               1          2
     1  Na  -1.693012   0.341149
     2  Na  -0.511424   0.004379
     3  Na  -0.503653   0.285656
     4  Na   1.191853   0.109818
     5  Na   0.548061   0.102837
     6  Na   0.405879   0.047918
     7  Na   0.562297   0.108243
 Sum of Mulliken charges =  -0.00000   1.00000

 Dipole moment (field-independent basis, Debye):
    X=             -0.2265    Y=              0.0956    Z=             -0.3360  Tot=              0.4164
 Quadrupole moment (field-independent basis, Debye-Ang):
   XX=            -53.8184   YY=            -65.5612   ZZ=            -76.3655
   XY=              0.2538   XZ=              1.7136   YZ=             -4.9176

 Normal termination of Gaussian 16 at Wed Nov 29 02:37:00 2023.
