 Gaussian 16, Revision B.01,
 Gaussian 16:  ES64L-G16RevB.01 20-Dec-2017

 -------------------------
 #P B3LYP/6-311+g(d) force
 -------------------------

 -----
 DPGEN
 -----
 Symbolic Z-matrix:
 Charge =  0 Multiplicity = 2

                         Standard orientation:
 ---------------------------------------------------------------------
 Center     Atomic      Atomic             Coordinates (Angstroms)
 Number     Number       Type             X           Y           Z
 ---------------------------------------------------------------------
      1         11           0       -0.348966   -1.657337    1.060496
      2         11           0       -7.752023    1.864772    0.344784
      3         11           0       -4.724195    1.212297   -0.614337
      4         11           0       -3.186865   -1.963644   -0.451114
      5         11           0        2.735833   -2.074424   -0.130267
      6         11           0        7.252967    2.643733    0.261521
      7         11           0        6.023249   -0.025397   -0.471083
 ---------------------------------------------------------------------

 SCF Done:  E(UB3LYP) =  -1136.10788054     A.U. after   18 cycles

 The electronic state is 2-A.
 Alpha  occ. eigenvalues --  -38.44863 -38.44752 -38.44588 -38.44486 -38.44263
 Alpha  occ. eigenvalues --  -38.44251 -38.43895  -2.20685  -2.20542  -2.20389
 Alpha  occ. eigenvalues --   -2.20297  -2.20064  -2.20036  -2.19691  -1.14339
 Alpha  occ. eigenvalues --   -1.14331  -1.14310  -1.14187  -1.14185  -1.14179
 Alpha  occ. eigenvalues --   -1.14040  -1.14036  -1.14009  -1.13980  -1.13933
 Alpha  occ. eigenvalues --   -1.13932  -1.13740  -1.13734  -1.13720  -1.13717
 Alpha  occ. eigenvalues --   -1.13709  -1.13683  -1.13360  -1.13357  -1.13342
 Alpha  occ. eigenvalues --   -0.15413  -0.14195  -0.13001  -0.11428
 Alpha virt. eigenvalues --   -0.06880  -0.05259  -0.04293  -0.03340  -0.02994
 Alpha virt. eigenvalues --   -0.02757  -0.02352  -0.02186  -0.01543  -0.01171
 Alpha virt. eigenvalues --   -0.00842  -0.00463  -0.00131   0.00322   0.00504

  Beta  occ. eigenvalues --  -38.44796 -38.44689 -38.44505 -38.44439 -38.44278
  Beta  occ. eigenvalues --  -38.44263 -38.43903  -2.20561  -2.20425  -2.20234
  Beta  occ. eigenvalues --   -2.20210  -2.20098  -2.20064  -2.19711  -1.14257
  Beta  occ. eigenvalues --   -1.14246  -1.14234  -1.14107  -1.14104  -1.14103
  Beta  occ. eigenvalues --   -1.13938  -1.13931  -1.13925  -1.13912  -1.13873
  Beta  occ. eigenvalues --   -1.13872  -1.13766  -1.13761  -1.13739  -1.13732
  Beta  occ. eigenvalues --   -1.13698  -1.13666  -1.13375  -1.13374  -1.13324
  Beta  occ. eigenvalues --   -0.14812  -0.13536  -0.12399
  Beta virt. eigenvalues --   -0.08425  -0.06377  -0.04892  -0.04002  -0.03111
  Beta virt. eigenvalues --   -0.02819  -0.02511  -0.02191  -0.01948  -0.01253
  Beta virt. eigenvalues --   -0.00784  -0.00485  -0.00292   0.00054   0.00392

 Mulliken charges and spin densities:
               1          2
     1  Na  -0.378188  -0.070951
     2  Na   0.321267   0.278684
     3  Na  -0.294303   0.009875
     4  Na   0.119149   0.206090
     5  Na   0.247556   0.422368
     6  Na   0.348507   0.183250
     7  Na  -0.363988  -0.029316
 Sum of Mulliken charges =  -0.00000   1.00000

 Dipole moment (field-independent basis, Debye):
    X=             -1.0958    Y=              0.2603    Z=              0.1663  Tot=              1.1385
 Quadrupole moment (field-independent basis, Debye-Ang):
   XX=            -56.9017   YY=            -63.7730   ZZ=            -71.7030
   XY=              4.9951   XZ=             -1.3242   YZ=              3.5198

 Normal termination of Gaussian 16 at Mon Dec  4 03:57:41 2023.
