 Gaussian 16, Revision B.01,
 Gaussian 16:  ES64L-G16RevB.01 20-Dec-2017

 -------------------------
 #P B3LYP/6-311+g(d) force
 -------------------------

 -----
 DPGEN
 -----
 Symbolic Z-matrix:
 Charge =  0 Multiplicity = 2

                         Standard orientation:
 ---------------------------------------------------------------------
 Center     Atomic      Atomic             Coordinates (Angstroms)
 Number     Number       Type             X           Y           Z
 ---------------------------------------------------------------------
      1         11           0       -1.934483   -1.026618    1.489462
      2         11           0       -3.580217    2.062306   -0.284809
      3         11           0        3.261841    0.646003    0.279431
      4         11           0       -4.218104   -2.260154   -0.559464
      5         11           0        6.194049   -0.716569   -0.157197
      6         11           0       -0.418162    2.429742   -0.087520
      7         11           0        0.695077   -1.134710   -0.679903
 ---------------------------------------------------------------------

 SCF Done:  E(UB3LYP) =  -1136.11432444     A.U. after   22 cycles

 The electronic state is 2-A.
 Alpha  occ. eigenvalues --  -38.45194 -38.44626 -38.44615 -38.44224 -38.44048
 Alpha  occ. eigenvalues --  -38.43943 -38.42973  -2.21031  -2.20451  -2.20419
 Alpha  occ. eigenvalues --   -2.20045  -2.19815  -2.19772  -2.18794  -1.14705
 Alpha  occ. eigenvalues --   -1.14664  -1.14650  -1.14143  -1.14107  -1.14075
 Alpha  occ. eigenvalues --   -1.14059  -1.14054  -1.14044  -1.13705  -1.13695
 Alpha  occ. eigenvalues --   -1.13657  -1.13485  -1.13474  -1.13465  -1.13457
 Alpha  occ. eigenvalues --   -1.13451  -1.13404  -1.12482  -1.12468  -1.12432
 Alpha  occ. eigenvalues --   -0.16932  -0.14104  -0.11531  -0.11477
 Alpha virt. eigenvalues --   -0.06312  -0.05660  -0.04778  -0.03363  -0.02975
 Alpha virt. eigenvalues --   -0.02745  -0.01793  -0.01577  -0.01149  -0.00778
 Alpha virt. eigenvalues --   -0.00582  -0.00025   0.00111   0.00384   0.00548

  Beta  occ. eigenvalues --  -38.45128 -38.44614 -38.44526 -38.44162 -38.44051
  Beta  occ. eigenvalues --  -38.43946 -38.42977  -2.20910  -2.20431  -2.20255
  Beta  occ. eigenvalues --   -2.19928  -2.19821  -2.19784  -2.18805  -1.14615
  Beta  occ. eigenvalues --   -1.14592  -1.14563  -1.14118  -1.14080  -1.14070
  Beta  occ. eigenvalues --   -1.13947  -1.13942  -1.13937  -1.13626  -1.13622
  Beta  occ. eigenvalues --   -1.13574  -1.13490  -1.13476  -1.13473  -1.13465
  Beta  occ. eigenvalues --   -1.13462  -1.13368  -1.12493  -1.12481  -1.12412
  Beta  occ. eigenvalues --   -0.16301  -0.13425  -0.11201
  Beta virt. eigenvalues --   -0.08160  -0.06020  -0.05347  -0.04266  -0.03084
  Beta virt. eigenvalues --   -0.02807  -0.02383  -0.01422  -0.01338  -0.00782
  Beta virt. eigenvalues --   -0.00567  -0.00467   0.00072   0.00281   0.00464

 Mulliken charges and spin densities:
               1          2
     1  Na  -0.002211   0.071178
     2  Na   0.129743   0.305525
     3  Na  -0.330873   0.299808
     4  Na   0.156973  -0.054526
     5  Na   0.282279   0.205061
     6  Na  -0.018455   0.024366
     7  Na  -0.217457   0.148588
 Sum of Mulliken charges =  -0.00000   1.00000

 Dipole moment (field-independent basis, Debye):
    X=             -0.0804    Y=             -0.6846    Z=             -0.3775  Tot=              0.7859
 Quadrupole moment (field-independent basis, Debye-Ang):
   XX=            -59.0523   YY=            -74.5626   ZZ=            -66.8279
   XY=             -1.5738   XZ=              2.4090   YZ=              3.5682

 Normal termination of Gaussian 16 at Wed Nov 29 02:52:29 2023.
