 Gaussian 16, Revision B.01,
 Gaussian 16:  ES64L-G16RevB.01 20-Dec-2017

 -------------------------
 #P B3LYP/6-311+g(d) force
 -------------------------

 -----
 DPGEN
 -----
 Symbolic Z-matrix:
 Charge =  0 Multiplicity = 2

                         Standard orientation:
 ---------------------------------------------------------------------
 Center     Atomic      Atomic             Coordinates (Angstroms)
 Number     Number       Type             X           Y           Z
 ---------------------------------------------------------------------
      1         11           0       -0.859262    2.820272    0.254726
      2         11           0       -3.051155    0.258198   -0.398306
      3         11           0       -1.215163   -2.693314    0.140008
      4         11           0        0.407062   -0.330021    1.921235
      5         11           0        2.376537   -1.630832   -0.398708
      6         11           0        0.053890   -0.153554   -1.259826
      7         11           0        2.288092    1.729251   -0.259129
 ---------------------------------------------------------------------

 SCF Done:  E(UB3LYP) =  -1136.13287747     A.U. after   19 cycles

 The electronic state is 2-A.
 Alpha  occ. eigenvalues --  -38.43722 -38.43713 -38.43623 -38.43541 -38.43419
 Alpha  occ. eigenvalues --  -38.43209 -38.42758  -2.19653  -2.19571  -2.19501
 Alpha  occ. eigenvalues --   -2.19456  -2.19275  -2.19175  -2.18927  -1.13443
 Alpha  occ. eigenvalues --   -1.13306  -1.13271  -1.13261  -1.13228  -1.13220
 Alpha  occ. eigenvalues --   -1.13191  -1.13177  -1.13172  -1.13111  -1.13107
 Alpha  occ. eigenvalues --   -1.13082  -1.12944  -1.12938  -1.12911  -1.12877
 Alpha  occ. eigenvalues --   -1.12790  -1.12773  -1.12592  -1.12552  -1.12536
 Alpha  occ. eigenvalues --   -0.19293  -0.13137  -0.12847  -0.10582
 Alpha virt. eigenvalues --   -0.05328  -0.05094  -0.04912  -0.02921  -0.02844
 Alpha virt. eigenvalues --   -0.02195  -0.01345  -0.01229  -0.00311  -0.00154
 Alpha virt. eigenvalues --    0.00049   0.00351   0.00879   0.00894   0.00916

  Beta  occ. eigenvalues --  -38.43715 -38.43696 -38.43616 -38.43531 -38.43416
  Beta  occ. eigenvalues --  -38.43115 -38.42706  -2.19627  -2.19560  -2.19493
  Beta  occ. eigenvalues --   -2.19443  -2.19271  -2.19002  -2.18836  -1.13420
  Beta  occ. eigenvalues --   -1.13270  -1.13259  -1.13234  -1.13216  -1.13209
  Beta  occ. eigenvalues --   -1.13186  -1.13167  -1.13139  -1.13107  -1.13083
  Beta  occ. eigenvalues --   -1.13064  -1.12941  -1.12923  -1.12903  -1.12768
  Beta  occ. eigenvalues --   -1.12672  -1.12645  -1.12516  -1.12477  -1.12472
  Beta  occ. eigenvalues --   -0.18577  -0.12837  -0.12606
  Beta virt. eigenvalues --   -0.06641  -0.05303  -0.05050  -0.04865  -0.02178
  Beta virt. eigenvalues --   -0.02083  -0.01293  -0.01182  -0.01090  -0.00314
  Beta virt. eigenvalues --   -0.00203   0.00185   0.00396   0.00886   0.00912

 Mulliken charges and spin densities:
               1          2
     1  Na   0.058343   0.044941
     2  Na   0.091397   0.019729
     3  Na   0.293660   0.030754
     4  Na  -0.417917   0.723442
     5  Na   0.592829   0.069329
     6  Na  -0.908661   0.042854
     7  Na   0.290349   0.068951
 Sum of Mulliken charges =  -0.00000   1.00000

 Dipole moment (field-independent basis, Debye):
    X=             -0.0673    Y=             -0.1004    Z=              0.2921  Tot=              0.3161
 Quadrupole moment (field-independent basis, Debye-Ang):
   XX=            -57.6310   YY=            -59.1780   ZZ=            -75.2947
   XY=              0.1979   XZ=             -0.5730   YZ=              0.4527

 Normal termination of Gaussian 16 at Wed Nov 29 02:31:20 2023.
