 Gaussian 16, Revision B.01,
 Gaussian 16:  ES64L-G16RevB.01 20-Dec-2017

 -------------------------
 #P B3LYP/6-311+g(d) force
 -------------------------

 -----
 DPGEN
 -----
 Symbolic Z-matrix:
 Charge =  0 Multiplicity = 2

                         Standard orientation:
 ---------------------------------------------------------------------
 Center     Atomic      Atomic             Coordinates (Angstroms)
 Number     Number       Type             X           Y           Z
 ---------------------------------------------------------------------
      1         11           0        3.190303   -0.606604   -0.972620
      2         11           0        1.616626    2.493411   -0.575115
      3         11           0        1.510697    0.038995    2.068827
      4         11           0       -0.534054   -0.618366   -1.267204
      5         11           0       -2.108739    1.894643    0.595853
      6         11           0       -3.897247   -0.539530   -0.352858
      7         11           0        0.222414   -2.662548    0.503117
 ---------------------------------------------------------------------

 SCF Done:  E(UB3LYP) =  -1136.12408067     A.U. after   21 cycles

 The electronic state is 2-A.
 Alpha  occ. eigenvalues --  -38.44918 -38.44724 -38.43887 -38.43806 -38.43726
 Alpha  occ. eigenvalues --  -38.43210 -38.43175  -2.20726  -2.20551  -2.19762
 Alpha  occ. eigenvalues --   -2.19713  -2.19600  -2.19067  -2.19023  -1.14405
 Alpha  occ. eigenvalues --   -1.14384  -1.14360  -1.14227  -1.14199  -1.14167
 Alpha  occ. eigenvalues --   -1.13583  -1.13437  -1.13382  -1.13379  -1.13348
 Alpha  occ. eigenvalues --   -1.13341  -1.13266  -1.13240  -1.13213  -1.12761
 Alpha  occ. eigenvalues --   -1.12703  -1.12701  -1.12685  -1.12665  -1.12653
 Alpha  occ. eigenvalues --   -0.18135  -0.13779  -0.11727  -0.10632
 Alpha virt. eigenvalues --   -0.06710  -0.05188  -0.04162  -0.03388  -0.02764
 Alpha virt. eigenvalues --   -0.02510  -0.02270  -0.01108  -0.00510  -0.00283
 Alpha virt. eigenvalues --   -0.00087   0.00238   0.00432   0.00790   0.00826

  Beta  occ. eigenvalues --  -38.44917 -38.44684 -38.43880 -38.43781 -38.43640
  Beta  occ. eigenvalues --  -38.43202 -38.43163  -2.20725  -2.20479  -2.19718
  Beta  occ. eigenvalues --   -2.19701  -2.19443  -2.19049  -2.19013  -1.14404
  Beta  occ. eigenvalues --   -1.14381  -1.14359  -1.14163  -1.14152  -1.14116
  Beta  occ. eigenvalues --   -1.13554  -1.13411  -1.13366  -1.13363  -1.13331
  Beta  occ. eigenvalues --   -1.13308  -1.13156  -1.13135  -1.13097  -1.12751
  Beta  occ. eigenvalues --   -1.12694  -1.12680  -1.12657  -1.12645  -1.12638
  Beta  occ. eigenvalues --   -0.17502  -0.13551  -0.11512
  Beta virt. eigenvalues --   -0.06824  -0.06537  -0.05004  -0.04065  -0.02970
  Beta virt. eigenvalues --   -0.02386  -0.02018  -0.01353  -0.01003  -0.00402
  Beta virt. eigenvalues --   -0.00158   0.00028   0.00307   0.00566   0.00832

 Mulliken charges and spin densities:
               1          2
     1  Na   0.447185   0.184865
     2  Na  -0.184299   0.056718
     3  Na  -0.234886   0.632521
     4  Na   0.211988   0.258975
     5  Na  -0.442340  -0.060005
     6  Na   0.504490   0.010461
     7  Na  -0.302138  -0.083534
 Sum of Mulliken charges =  -0.00000   1.00000

 Dipole moment (field-independent basis, Debye):
    X=             -0.5954    Y=             -0.2803    Z=              0.0455  Tot=              0.6596
 Quadrupole moment (field-independent basis, Debye-Ang):
   XX=            -49.8253   YY=            -70.3587   ZZ=            -72.9605
   XY=              0.2147   XZ=             -0.9284   YZ=             -0.0936

 Normal termination of Gaussian 16 at Tue Dec  5 10:03:59 2023.
