 Gaussian 16, Revision B.01,
 Gaussian 16:  ES64L-G16RevB.01 20-Dec-2017

 -------------------------
 #P B3LYP/6-311+g(d) force
 -------------------------

 -----
 DPGEN
 -----
 Symbolic Z-matrix:
 Charge =  0 Multiplicity = 2

                         Standard orientation:
 ---------------------------------------------------------------------
 Center     Atomic      Atomic             Coordinates (Angstroms)
 Number     Number       Type             X           Y           Z
 ---------------------------------------------------------------------
      1         11           0       -0.509790   -0.246914   -1.707774
      2         11           0       -1.403233   -2.554319   -0.413182
      3         11           0        2.404284   -1.863145    0.104892
      4         11           0        0.111281   -0.293324    2.079306
      5         11           0       -0.434559    3.017791   -0.174156
      6         11           0        2.911395    1.349929   -0.278447
      7         11           0       -3.079378    0.589982    0.389361
 ---------------------------------------------------------------------

 SCF Done:  E(UB3LYP) =  -1136.13306774     A.U. after   20 cycles

 The electronic state is 2-A.
 Alpha  occ. eigenvalues --  -38.44219 -38.43963 -38.43875 -38.43736 -38.43604
 Alpha  occ. eigenvalues --  -38.43589 -38.43391  -2.20047  -2.19768  -2.19745
 Alpha  occ. eigenvalues --   -2.19580  -2.19573  -2.19497  -2.19190  -1.13722
 Alpha  occ. eigenvalues --   -1.13714  -1.13680  -1.13522  -1.13453  -1.13437
 Alpha  occ. eigenvalues --   -1.13415  -1.13409  -1.13378  -1.13369  -1.13246
 Alpha  occ. eigenvalues --   -1.13238  -1.13213  -1.13206  -1.13171  -1.13117
 Alpha  occ. eigenvalues --   -1.13085  -1.13041  -1.12870  -1.12855  -1.12826
 Alpha  occ. eigenvalues --   -0.18447  -0.13110  -0.12312  -0.10876
 Alpha virt. eigenvalues --   -0.05732  -0.05236  -0.04674  -0.03388  -0.02883
 Alpha virt. eigenvalues --   -0.02673  -0.01535  -0.01068  -0.00461  -0.00416
 Alpha virt. eigenvalues --   -0.00024   0.00356   0.00810   0.00861   0.00879

  Beta  occ. eigenvalues --  -38.44210 -38.43961 -38.43783 -38.43732 -38.43588
  Beta  occ. eigenvalues --  -38.43522 -38.43390  -2.20033  -2.19765  -2.19575
  Beta  occ. eigenvalues --   -2.19574  -2.19494  -2.19434  -2.19190  -1.13709
  Beta  occ. eigenvalues --   -1.13686  -1.13674  -1.13463  -1.13453  -1.13424
  Beta  occ. eigenvalues --   -1.13409  -1.13307  -1.13266  -1.13254  -1.13229
  Beta  occ. eigenvalues --   -1.13207  -1.13204  -1.13133  -1.13111  -1.13074
  Beta  occ. eigenvalues --   -1.13052  -1.12982  -1.12861  -1.12853  -1.12825
  Beta  occ. eigenvalues --   -0.17733  -0.12904  -0.12059
  Beta virt. eigenvalues --   -0.06982  -0.05657  -0.05213  -0.04599  -0.02614
  Beta virt. eigenvalues --   -0.02146  -0.01659  -0.01417  -0.00996  -0.00493
  Beta virt. eigenvalues --   -0.00454   0.00119   0.00396   0.00863   0.00868

 Mulliken charges and spin densities:
               1          2
     1  Na  -0.129482   0.515837
     2  Na   0.433014  -0.034069
     3  Na   0.203940  -0.037907
     4  Na  -0.300901   0.699171
     5  Na  -0.134047  -0.091082
     6  Na  -0.156831  -0.068630
     7  Na   0.084308   0.016680
 Sum of Mulliken charges =  -0.00000   1.00000

 Dipole moment (field-independent basis, Debye):
    X=             -0.1111    Y=             -0.0458    Z=              0.2413  Tot=              0.2696
 Quadrupole moment (field-independent basis, Debye-Ang):
   XX=            -57.0160   YY=            -63.8572   ZZ=            -73.8386
   XY=             -0.1774   XZ=             -1.6746   YZ=             -0.1125

 Normal termination of Gaussian 16 at Tue Dec  5 13:04:34 2023.
