 Gaussian 16, Revision B.01,
 Gaussian 16:  ES64L-G16RevB.01 20-Dec-2017

 -------------------------
 #P B3LYP/6-311+g(d) force
 -------------------------

 -----
 DPGEN
 -----
 Symbolic Z-matrix:
 Charge =  0 Multiplicity = 2

                         Standard orientation:
 ---------------------------------------------------------------------
 Center     Atomic      Atomic             Coordinates (Angstroms)
 Number     Number       Type             X           Y           Z
 ---------------------------------------------------------------------
      1         11           0       -3.056469   -1.196887   -0.363292
      2         11           0       -0.336342   -0.309946    1.982828
      3         11           0        0.736467   -2.630227    0.012978
      4         11           0        2.951660   -0.753607   -0.268815
      5         11           0       -2.105233    2.141825    0.181449
      6         11           0        2.117240    2.372714    0.102099
      7         11           0       -0.307322    0.376129   -1.647247
 ---------------------------------------------------------------------

 SCF Done:  E(UB3LYP) =  -1136.13111303     A.U. after   19 cycles

 The electronic state is 2-A.
 Alpha  occ. eigenvalues --  -38.44523 -38.44059 -38.43996 -38.43633 -38.43472
 Alpha  occ. eigenvalues --  -38.43403 -38.43074  -2.20342  -2.19915  -2.19893
 Alpha  occ. eigenvalues --   -2.19443  -2.19381  -2.19359  -2.18987  -1.14019
 Alpha  occ. eigenvalues --   -1.13994  -1.13981  -1.13633  -1.13630  -1.13580
 Alpha  occ. eigenvalues --   -1.13542  -1.13534  -1.13526  -1.13114  -1.13110
 Alpha  occ. eigenvalues --   -1.13085  -1.13068  -1.13036  -1.13015  -1.13009
 Alpha  occ. eigenvalues --   -1.12993  -1.12963  -1.12667  -1.12636  -1.12610
 Alpha  occ. eigenvalues --   -0.18707  -0.13564  -0.12083  -0.10696
 Alpha virt. eigenvalues --   -0.05959  -0.05577  -0.04207  -0.03431  -0.02733
 Alpha virt. eigenvalues --   -0.02437  -0.01813  -0.01181  -0.00440  -0.00194
 Alpha virt. eigenvalues --   -0.00020   0.00335   0.00735   0.00815   0.00915

  Beta  occ. eigenvalues --  -38.44512 -38.44050 -38.43992 -38.43635 -38.43378
  Beta  occ. eigenvalues --  -38.43345 -38.43068  -2.20324  -2.19904  -2.19888
  Beta  occ. eigenvalues --   -2.19448  -2.19253  -2.19208  -2.18980  -1.13993
  Beta  occ. eigenvalues --   -1.13980  -1.13966  -1.13632  -1.13622  -1.13548
  Beta  occ. eigenvalues --   -1.13541  -1.13519  -1.13512  -1.13118  -1.13101
  Beta  occ. eigenvalues --   -1.13083  -1.12979  -1.12941  -1.12930  -1.12892
  Beta  occ. eigenvalues --   -1.12883  -1.12873  -1.12664  -1.12617  -1.12588
  Beta  occ. eigenvalues --   -0.17984  -0.13322  -0.11870
  Beta virt. eigenvalues --   -0.06791  -0.05909  -0.05521  -0.04187  -0.02644
  Beta virt. eigenvalues --   -0.01998  -0.01718  -0.01398  -0.01105  -0.00472
  Beta virt. eigenvalues --   -0.00226   0.00125   0.00373   0.00801   0.00828

 Mulliken charges and spin densities:
               1          2
     1  Na   0.207383  -0.043242
     2  Na  -0.399241   0.706293
     3  Na   0.323494  -0.011823
     4  Na  -0.057699  -0.029482
     5  Na   0.108182  -0.045425
     6  Na   0.075798  -0.041976
     7  Na  -0.257917   0.465655
 Sum of Mulliken charges =  -0.00000   1.00000

 Dipole moment (field-independent basis, Debye):
    X=             -0.6429    Y=              0.1525    Z=              0.0540  Tot=              0.6630
 Quadrupole moment (field-independent basis, Debye-Ang):
   XX=            -54.2240   YY=            -65.0337   ZZ=            -74.6870
   XY=              0.8543   XZ=              0.0935   YZ=              1.8540

 Normal termination of Gaussian 16 at Tue Dec  5 23:59:45 2023.
