 Gaussian 16, Revision B.01,
 Gaussian 16:  ES64L-G16RevB.01 20-Dec-2017

 -------------------------
 #P B3LYP/6-311+g(d) force
 -------------------------

 -----
 DPGEN
 -----
 Symbolic Z-matrix:
 Charge =  0 Multiplicity = 2

                         Standard orientation:
 ---------------------------------------------------------------------
 Center     Atomic      Atomic             Coordinates (Angstroms)
 Number     Number       Type             X           Y           Z
 ---------------------------------------------------------------------
      1         11           0        3.111328   -0.541321   -0.340965
      2         11           0        1.810488    2.180328    0.097733
      3         11           0       -0.416555    0.431545   -1.565828
      4         11           0        0.474995   -2.248905   -0.295181
      5         11           0       -0.094779   -0.689072    2.248060
      6         11           0       -2.128165    2.084102    0.299421
      7         11           0       -2.757311   -1.216677   -0.443240
 ---------------------------------------------------------------------

 SCF Done:  E(UB3LYP) =  -1136.12750858     A.U. after   21 cycles

 The electronic state is 2-A.
 Alpha  occ. eigenvalues --  -38.44185 -38.44058 -38.44054 -38.43681 -38.43475
 Alpha  occ. eigenvalues --  -38.43373 -38.42754  -2.20066  -2.19950  -2.19943
 Alpha  occ. eigenvalues --   -2.19544  -2.19431  -2.19341  -2.18744  -1.13766
 Alpha  occ. eigenvalues --   -1.13735  -1.13700  -1.13678  -1.13636  -1.13596
 Alpha  occ. eigenvalues --   -1.13572  -1.13564  -1.13544  -1.13317  -1.13195
 Alpha  occ. eigenvalues --   -1.13165  -1.13116  -1.13091  -1.13028  -1.12998
 Alpha  occ. eigenvalues --   -1.12990  -1.12964  -1.12435  -1.12414  -1.12353
 Alpha  occ. eigenvalues --   -0.19158  -0.13555  -0.12135  -0.11241
 Alpha virt. eigenvalues --   -0.05749  -0.05292  -0.03870  -0.03474  -0.03121
 Alpha virt. eigenvalues --   -0.02696  -0.01641  -0.00961  -0.00100  -0.00089
 Alpha virt. eigenvalues --    0.00123   0.00340   0.00767   0.00920   0.00974

  Beta  occ. eigenvalues --  -38.44181 -38.44042 -38.43955 -38.43676 -38.43473
  Beta  occ. eigenvalues --  -38.43320 -38.42739  -2.20061  -2.19930  -2.19754
  Beta  occ. eigenvalues --   -2.19535  -2.19339  -2.19336  -2.18723  -1.13766
  Beta  occ. eigenvalues --   -1.13731  -1.13681  -1.13655  -1.13571  -1.13559
  Beta  occ. eigenvalues --   -1.13508  -1.13428  -1.13414  -1.13297  -1.13174
  Beta  occ. eigenvalues --   -1.13158  -1.13064  -1.13048  -1.12994  -1.12970
  Beta  occ. eigenvalues --   -1.12962  -1.12935  -1.12427  -1.12350  -1.12342
  Beta  occ. eigenvalues --   -0.18409  -0.13332  -0.11903
  Beta virt. eigenvalues --   -0.07218  -0.05677  -0.05275  -0.03824  -0.02709
  Beta virt. eigenvalues --   -0.02287  -0.01663  -0.01553  -0.00885  -0.00121
  Beta virt. eigenvalues --    0.00034   0.00146   0.00378   0.00847   0.00925

 Mulliken charges and spin densities:
               1          2
     1  Na  -0.072963  -0.049913
     2  Na   0.246924   0.055370
     3  Na  -0.588385   0.151086
     4  Na   0.788781   0.103483
     5  Na  -0.951640   0.643302
     6  Na   0.076326   0.097655
     7  Na   0.500956  -0.000985
 Sum of Mulliken charges =  -0.00000   1.00000

 Dipole moment (field-independent basis, Debye):
    X=             -0.1984    Y=              0.0454    Z=              0.3572  Tot=              0.4111
 Quadrupole moment (field-independent basis, Debye-Ang):
   XX=            -54.6113   YY=            -69.0317   ZZ=            -71.2841
   XY=              0.0984   XZ=             -0.6908   YZ=              2.3839

 Normal termination of Gaussian 16 at Fri Dec  8 07:24:16 2023.
