 Gaussian 16, Revision B.01,
 Gaussian 16:  ES64L-G16RevB.01 20-Dec-2017

 -------------------------
 #P B3LYP/6-311+g(d) force
 -------------------------

 -----
 DPGEN
 -----
 Symbolic Z-matrix:
 Charge =  0 Multiplicity = 2

                         Standard orientation:
 ---------------------------------------------------------------------
 Center     Atomic      Atomic             Coordinates (Angstroms)
 Number     Number       Type             X           Y           Z
 ---------------------------------------------------------------------
      1         11           0        0.225309    0.687147    2.282629
      2         11           0       -1.854252   -2.191934    0.209657
      3         11           0        0.085528    2.745266   -0.102164
      4         11           0       -3.280880    0.595679   -0.399603
      5         11           0       -0.057926   -0.432446   -1.497795
      6         11           0        2.143162   -2.215369    0.276918
      7         11           0        2.739060    0.811657   -0.769642
 ---------------------------------------------------------------------

 SCF Done:  E(UB3LYP) =  -1136.13193975     A.U. after   19 cycles

 The electronic state is 2-A.
 Alpha  occ. eigenvalues --  -38.44345 -38.43960 -38.43835 -38.43691 -38.43472
 Alpha  occ. eigenvalues --  -38.43321 -38.42888  -2.20164  -2.19824  -2.19741
 Alpha  occ. eigenvalues --   -2.19565  -2.19338  -2.19316  -2.18772  -1.13843
 Alpha  occ. eigenvalues --   -1.13830  -1.13795  -1.13487  -1.13463  -1.13451
 Alpha  occ. eigenvalues --   -1.13441  -1.13395  -1.13363  -1.13325  -1.13215
 Alpha  occ. eigenvalues --   -1.13178  -1.13028  -1.12993  -1.12979  -1.12972
 Alpha  occ. eigenvalues --   -1.12960  -1.12918  -1.12461  -1.12436  -1.12398
 Alpha  occ. eigenvalues --   -0.18649  -0.13325  -0.12194  -0.11065
 Alpha virt. eigenvalues --   -0.05747  -0.05060  -0.04335  -0.03319  -0.03180
 Alpha virt. eigenvalues --   -0.02695  -0.01666  -0.00970  -0.00229  -0.00182
 Alpha virt. eigenvalues --    0.00001   0.00336   0.00757   0.00893   0.00924

  Beta  occ. eigenvalues --  -38.44340 -38.43859 -38.43812 -38.43687 -38.43468
  Beta  occ. eigenvalues --  -38.43276 -38.42882  -2.20156  -2.19703  -2.19635
  Beta  occ. eigenvalues --   -2.19560  -2.19309  -2.19258  -2.18766  -1.13839
  Beta  occ. eigenvalues --   -1.13814  -1.13791  -1.13429  -1.13364  -1.13361
  Beta  occ. eigenvalues --   -1.13336  -1.13318  -1.13311  -1.13308  -1.13205
  Beta  occ. eigenvalues --   -1.13167  -1.13002  -1.12968  -1.12951  -1.12940
  Beta  occ. eigenvalues --   -1.12916  -1.12871  -1.12456  -1.12401  -1.12398
  Beta  occ. eigenvalues --   -0.17940  -0.13102  -0.11966
  Beta virt. eigenvalues --   -0.07111  -0.05695  -0.05009  -0.04226  -0.02652
  Beta virt. eigenvalues --   -0.02370  -0.01688  -0.01576  -0.00868  -0.00221
  Beta virt. eigenvalues --   -0.00175   0.00129   0.00381   0.00839   0.00917

 Mulliken charges and spin densities:
               1          2
     1  Na  -0.734199   0.642469
     2  Na   0.147084   0.122244
     3  Na   0.280000   0.015657
     4  Na   0.137627  -0.032990
     5  Na  -0.295937   0.075963
     6  Na   0.022309   0.135227
     7  Na   0.443117   0.041431
 Sum of Mulliken charges =  -0.00000   1.00000

 Dipole moment (field-independent basis, Debye):
    X=             -0.3287    Y=             -0.0312    Z=              0.2146  Tot=              0.3938
 Quadrupole moment (field-independent basis, Debye-Ang):
   XX=            -56.2217   YY=            -66.3165   ZZ=            -72.1363
   XY=             -1.3065   XZ=             -0.2157   YZ=             -3.0585

 Normal termination of Gaussian 16 at Thu Dec  7 13:05:15 2023.
