 Gaussian 16, Revision B.01,
 Gaussian 16:  ES64L-G16RevB.01 20-Dec-2017

 -------------------------
 #P B3LYP/6-311+g(d) force
 -------------------------

 -----
 DPGEN
 -----
 Symbolic Z-matrix:
 Charge =  0 Multiplicity = 2

                         Standard orientation:
 ---------------------------------------------------------------------
 Center     Atomic      Atomic             Coordinates (Angstroms)
 Number     Number       Type             X           Y           Z
 ---------------------------------------------------------------------
      1         11           0       -2.746579    2.193955   -0.156730
      2         11           0        5.114037   -1.260549    0.062685
      3         11           0        3.261237    1.391462    0.990948
      4         11           0        0.567947    2.357448   -0.952255
      5         11           0       -4.743452   -0.569252    0.921852
      6         11           0       -2.802992   -2.274897   -0.505787
      7         11           0        1.349802   -1.838168   -0.360714
 ---------------------------------------------------------------------

 SCF Done:  E(UB3LYP) =  -1136.11237362     A.U. after   23 cycles

 The electronic state is 2-A.
 Alpha  occ. eigenvalues --  -38.45367 -38.44825 -38.44743 -38.44509 -38.44372
 Alpha  occ. eigenvalues --  -38.43915 -38.42887  -2.21167  -2.20594  -2.20508
 Alpha  occ. eigenvalues --   -2.20315  -2.20171  -2.19767  -2.18692  -1.14854
 Alpha  occ. eigenvalues --   -1.14828  -1.14791  -1.14282  -1.14256  -1.14202
 Alpha  occ. eigenvalues --   -1.14184  -1.14183  -1.14128  -1.14042  -1.13978
 Alpha  occ. eigenvalues --   -1.13959  -1.13829  -1.13828  -1.13792  -1.13422
 Alpha  occ. eigenvalues --   -1.13407  -1.13393  -1.12365  -1.12352  -1.12337
 Alpha  occ. eigenvalues --   -0.16249  -0.14531  -0.11789  -0.10904
 Alpha virt. eigenvalues --   -0.07228  -0.05360  -0.04597  -0.03537  -0.03107
 Alpha virt. eigenvalues --   -0.02771  -0.01794  -0.01694  -0.01160  -0.00549
 Alpha virt. eigenvalues --   -0.00280  -0.00084   0.00022   0.00354   0.00555

  Beta  occ. eigenvalues --  -38.45346 -38.44751 -38.44739 -38.44503 -38.44332
  Beta  occ. eigenvalues --  -38.43894 -38.42877  -2.21130  -2.20503  -2.20459
  Beta  occ. eigenvalues --   -2.20305  -2.20097  -2.19726  -2.18674  -1.14831
  Beta  occ. eigenvalues --   -1.14800  -1.14749  -1.14199  -1.14193  -1.14181
  Beta  occ. eigenvalues --   -1.14162  -1.14116  -1.14074  -1.14029  -1.13972
  Beta  occ. eigenvalues --   -1.13940  -1.13779  -1.13767  -1.13749  -1.13402
  Beta  occ. eigenvalues --   -1.13378  -1.13358  -1.12351  -1.12341  -1.12326
  Beta  occ. eigenvalues --   -0.15671  -0.14203  -0.11634
  Beta virt. eigenvalues --   -0.07247  -0.07045  -0.04862  -0.04204  -0.03374
  Beta virt. eigenvalues --   -0.02775  -0.02360  -0.01620  -0.01459  -0.00951
  Beta virt. eigenvalues --   -0.00257  -0.00001   0.00027   0.00144   0.00452

 Mulliken charges and spin densities:
               1          2
     1  Na  -0.057206   0.147659
     2  Na   0.788527   0.361326
     3  Na   0.149844   0.157674
     4  Na  -0.212245  -0.016047
     5  Na   0.250284   0.064077
     6  Na  -0.318703  -0.211060
     7  Na  -0.600501   0.496371
 Sum of Mulliken charges =  -0.00000   1.00000

 Dipole moment (field-independent basis, Debye):
    X=              0.5988    Y=             -0.1529    Z=              0.4328  Tot=              0.7545
 Quadrupole moment (field-independent basis, Debye-Ang):
   XX=            -57.3257   YY=            -70.6254   ZZ=            -69.6498
   XY=             -1.4928   XZ=             -1.7749   YZ=              3.1471

 Normal termination of Gaussian 16 at Sun Dec  3 22:11:13 2023.
