 Gaussian 16, Revision B.01,
 Gaussian 16:  ES64L-G16RevB.01 20-Dec-2017

 -------------------------
 #P B3LYP/6-311+g(d) force
 -------------------------

 -----
 DPGEN
 -----
 Symbolic Z-matrix:
 Charge =  0 Multiplicity = 2

                         Standard orientation:
 ---------------------------------------------------------------------
 Center     Atomic      Atomic             Coordinates (Angstroms)
 Number     Number       Type             X           Y           Z
 ---------------------------------------------------------------------
      1         11           0       -3.626018   -0.973908    0.215979
      2         11           0        0.937284    1.317078   -0.679677
      3         11           0       -1.038619    0.600998    1.829380
      4         11           0       -1.061708   -2.578865   -1.209781
      5         11           0        2.126700   -1.723924    0.648419
      6         11           0        4.538406    0.481337   -0.132848
      7         11           0       -1.876045    2.877283   -0.671471
 ---------------------------------------------------------------------

 SCF Done:  E(UB3LYP) =  -1136.11786740     A.U. after   27 cycles

 The electronic state is 2-A.
 Alpha  occ. eigenvalues --  -38.45741 -38.44156 -38.44059 -38.43881 -38.43531
 Alpha  occ. eigenvalues --  -38.43454 -38.43419  -2.21578  -2.19982  -2.19883
 Alpha  occ. eigenvalues --   -2.19702  -2.19435  -2.19253  -2.19251  -1.15270
 Alpha  occ. eigenvalues --   -1.15235  -1.15198  -1.13685  -1.13656  -1.13606
 Alpha  occ. eigenvalues --   -1.13569  -1.13536  -1.13518  -1.13355  -1.13348
 Alpha  occ. eigenvalues --   -1.13309  -1.13155  -1.13098  -1.13018  -1.12950
 Alpha  occ. eigenvalues --   -1.12928  -1.12917  -1.12897  -1.12890  -1.12848
 Alpha  occ. eigenvalues --   -0.17590  -0.13812  -0.12173  -0.09911
 Alpha virt. eigenvalues --   -0.07475  -0.05423  -0.04083  -0.03523  -0.03049
 Alpha virt. eigenvalues --   -0.02629  -0.01696  -0.01570  -0.00854  -0.00549
 Alpha virt. eigenvalues --   -0.00337  -0.00080   0.00224   0.00525   0.00709

  Beta  occ. eigenvalues --  -38.45726 -38.44147 -38.44052 -38.43811 -38.43504
  Beta  occ. eigenvalues --  -38.43439 -38.43374  -2.21554  -2.19971  -2.19874
  Beta  occ. eigenvalues --   -2.19571  -2.19387  -2.19225  -2.19168  -1.15234
  Beta  occ. eigenvalues --   -1.15215  -1.15181  -1.13682  -1.13651  -1.13561
  Beta  occ. eigenvalues --   -1.13554  -1.13528  -1.13508  -1.13264  -1.13258
  Beta  occ. eigenvalues --   -1.13227  -1.13126  -1.13054  -1.12986  -1.12925
  Beta  occ. eigenvalues --   -1.12906  -1.12866  -1.12854  -1.12839  -1.12801
  Beta  occ. eigenvalues --   -0.17158  -0.13179  -0.11907
  Beta virt. eigenvalues --   -0.07261  -0.06494  -0.05348  -0.03752  -0.03153
  Beta virt. eigenvalues --   -0.02595  -0.02365  -0.01547  -0.01344  -0.00511
  Beta virt. eigenvalues --   -0.00218  -0.00128   0.00084   0.00425   0.00627

 Mulliken charges and spin densities:
               1          2
     1  Na  -0.259536   0.303901
     2  Na  -1.482297   0.075554
     3  Na   0.320803   0.185549
     4  Na   0.070687   0.016212
     5  Na   0.013578   0.068661
     6  Na   0.336843   0.417235
     7  Na   0.999922  -0.067111
 Sum of Mulliken charges =  -0.00000   1.00000

 Dipole moment (field-independent basis, Debye):
    X=             -0.1577    Y=              0.6624    Z=             -0.0751  Tot=              0.6851
 Quadrupole moment (field-independent basis, Debye-Ang):
   XX=            -70.1657   YY=            -70.3850   ZZ=            -63.7046
   XY=             -4.3862   XZ=              3.7169   YZ=             -2.2115

 Normal termination of Gaussian 16 at Sun Dec  3 21:05:09 2023.
