 Gaussian 16, Revision B.01,
 Gaussian 16:  ES64L-G16RevB.01 20-Dec-2017

 -------------------------
 #P B3LYP/6-311+g(d) force
 -------------------------

 -----
 DPGEN
 -----
 Symbolic Z-matrix:
 Charge =  0 Multiplicity = 2

                         Standard orientation:
 ---------------------------------------------------------------------
 Center     Atomic      Atomic             Coordinates (Angstroms)
 Number     Number       Type             X           Y           Z
 ---------------------------------------------------------------------
      1         11           0        1.785670   -2.665289   -0.544482
      2         11           0       -0.216683   -0.134985   -1.762097
      3         11           0       -1.375767   -1.891364    1.290693
      4         11           0       -3.490730    0.133556   -0.652857
      5         11           0        2.788233    1.196258   -0.532229
      6         11           0        0.857142    0.355368    1.939254
      7         11           0       -0.347864    3.006455    0.261717
 ---------------------------------------------------------------------

 SCF Done:  E(UB3LYP) =  -1136.13353378     A.U. after   19 cycles

 The electronic state is 2-A.
 Alpha  occ. eigenvalues --  -38.44141 -38.43814 -38.43778 -38.43772 -38.43650
 Alpha  occ. eigenvalues --  -38.43587 -38.43545  -2.19979  -2.19702  -2.19618
 Alpha  occ. eigenvalues --   -2.19569  -2.19557  -2.19449  -2.19345  -1.13685
 Alpha  occ. eigenvalues --   -1.13658  -1.13581  -1.13399  -1.13356  -1.13334
 Alpha  occ. eigenvalues --   -1.13289  -1.13271  -1.13256  -1.13242  -1.13231
 Alpha  occ. eigenvalues --   -1.13227  -1.13213  -1.13200  -1.13167  -1.13137
 Alpha  occ. eigenvalues --   -1.13086  -1.13054  -1.13024  -1.12989  -1.12986
 Alpha  occ. eigenvalues --   -0.18267  -0.12717  -0.12104  -0.11397
 Alpha virt. eigenvalues --   -0.05682  -0.05050  -0.04474  -0.03392  -0.03084
 Alpha virt. eigenvalues --   -0.02917  -0.01498  -0.01223  -0.00439  -0.00019
 Alpha virt. eigenvalues --    0.00105   0.00369   0.00596   0.00775   0.00841

  Beta  occ. eigenvalues --  -38.44131 -38.43811 -38.43771 -38.43693 -38.43589
  Beta  occ. eigenvalues --  -38.43547 -38.43541  -2.19963  -2.19614  -2.19558
  Beta  occ. eigenvalues --   -2.19557  -2.19445  -2.19379  -2.19339  -1.13667
  Beta  occ. eigenvalues --   -1.13638  -1.13568  -1.13323  -1.13288  -1.13275
  Beta  occ. eigenvalues --   -1.13241  -1.13235  -1.13231  -1.13222  -1.13205
  Beta  occ. eigenvalues --   -1.13191  -1.13164  -1.13127  -1.13089  -1.13076
  Beta  occ. eigenvalues --   -1.13033  -1.13009  -1.13006  -1.12984  -1.12973
  Beta  occ. eigenvalues --   -0.17516  -0.12513  -0.11860
  Beta virt. eigenvalues --   -0.07454  -0.05656  -0.04904  -0.04233  -0.02857
  Beta virt. eigenvalues --   -0.02414  -0.01940  -0.01379  -0.01175  -0.00270
  Beta virt. eigenvalues --    0.00021   0.00133   0.00405   0.00676   0.00848

 Mulliken charges and spin densities:
               1          2
     1  Na  -0.113793   0.010240
     2  Na  -0.060876   0.577394
     3  Na  -0.189768   0.115749
     4  Na   0.084124   0.010821
     5  Na   0.060277  -0.026646
     6  Na   0.563526   0.394384
     7  Na  -0.343490  -0.081942
 Sum of Mulliken charges =  -0.00000   1.00000

 Dipole moment (field-independent basis, Debye):
    X=              0.2532    Y=              0.2863    Z=             -0.1276  Tot=              0.4029
 Quadrupole moment (field-independent basis, Debye-Ang):
   XX=            -58.8850   YY=            -64.4289   ZZ=            -70.7960
   XY=             -0.8200   XZ=             -1.4192   YZ=             -0.8210

 Normal termination of Gaussian 16 at Tue Dec  5 23:21:16 2023.
