 Gaussian 16, Revision B.01,
 Gaussian 16:  ES64L-G16RevB.01 20-Dec-2017

 -------------------------
 #P B3LYP/6-311+g(d) force
 -------------------------

 -----
 DPGEN
 -----
 Symbolic Z-matrix:
 Charge =  0 Multiplicity = 2

                         Standard orientation:
 ---------------------------------------------------------------------
 Center     Atomic      Atomic             Coordinates (Angstroms)
 Number     Number       Type             X           Y           Z
 ---------------------------------------------------------------------
      1         11           0       -2.420851   -1.955852   -0.223853
      2         11           0        1.316968   -2.507620   -0.060610
      3         11           0       -0.611342    0.070703    2.056747
      4         11           0       -2.590394    1.181115   -0.311343
      5         11           0        0.316682    0.119721   -1.556213
      6         11           0        0.575814    3.144055   -0.055134
      7         11           0        3.413124   -0.052122    0.150406
 ---------------------------------------------------------------------

 SCF Done:  E(UB3LYP) =  -1136.13433705     A.U. after   20 cycles

 The electronic state is 2-A.
 Alpha  occ. eigenvalues --  -38.44578 -38.43860 -38.43599 -38.43541 -38.43491
 Alpha  occ. eigenvalues --  -38.43470 -38.43111  -2.20380  -2.19768  -2.19462
 Alpha  occ. eigenvalues --   -2.19431  -2.19341  -2.19290  -2.19088  -1.14049
 Alpha  occ. eigenvalues --   -1.14047  -1.14019  -1.13480  -1.13445  -1.13403
 Alpha  occ. eigenvalues --   -1.13125  -1.13122  -1.13108  -1.13086  -1.13067
 Alpha  occ. eigenvalues --   -1.13060  -1.13032  -1.12999  -1.12974  -1.12960
 Alpha  occ. eigenvalues --   -1.12950  -1.12929  -1.12772  -1.12721  -1.12704
 Alpha  occ. eigenvalues --   -0.18583  -0.13296  -0.12248  -0.10548
 Alpha virt. eigenvalues --   -0.05978  -0.05110  -0.04728  -0.03273  -0.02683
 Alpha virt. eigenvalues --   -0.02429  -0.01701  -0.01190  -0.00479  -0.00350
 Alpha virt. eigenvalues --   -0.00017   0.00344   0.00764   0.00828   0.00896

  Beta  occ. eigenvalues --  -38.44580 -38.43847 -38.43592 -38.43491 -38.43465
  Beta  occ. eigenvalues --  -38.43445 -38.43053  -2.20384  -2.19750  -2.19453
  Beta  occ. eigenvalues --   -2.19334  -2.19292  -2.19253  -2.18984  -1.14053
  Beta  occ. eigenvalues --   -1.14038  -1.14023  -1.13472  -1.13397  -1.13390
  Beta  occ. eigenvalues --   -1.13119  -1.13106  -1.13079  -1.13051  -1.12980
  Beta  occ. eigenvalues --   -1.12972  -1.12966  -1.12960  -1.12942  -1.12937
  Beta  occ. eigenvalues --   -1.12934  -1.12906  -1.12701  -1.12647  -1.12624
  Beta  occ. eigenvalues --   -0.17853  -0.13092  -0.12034
  Beta virt. eigenvalues --   -0.06625  -0.05905  -0.05094  -0.04697  -0.02522
  Beta virt. eigenvalues --   -0.01964  -0.01608  -0.01371  -0.01122  -0.00500
  Beta virt. eigenvalues --   -0.00401   0.00150   0.00379   0.00808   0.00836

 Mulliken charges and spin densities:
               1          2
     1  Na   0.189757   0.027454
     2  Na   0.143603  -0.040795
     3  Na  -0.598326   0.768771
     4  Na   0.414484   0.032422
     5  Na  -0.085309   0.393145
     6  Na  -0.042042  -0.116712
     7  Na  -0.022167  -0.064285
 Sum of Mulliken charges =  -0.00000   1.00000

 Dipole moment (field-independent basis, Debye):
    X=              0.4294    Y=              0.0572    Z=              0.1634  Tot=              0.4629
 Quadrupole moment (field-independent basis, Debye-Ang):
   XX=            -55.0678   YY=            -62.6120   ZZ=            -75.4048
   XY=              1.5874   XZ=              2.1141   YZ=              0.3580

 Normal termination of Gaussian 16 at Thu Dec  7 18:11:19 2023.
