 Gaussian 16, Revision B.01,
 Gaussian 16:  ES64L-G16RevB.01 20-Dec-2017

 -------------------------
 #P B3LYP/6-311+g(d) force
 -------------------------

 -----
 DPGEN
 -----
 Symbolic Z-matrix:
 Charge =  0 Multiplicity = 2

                         Standard orientation:
 ---------------------------------------------------------------------
 Center     Atomic      Atomic             Coordinates (Angstroms)
 Number     Number       Type             X           Y           Z
 ---------------------------------------------------------------------
      1         11           0       -0.652216   -1.265900   -1.471435
      2         11           0        2.009560    0.540737   -1.163857
      3         11           0       -3.458465   -1.141749    0.692698
      4         11           0        0.022540   -0.185880    2.092074
      5         11           0        2.758817   -2.328418    0.246867
      6         11           0        1.128000    2.891167    0.793504
      7         11           0       -1.808236    1.490044   -1.189851
 ---------------------------------------------------------------------

 SCF Done:  E(UB3LYP) =  -1136.12949823     A.U. after   21 cycles

 The electronic state is 2-A.
 Alpha  occ. eigenvalues --  -38.44564 -38.44317 -38.44123 -38.43780 -38.43507
 Alpha  occ. eigenvalues --  -38.43455 -38.42827  -2.20399  -2.20111  -2.19995
 Alpha  occ. eigenvalues --   -2.19712  -2.19439  -2.19253  -2.18671  -1.14067
 Alpha  occ. eigenvalues --   -1.14030  -1.14020  -1.13785  -1.13781  -1.13770
 Alpha  occ. eigenvalues --   -1.13742  -1.13639  -1.13574  -1.13424  -1.13356
 Alpha  occ. eigenvalues --   -1.13300  -1.13134  -1.13109  -1.13066  -1.12919
 Alpha  occ. eigenvalues --   -1.12913  -1.12880  -1.12350  -1.12332  -1.12299
 Alpha  occ. eigenvalues --   -0.18374  -0.13082  -0.11719  -0.11620
 Alpha virt. eigenvalues --   -0.05819  -0.05212  -0.04124  -0.03423  -0.03177
 Alpha virt. eigenvalues --   -0.02926  -0.01679  -0.01204  -0.00500   0.00048
 Alpha virt. eigenvalues --    0.00266   0.00326   0.00581   0.00696   0.00791

  Beta  occ. eigenvalues --  -38.44477 -38.44305 -38.44090 -38.43734 -38.43486
  Beta  occ. eigenvalues --  -38.43458 -38.42822  -2.20239  -2.20089  -2.19937
  Beta  occ. eigenvalues --   -2.19633  -2.19402  -2.19259  -2.18663  -1.13962
  Beta  occ. eigenvalues --   -1.13914  -1.13903  -1.13768  -1.13743  -1.13740
  Beta  occ. eigenvalues --   -1.13719  -1.13589  -1.13539  -1.13368  -1.13277
  Beta  occ. eigenvalues --   -1.13249  -1.13099  -1.13071  -1.13049  -1.12922
  Beta  occ. eigenvalues --   -1.12908  -1.12883  -1.12347  -1.12313  -1.12292
  Beta  occ. eigenvalues --   -0.17557  -0.12926  -0.11570
  Beta virt. eigenvalues --   -0.07626  -0.05558  -0.05055  -0.03892  -0.03019
  Beta virt. eigenvalues --   -0.02378  -0.02189  -0.01549  -0.01025  -0.00246
  Beta virt. eigenvalues --    0.00020   0.00336   0.00388   0.00735   0.00758

 Mulliken charges and spin densities:
               1          2
     1  Na  -0.055532   0.244172
     2  Na   0.229141   0.279764
     3  Na   0.123333  -0.071751
     4  Na  -0.491933   0.814097
     5  Na   0.012448  -0.187969
     6  Na   0.228740  -0.186931
     7  Na  -0.046197   0.108619
 Sum of Mulliken charges =  -0.00000   1.00000

 Dipole moment (field-independent basis, Debye):
    X=             -0.7731    Y=             -0.2634    Z=              0.3640  Tot=              0.8942
 Quadrupole moment (field-independent basis, Debye-Ang):
   XX=            -58.3852   YY=            -67.9868   ZZ=            -68.3334
   XY=              0.0318   XZ=             -0.5911   YZ=             -2.1828

 Normal termination of Gaussian 16 at Thu Dec  7 08:14:50 2023.
