 Gaussian 16, Revision B.01,
 Gaussian 16:  ES64L-G16RevB.01 20-Dec-2017

 -------------------------
 #P B3LYP/6-311+g(d) force
 -------------------------

 -----
 DPGEN
 -----
 Symbolic Z-matrix:
 Charge =  0 Multiplicity = 2

                         Standard orientation:
 ---------------------------------------------------------------------
 Center     Atomic      Atomic             Coordinates (Angstroms)
 Number     Number       Type             X           Y           Z
 ---------------------------------------------------------------------
      1         11           0        3.345139    0.403595    0.064522
      2         11           0        1.606032   -2.355359   -0.248480
      3         11           0       -0.056644    0.090674   -1.426409
      4         11           0       -0.008342    0.060143    2.137714
      5         11           0       -2.205278   -2.204401   -0.262060
      6         11           0       -2.690828    0.911862    0.168478
      7         11           0        0.009920    3.093487   -0.433765
 ---------------------------------------------------------------------

 SCF Done:  E(UB3LYP) =  -1136.13429233     A.U. after   20 cycles

 The electronic state is 2-A.
 Alpha  occ. eigenvalues --  -38.44481 -38.43752 -38.43744 -38.43559 -38.43429
 Alpha  occ. eigenvalues --  -38.43304 -38.42934  -2.20279  -2.19669  -2.19619
 Alpha  occ. eigenvalues --   -2.19429  -2.19288  -2.19140  -2.18979  -1.13950
 Alpha  occ. eigenvalues --   -1.13942  -1.13921  -1.13388  -1.13345  -1.13303
 Alpha  occ. eigenvalues --   -1.13280  -1.13237  -1.13228  -1.13146  -1.13085
 Alpha  occ. eigenvalues --   -1.13047  -1.12966  -1.12938  -1.12927  -1.12864
 Alpha  occ. eigenvalues --   -1.12785  -1.12772  -1.12660  -1.12615  -1.12583
 Alpha  occ. eigenvalues --   -0.18722  -0.13226  -0.12291  -0.10718
 Alpha virt. eigenvalues --   -0.05872  -0.04927  -0.04744  -0.03230  -0.02679
 Alpha virt. eigenvalues --   -0.02528  -0.01685  -0.01150  -0.00400  -0.00281
 Alpha virt. eigenvalues --   -0.00006   0.00341   0.00780   0.00867   0.00899

  Beta  occ. eigenvalues --  -38.44482 -38.43743 -38.43640 -38.43552 -38.43424
  Beta  occ. eigenvalues --  -38.43296 -38.42880  -2.20282  -2.19657  -2.19428
  Beta  occ. eigenvalues --   -2.19418  -2.19283  -2.19127  -2.18882  -1.13951
  Beta  occ. eigenvalues --   -1.13932  -1.13925  -1.13380  -1.13306  -1.13289
  Beta  occ. eigenvalues --   -1.13160  -1.13133  -1.13106  -1.13093  -1.13060
  Beta  occ. eigenvalues --   -1.13043  -1.12960  -1.12928  -1.12913  -1.12843
  Beta  occ. eigenvalues --   -1.12766  -1.12765  -1.12589  -1.12546  -1.12513
  Beta  occ. eigenvalues --   -0.17999  -0.13023  -0.12034
  Beta virt. eigenvalues --   -0.06764  -0.05822  -0.04915  -0.04697  -0.02444
  Beta virt. eigenvalues --   -0.01971  -0.01607  -0.01432  -0.01074  -0.00430
  Beta virt. eigenvalues --   -0.00315   0.00145   0.00373   0.00810   0.00874

 Mulliken charges and spin densities:
               1          2
     1  Na   0.069053  -0.027943
     2  Na   0.205727   0.006770
     3  Na  -0.493856   0.191939
     4  Na  -0.541067   0.673188
     5  Na   0.114418  -0.008777
     6  Na   0.526468   0.167237
     7  Na   0.119259  -0.002414
 Sum of Mulliken charges =  -0.00000   1.00000

 Dipole moment (field-independent basis, Debye):
    X=              0.4461    Y=              0.0474    Z=              0.2762  Tot=              0.5269
 Quadrupole moment (field-independent basis, Debye-Ang):
   XX=            -55.5153   YY=            -62.3147   ZZ=            -75.0591
   XY=              1.5325   XZ=              0.0233   YZ=              0.2965

 Normal termination of Gaussian 16 at Fri Dec  8 00:18:12 2023.
