 Gaussian 16, Revision B.01,
 Gaussian 16:  ES64L-G16RevB.01 20-Dec-2017

 -------------------------
 #P B3LYP/6-311+g(d) force
 -------------------------

 -----
 DPGEN
 -----
 Symbolic Z-matrix:
 Charge =  0 Multiplicity = 2

                         Standard orientation:
 ---------------------------------------------------------------------
 Center     Atomic      Atomic             Coordinates (Angstroms)
 Number     Number       Type             X           Y           Z
 ---------------------------------------------------------------------
      1         11           0       -1.581422    2.032344    0.219470
      2         11           0       -1.573681   -0.948071    1.541250
      3         11           0       -3.959996   -0.640289   -1.079841
      4         11           0        1.286887    1.148098    1.314382
      5         11           0        0.027616   -0.030289   -1.402801
      6         11           0        3.876310    0.366385   -1.032934
      7         11           0        1.924286   -1.928178    0.440473
 ---------------------------------------------------------------------

 SCF Done:  E(UB3LYP) =  -1136.11888363     A.U. after   29 cycles

 The electronic state is 2-A.
 Alpha  occ. eigenvalues --  -38.44994 -38.44786 -38.44163 -38.44019 -38.43426
 Alpha  occ. eigenvalues --  -38.43078 -38.42360  -2.20941  -2.20605  -2.20075
 Alpha  occ. eigenvalues --   -2.19929  -2.19211  -2.19034  -2.18349  -1.14674
 Alpha  occ. eigenvalues --   -1.14631  -1.14528  -1.14271  -1.14256  -1.14228
 Alpha  occ. eigenvalues --   -1.13767  -1.13741  -1.13671  -1.13626  -1.13595
 Alpha  occ. eigenvalues --   -1.13522  -1.12887  -1.12880  -1.12842  -1.12752
 Alpha  occ. eigenvalues --   -1.12693  -1.12618  -1.12054  -1.12017  -1.11956
 Alpha  occ. eigenvalues --   -0.19071  -0.14224  -0.11491  -0.10639
 Alpha virt. eigenvalues --   -0.07016  -0.05008  -0.04679  -0.03009  -0.02880
 Alpha virt. eigenvalues --   -0.02122  -0.02072  -0.01367  -0.00877  -0.00124
 Alpha virt. eigenvalues --    0.00007   0.00257   0.00387   0.00679   0.00735

  Beta  occ. eigenvalues --  -38.44968 -38.44754 -38.44112 -38.43975 -38.43427
  Beta  occ. eigenvalues --  -38.43056 -38.42346  -2.20897  -2.20546  -2.19983
  Beta  occ. eigenvalues --   -2.19853  -2.19213  -2.18994  -2.18328  -1.14618
  Beta  occ. eigenvalues --   -1.14595  -1.14495  -1.14231  -1.14211  -1.14191
  Beta  occ. eigenvalues --   -1.13706  -1.13666  -1.13598  -1.13577  -1.13544
  Beta  occ. eigenvalues --   -1.13438  -1.12890  -1.12878  -1.12844  -1.12723
  Beta  occ. eigenvalues --   -1.12662  -1.12588  -1.12046  -1.11965  -1.11939
  Beta  occ. eigenvalues --   -0.18275  -0.14019  -0.10504
  Beta virt. eigenvalues --   -0.07530  -0.06730  -0.04638  -0.04376  -0.02707
  Beta virt. eigenvalues --   -0.02552  -0.01700  -0.01491  -0.01038  -0.00617
  Beta virt. eigenvalues --   -0.00034   0.00055   0.00371   0.00431   0.00747

 Mulliken charges and spin densities:
               1          2
     1  Na   0.185343   0.015140
     2  Na  -0.151632   0.202796
     3  Na   0.046348  -0.020068
     4  Na   0.072961   0.208736
     5  Na  -0.686549   0.349282
     6  Na   0.411797   0.073556
     7  Na   0.121731   0.170557
 Sum of Mulliken charges =  -0.00000   1.00000

 Dipole moment (field-independent basis, Debye):
    X=              0.9662    Y=              0.4074    Z=              0.2502  Tot=              1.0780
 Quadrupole moment (field-independent basis, Debye-Ang):
   XX=            -55.1114   YY=            -72.8156   ZZ=            -68.8541
   XY=             -0.2244   XZ=             -1.8258   YZ=             -4.8763

 Normal termination of Gaussian 16 at Tue Dec  5 17:33:17 2023.
