 Gaussian 16, Revision B.01,
 Gaussian 16:  ES64L-G16RevB.01 20-Dec-2017

 -------------------------
 #P B3LYP/6-311+g(d) force
 -------------------------

 -----
 DPGEN
 -----
 Symbolic Z-matrix:
 Charge =  0 Multiplicity = 2

                         Standard orientation:
 ---------------------------------------------------------------------
 Center     Atomic      Atomic             Coordinates (Angstroms)
 Number     Number       Type             X           Y           Z
 ---------------------------------------------------------------------
      1         11           0       -0.436383   -2.036078   -0.147613
      2         11           0       -3.643686   -2.709865   -0.255171
      3         11           0       -3.284949    0.280935    0.220687
      4         11           0        0.260060    1.280678   -0.284261
      5         11           0        2.702967   -0.161464    1.260013
      6         11           0       -2.140400    3.642338   -0.183273
      7         11           0        6.542391   -0.296545   -0.610382
 ---------------------------------------------------------------------

 SCF Done:  E(UB3LYP) =  -1136.12061636     A.U. after   20 cycles

 The electronic state is 2-A.
 Alpha  occ. eigenvalues --  -38.45438 -38.44411 -38.44019 -38.44000 -38.43818
 Alpha  occ. eigenvalues --  -38.43453 -38.43146  -2.21216  -2.20256  -2.19891
 Alpha  occ. eigenvalues --   -2.19783  -2.19684  -2.19346  -2.18954  -1.14841
 Alpha  occ. eigenvalues --   -1.14841  -1.14815  -1.13970  -1.13944  -1.13845
 Alpha  occ. eigenvalues --   -1.13593  -1.13579  -1.13556  -1.13489  -1.13448
 Alpha  occ. eigenvalues --   -1.13423  -1.13327  -1.13322  -1.13295  -1.13059
 Alpha  occ. eigenvalues --   -1.13032  -1.12933  -1.12619  -1.12615  -1.12583
 Alpha  occ. eigenvalues --   -0.16968  -0.13673  -0.12442  -0.11563
 Alpha virt. eigenvalues --   -0.05967  -0.05270  -0.04765  -0.03872  -0.02767
 Alpha virt. eigenvalues --   -0.02165  -0.01875  -0.01594  -0.01296  -0.01021
 Alpha virt. eigenvalues --   -0.00602  -0.00017   0.00069   0.00370   0.00617

  Beta  occ. eigenvalues --  -38.45283 -38.44392 -38.44013 -38.44006 -38.43809
  Beta  occ. eigenvalues --  -38.43438 -38.43142  -2.20926  -2.20221  -2.19867
  Beta  occ. eigenvalues --   -2.19811  -2.19667  -2.19321  -2.18945  -1.14645
  Beta  occ. eigenvalues --   -1.14645  -1.14620  -1.13946  -1.13921  -1.13815
  Beta  occ. eigenvalues --   -1.13575  -1.13562  -1.13537  -1.13509  -1.13469
  Beta  occ. eigenvalues --   -1.13415  -1.13312  -1.13311  -1.13284  -1.13043
  Beta  occ. eigenvalues --   -1.13014  -1.12911  -1.12611  -1.12609  -1.12577
  Beta  occ. eigenvalues --   -0.16690  -0.13030  -0.12096
  Beta virt. eigenvalues --   -0.07608  -0.05494  -0.05171  -0.04640  -0.03625
  Beta virt. eigenvalues --   -0.02469  -0.01714  -0.01605  -0.01224  -0.00915
  Beta virt. eigenvalues --   -0.00467  -0.00337   0.00155   0.00213   0.00543

 Mulliken charges and spin densities:
               1          2
     1  Na  -0.659175   0.047897
     2  Na   0.846532   0.042142
     3  Na  -0.374627   0.171814
     4  Na  -1.304140  -0.074519
     5  Na   0.598392  -0.041419
     6  Na   0.876144   0.064079
     7  Na   0.016874   0.790006
 Sum of Mulliken charges =  -0.00000   1.00000

 Dipole moment (field-independent basis, Debye):
    X=             -0.4193    Y=             -0.7178    Z=             -0.0219  Tot=              0.8316
 Quadrupole moment (field-independent basis, Debye-Ang):
   XX=            -63.5551   YY=            -63.8618   ZZ=            -70.2524
   XY=              2.8440   XZ=             -0.5559   YZ=              0.7952

 Normal termination of Gaussian 16 at Tue Nov 28 23:22:16 2023.
