 Gaussian 16, Revision B.01,
 Gaussian 16:  ES64L-G16RevB.01 20-Dec-2017

 -------------------------
 #P B3LYP/6-311+g(d) force
 -------------------------

 -----
 DPGEN
 -----
 Symbolic Z-matrix:
 Charge =  0 Multiplicity = 2

                         Standard orientation:
 ---------------------------------------------------------------------
 Center     Atomic      Atomic             Coordinates (Angstroms)
 Number     Number       Type             X           Y           Z
 ---------------------------------------------------------------------
      1         11           0       -0.161530    0.089796    2.203539
      2         11           0       -0.021651    0.071308   -1.523631
      3         11           0       -2.307784    1.830096    0.044331
      4         11           0       -2.502538   -1.757655   -0.719504
      5         11           0        3.092543   -0.372321   -0.594807
      6         11           0        0.793915   -2.678444    0.603897
      7         11           0        1.107046    2.817220   -0.013825
 ---------------------------------------------------------------------

 SCF Done:  E(UB3LYP) =  -1136.13803300     A.U. after   19 cycles

 The electronic state is 2-A.
 Alpha  occ. eigenvalues --  -38.44057 -38.43635 -38.43630 -38.43582 -38.43551
 Alpha  occ. eigenvalues --  -38.43398 -38.43072  -2.19938  -2.19494  -2.19460
 Alpha  occ. eigenvalues --   -2.19415  -2.19392  -2.19258  -2.19095  -1.13599
 Alpha  occ. eigenvalues --   -1.13570  -1.13558  -1.13195  -1.13169  -1.13161
 Alpha  occ. eigenvalues --   -1.13127  -1.13113  -1.13105  -1.13100  -1.13094
 Alpha  occ. eigenvalues --   -1.13079  -1.13033  -1.13031  -1.13019  -1.12947
 Alpha  occ. eigenvalues --   -1.12913  -1.12879  -1.12771  -1.12723  -1.12719
 Alpha  occ. eigenvalues --   -0.18634  -0.12729  -0.12529  -0.11223
 Alpha virt. eigenvalues --   -0.05250  -0.04923  -0.04810  -0.03282  -0.03039
 Alpha virt. eigenvalues --   -0.02859  -0.01299  -0.01170  -0.00307  -0.00115
 Alpha virt. eigenvalues --    0.00041   0.00357   0.00842   0.00893   0.00923

  Beta  occ. eigenvalues --  -38.43954 -38.43631 -38.43621 -38.43581 -38.43535
  Beta  occ. eigenvalues --  -38.43384 -38.43018  -2.19749  -2.19490  -2.19445
  Beta  occ. eigenvalues --   -2.19416  -2.19364  -2.19235  -2.18998  -1.13473
  Beta  occ. eigenvalues --   -1.13437  -1.13420  -1.13190  -1.13150  -1.13142
  Beta  occ. eigenvalues --   -1.13117  -1.13100  -1.13094  -1.13084  -1.13074
  Beta  occ. eigenvalues --   -1.13073  -1.13029  -1.13009  -1.13000  -1.12923
  Beta  occ. eigenvalues --   -1.12879  -1.12870  -1.12703  -1.12659  -1.12644
  Beta  occ. eigenvalues --   -0.17916  -0.12488  -0.12248
  Beta virt. eigenvalues --   -0.07281  -0.05256  -0.04832  -0.04707  -0.02485
  Beta virt. eigenvalues --   -0.02360  -0.01814  -0.01195  -0.01113  -0.00232
  Beta virt. eigenvalues --   -0.00152   0.00129   0.00390   0.00862   0.00922

 Mulliken charges and spin densities:
               1          2
     1  Na  -0.316090   0.567045
     2  Na  -0.237446   0.238869
     3  Na   0.196561   0.029810
     4  Na   0.139475   0.031921
     5  Na   0.055904  -0.013711
     6  Na   0.153692   0.149261
     7  Na   0.007904  -0.003194
 Sum of Mulliken charges =  -0.00000   1.00000

 Dipole moment (field-independent basis, Debye):
    X=             -0.0450    Y=              0.1754    Z=              0.2536  Tot=              0.3116
 Quadrupole moment (field-independent basis, Debye-Ang):
   XX=            -59.9289   YY=            -61.7349   ZZ=            -72.1867
   XY=              0.2389   XZ=              0.0556   YZ=              0.3385

 Normal termination of Gaussian 16 at Thu Dec  7 22:24:03 2023.
