 Gaussian 16, Revision B.01,
 Gaussian 16:  ES64L-G16RevB.01 20-Dec-2017

 -------------------------
 #P B3LYP/6-311+g(d) force
 -------------------------

 -----
 DPGEN
 -----
 Symbolic Z-matrix:
 Charge =  0 Multiplicity = 2

                         Standard orientation:
 ---------------------------------------------------------------------
 Center     Atomic      Atomic             Coordinates (Angstroms)
 Number     Number       Type             X           Y           Z
 ---------------------------------------------------------------------
      1         11           0        3.612461   -0.154747   -1.202547
      2         11           0        2.071404   -0.794534    1.883133
      3         11           0       -0.063864   -0.681305   -1.238086
      4         11           0        1.037323    2.098505    0.217942
      5         11           0       -2.549706    2.759035   -0.702522
      6         11           0       -1.891648   -0.405849    2.023535
      7         11           0       -2.215970   -2.821106   -0.981455
 ---------------------------------------------------------------------

 SCF Done:  E(UB3LYP) =  -1136.12336180     A.U. after   22 cycles

 The electronic state is 2-A.
 Alpha  occ. eigenvalues --  -38.44921 -38.44610 -38.44573 -38.43747 -38.43621
 Alpha  occ. eigenvalues --  -38.43407 -38.43204  -2.20693  -2.20415  -2.20409
 Alpha  occ. eigenvalues --   -2.19589  -2.19368  -2.19329  -2.19024  -1.14370
 Alpha  occ. eigenvalues --   -1.14336  -1.14314  -1.14086  -1.14082  -1.14079
 Alpha  occ. eigenvalues --   -1.14065  -1.14048  -1.13994  -1.13325  -1.13281
 Alpha  occ. eigenvalues --   -1.13163  -1.13043  -1.13042  -1.13033  -1.13008
 Alpha  occ. eigenvalues --   -1.12992  -1.12955  -1.12689  -1.12666  -1.12638
 Alpha  occ. eigenvalues --   -0.17754  -0.13104  -0.11375  -0.11293
 Alpha virt. eigenvalues --   -0.06024  -0.05516  -0.05010  -0.03185  -0.02658
 Alpha virt. eigenvalues --   -0.02552  -0.01976  -0.01307  -0.01036  -0.00071
 Alpha virt. eigenvalues --    0.00066   0.00179   0.00257   0.00457   0.00692

  Beta  occ. eigenvalues --  -38.44876 -38.44591 -38.44512 -38.43740 -38.43617
  Beta  occ. eigenvalues --  -38.43371 -38.43190  -2.20610  -2.20380  -2.20297
  Beta  occ. eigenvalues --   -2.19580  -2.19359  -2.19265  -2.19000  -1.14309
  Beta  occ. eigenvalues --   -1.14269  -1.14261  -1.14055  -1.14047  -1.14026
  Beta  occ. eigenvalues --   -1.14002  -1.13990  -1.13913  -1.13319  -1.13247
  Beta  occ. eigenvalues --   -1.13163  -1.13035  -1.13028  -1.12994  -1.12987
  Beta  occ. eigenvalues --   -1.12954  -1.12912  -1.12661  -1.12650  -1.12625
  Beta  occ. eigenvalues --   -0.17042  -0.12941  -0.11175
  Beta virt. eigenvalues --   -0.07494  -0.05847  -0.04966  -0.04792  -0.02835
  Beta virt. eigenvalues --   -0.02198  -0.01988  -0.01816  -0.01060  -0.00682
  Beta virt. eigenvalues --    0.00045   0.00194   0.00264   0.00353   0.00550

 Mulliken charges and spin densities:
               1          2
     1  Na   0.597703   0.039918
     2  Na  -0.132103   0.361699
     3  Na  -0.431067   0.228327
     4  Na  -0.046039   0.156459
     5  Na  -0.108096  -0.019104
     6  Na   0.173779   0.191318
     7  Na  -0.054176   0.041384
 Sum of Mulliken charges =  -0.00000   1.00000

 Dipole moment (field-independent basis, Debye):
    X=              0.8320    Y=             -0.2248    Z=              0.4036  Tot=              0.9516
 Quadrupole moment (field-independent basis, Debye-Ang):
   XX=            -53.1227   YY=            -73.3765   ZZ=            -66.9803
   XY=              0.0054   XZ=             -2.9014   YZ=             -1.4336

 Normal termination of Gaussian 16 at Thu Dec  7 05:43:58 2023.
