 Gaussian 16, Revision B.01,
 Gaussian 16:  ES64L-G16RevB.01 20-Dec-2017

 -------------------------
 #P B3LYP/6-311+g(d) force
 -------------------------

 -----
 DPGEN
 -----
 Symbolic Z-matrix:
 Charge =  0 Multiplicity = 2

                         Standard orientation:
 ---------------------------------------------------------------------
 Center     Atomic      Atomic             Coordinates (Angstroms)
 Number     Number       Type             X           Y           Z
 ---------------------------------------------------------------------
      1         11           0        1.864570   -2.660725   -0.643051
      2         11           0       -1.812316   -1.840417    0.725669
      3         11           0       -4.171741   -0.372734   -0.902301
      4         11           0        3.324388    0.088328   -1.314380
      5         11           0        1.039079   -0.463616    2.057328
      6         11           0       -1.808055    2.357932   -0.255552
      7         11           0        1.564076    2.891232    0.332286
 ---------------------------------------------------------------------

 SCF Done:  E(UB3LYP) =  -1136.12464927     A.U. after   20 cycles

 The electronic state is 2-A.
 Alpha  occ. eigenvalues --  -38.44638 -38.44458 -38.44424 -38.44166 -38.44020
 Alpha  occ. eigenvalues --  -38.43924 -38.43300  -2.20393  -2.20287  -2.20261
 Alpha  occ. eigenvalues --   -2.19983  -2.19835  -2.19748  -2.19099  -1.14091
 Alpha  occ. eigenvalues --   -1.14072  -1.14011  -1.13966  -1.13941  -1.13939
 Alpha  occ. eigenvalues --   -1.13906  -1.13895  -1.13873  -1.13657  -1.13641
 Alpha  occ. eigenvalues --   -1.13610  -1.13531  -1.13488  -1.13466  -1.13434
 Alpha  occ. eigenvalues --   -1.13419  -1.13346  -1.12770  -1.12759  -1.12750
 Alpha  occ. eigenvalues --   -0.17037  -0.13804  -0.12296  -0.11026
 Alpha virt. eigenvalues --   -0.06441  -0.05493  -0.04501  -0.03725  -0.03208
 Alpha virt. eigenvalues --   -0.02222  -0.01766  -0.01370  -0.00821  -0.00678
 Alpha virt. eigenvalues --   -0.00488   0.00292   0.00338   0.00411   0.00757

  Beta  occ. eigenvalues --  -38.44639 -38.44390 -38.44348 -38.44153 -38.43987
  Beta  occ. eigenvalues --  -38.43908 -38.43297  -2.20396  -2.20162  -2.20123
  Beta  occ. eigenvalues --   -2.19963  -2.19773  -2.19723  -2.19094  -1.14094
  Beta  occ. eigenvalues --   -1.14073  -1.14006  -1.13882  -1.13857  -1.13842
  Beta  occ. eigenvalues --   -1.13815  -1.13805  -1.13771  -1.13645  -1.13629
  Beta  occ. eigenvalues --   -1.13565  -1.13492  -1.13446  -1.13426  -1.13409
  Beta  occ. eigenvalues --   -1.13404  -1.13308  -1.12764  -1.12752  -1.12744
  Beta  occ. eigenvalues --   -0.16397  -0.13243  -0.12131
  Beta virt. eigenvalues --   -0.07431  -0.06349  -0.05228  -0.04093  -0.03400
  Beta virt. eigenvalues --   -0.02599  -0.01636  -0.01605  -0.01233  -0.00819
  Beta virt. eigenvalues --   -0.00599  -0.00115   0.00417   0.00480   0.00569

 Mulliken charges and spin densities:
               1          2
     1  Na   0.191106   0.073241
     2  Na  -0.483244  -0.017782
     3  Na   0.497305   0.195345
     4  Na  -0.020427   0.304315
     5  Na   0.039182   0.408478
     6  Na  -0.212029  -0.002740
     7  Na  -0.011894   0.039143
 Sum of Mulliken charges =  -0.00000   1.00000

 Dipole moment (field-independent basis, Debye):
    X=             -0.0980    Y=             -0.2250    Z=             -0.1785  Tot=              0.3035
 Quadrupole moment (field-independent basis, Debye-Ang):
   XX=            -62.0483   YY=            -67.1321   ZZ=            -69.8511
   XY=              1.5892   XZ=              2.6897   YZ=              0.5034

 Normal termination of Gaussian 16 at Sun Dec  3 13:09:46 2023.
