 Gaussian 16, Revision B.01,
 Gaussian 16:  ES64L-G16RevB.01 20-Dec-2017

 -------------------------
 #P B3LYP/6-311+g(d) force
 -------------------------

 -----
 DPGEN
 -----
 Symbolic Z-matrix:
 Charge =  0 Multiplicity = 2

                         Standard orientation:
 ---------------------------------------------------------------------
 Center     Atomic      Atomic             Coordinates (Angstroms)
 Number     Number       Type             X           Y           Z
 ---------------------------------------------------------------------
      1         11           0        0.001539    0.176019    1.817053
      2         11           0        0.287225    3.049069   -0.702587
      3         11           0        1.447719   -2.465623   -0.026705
      4         11           0       -0.220865    0.186294   -1.818315
      5         11           0       -1.715206   -1.920340   -0.702989
      6         11           0        3.358078    0.386562    0.484630
      7         11           0       -3.158490    0.588018    0.948913
 ---------------------------------------------------------------------

 SCF Done:  E(UB3LYP) =  -1136.12759057     A.U. after   20 cycles

 The electronic state is 2-A.
 Alpha  occ. eigenvalues --  -38.44414 -38.44256 -38.43978 -38.43829 -38.43435
 Alpha  occ. eigenvalues --  -38.43256 -38.43123  -2.20199  -2.20092  -2.19885
 Alpha  occ. eigenvalues --   -2.19828  -2.19253  -2.19221  -2.18993  -1.13880
 Alpha  occ. eigenvalues --   -1.13852  -1.13831  -1.13779  -1.13743  -1.13715
 Alpha  occ. eigenvalues --   -1.13636  -1.13572  -1.13521  -1.13501  -1.13467
 Alpha  occ. eigenvalues --   -1.13419  -1.12958  -1.12902  -1.12886  -1.12873
 Alpha  occ. eigenvalues --   -1.12857  -1.12820  -1.12671  -1.12662  -1.12617
 Alpha  occ. eigenvalues --   -0.18642  -0.13019  -0.12191  -0.11471
 Alpha virt. eigenvalues --   -0.05898  -0.04731  -0.04404  -0.03337  -0.03127
 Alpha virt. eigenvalues --   -0.02802  -0.01827  -0.00963  -0.00407   0.00004
 Alpha virt. eigenvalues --    0.00056   0.00300   0.00724   0.00864   0.00910

  Beta  occ. eigenvalues --  -38.44408 -38.44221 -38.43917 -38.43746 -38.43412
  Beta  occ. eigenvalues --  -38.43237 -38.43124  -2.20188  -2.20030  -2.19774
  Beta  occ. eigenvalues --   -2.19677  -2.19215  -2.19191  -2.18997  -1.13866
  Beta  occ. eigenvalues --   -1.13844  -1.13825  -1.13722  -1.13704  -1.13671
  Beta  occ. eigenvalues --   -1.13529  -1.13496  -1.13450  -1.13410  -1.13365
  Beta  occ. eigenvalues --   -1.13318  -1.12917  -1.12863  -1.12858  -1.12850
  Beta  occ. eigenvalues --   -1.12840  -1.12780  -1.12672  -1.12663  -1.12604
  Beta  occ. eigenvalues --   -0.17956  -0.12699  -0.11839
  Beta virt. eigenvalues --   -0.07624  -0.05766  -0.04598  -0.04330  -0.02777
  Beta virt. eigenvalues --   -0.02400  -0.01877  -0.01594  -0.00876  -0.00318
  Beta virt. eigenvalues --    0.00028   0.00105   0.00358   0.00790   0.00917

 Mulliken charges and spin densities:
               1          2
     1  Na  -0.261156   0.455265
     2  Na  -0.142420  -0.009789
     3  Na  -0.171283  -0.005525
     4  Na  -0.047347   0.300229
     5  Na   0.584676   0.166377
     6  Na  -0.046415  -0.026945
     7  Na   0.083945   0.120388
 Sum of Mulliken charges =  -0.00000   1.00000

 Dipole moment (field-independent basis, Debye):
    X=              0.1510    Y=              0.2724    Z=              0.3864  Tot=              0.4963
 Quadrupole moment (field-independent basis, Debye-Ang):
   XX=            -55.9211   YY=            -66.7854   ZZ=            -71.6556
   XY=             -0.0257   XZ=             -0.6202   YZ=              0.6426

 Normal termination of Gaussian 16 at Tue Dec  5 10:50:59 2023.
