 Gaussian 16, Revision B.01,
 Gaussian 16:  ES64L-G16RevB.01 20-Dec-2017

 -------------------------
 #P B3LYP/6-311+g(d) force
 -------------------------

 -----
 DPGEN
 -----
 Symbolic Z-matrix:
 Charge =  0 Multiplicity = 2

                         Standard orientation:
 ---------------------------------------------------------------------
 Center     Atomic      Atomic             Coordinates (Angstroms)
 Number     Number       Type             X           Y           Z
 ---------------------------------------------------------------------
      1         11           0        3.283293   -1.851357   -0.228738
      2         11           0        0.084485   -0.441363   -1.603642
      3         11           0       -3.402641   -0.661814   -0.321801
      4         11           0        2.094842    2.121522   -0.010439
      5         11           0       -0.054335    0.526151    2.036747
      6         11           0       -1.054241    2.526292   -0.444594
      7         11           0       -0.951403   -2.219431    0.572467
 ---------------------------------------------------------------------

 SCF Done:  E(UB3LYP) =  -1136.12709853     A.U. after   20 cycles

 The electronic state is 2-A.
 Alpha  occ. eigenvalues --  -38.44415 -38.44052 -38.44025 -38.43670 -38.43608
 Alpha  occ. eigenvalues --  -38.43573 -38.43232  -2.20247  -2.19879  -2.19793
 Alpha  occ. eigenvalues --   -2.19594  -2.19559  -2.19519  -2.19125  -1.13955
 Alpha  occ. eigenvalues --   -1.13897  -1.13879  -1.13566  -1.13560  -1.13500
 Alpha  occ. eigenvalues --   -1.13470  -1.13458  -1.13425  -1.13395  -1.13293
 Alpha  occ. eigenvalues --   -1.13231  -1.13220  -1.13214  -1.13149  -1.13145
 Alpha  occ. eigenvalues --   -1.13115  -1.13104  -1.12803  -1.12787  -1.12745
 Alpha  occ. eigenvalues --   -0.18667  -0.13140  -0.12066  -0.10908
 Alpha virt. eigenvalues --   -0.06004  -0.05424  -0.04211  -0.03337  -0.02703
 Alpha virt. eigenvalues --   -0.02609  -0.01957  -0.01301  -0.00286  -0.00159
 Alpha virt. eigenvalues --    0.00031   0.00257   0.00689   0.00812   0.00874

  Beta  occ. eigenvalues --  -38.44411 -38.44056 -38.44021 -38.43573 -38.43554
  Beta  occ. eigenvalues --  -38.43552 -38.43218  -2.20242  -2.19874  -2.19800
  Beta  occ. eigenvalues --   -2.19488  -2.19457  -2.19415  -2.19102  -1.13953
  Beta  occ. eigenvalues --   -1.13882  -1.13872  -1.13563  -1.13537  -1.13499
  Beta  occ. eigenvalues --   -1.13469  -1.13464  -1.13430  -1.13345  -1.13194
  Beta  occ. eigenvalues --   -1.13156  -1.13117  -1.13109  -1.13089  -1.13068
  Beta  occ. eigenvalues --   -1.13054  -1.13046  -1.12788  -1.12754  -1.12722
  Beta  occ. eigenvalues --   -0.17899  -0.12936  -0.11870
  Beta virt. eigenvalues --   -0.06935  -0.05910  -0.05381  -0.04130  -0.02575
  Beta virt. eigenvalues --   -0.02104  -0.01912  -0.01538  -0.01197  -0.00316
  Beta virt. eigenvalues --   -0.00008   0.00071   0.00289   0.00752   0.00816

 Mulliken charges and spin densities:
               1          2
     1  Na   0.024520  -0.097977
     2  Na  -0.534695   0.622459
     3  Na   0.015443  -0.048995
     4  Na   0.160144  -0.061794
     5  Na  -0.211360   0.445576
     6  Na   0.065533   0.039274
     7  Na   0.480415   0.101456
 Sum of Mulliken charges =  -0.00000   1.00000

 Dipole moment (field-independent basis, Debye):
    X=             -0.1782    Y=              0.2751    Z=              0.0631  Tot=              0.3338
 Quadrupole moment (field-independent basis, Debye-Ang):
   XX=            -53.1366   YY=            -66.4757   ZZ=            -73.7267
   XY=              0.7500   XZ=              1.3354   YZ=             -1.4302

 Normal termination of Gaussian 16 at Fri Dec  8 07:09:36 2023.
