 Gaussian 16, Revision B.01,
 Gaussian 16:  ES64L-G16RevB.01 20-Dec-2017

 -------------------------
 #P B3LYP/6-311+g(d) force
 -------------------------

 -----
 DPGEN
 -----
 Symbolic Z-matrix:
 Charge =  0 Multiplicity = 2

                         Standard orientation:
 ---------------------------------------------------------------------
 Center     Atomic      Atomic             Coordinates (Angstroms)
 Number     Number       Type             X           Y           Z
 ---------------------------------------------------------------------
      1         11           0       -0.889032    0.225110    1.653392
      2         11           0        3.685633   -0.028168   -0.551978
      3         11           0       -2.132562    2.049344   -0.573643
      4         11           0       -3.552224   -1.275238   -0.178160
      5         11           0        0.099401   -0.562004   -1.657397
      6         11           0        1.194585   -2.132876    0.680689
      7         11           0        1.594199    1.723833    0.627098
 ---------------------------------------------------------------------

 SCF Done:  E(UB3LYP) =  -1136.11792352     A.U. after   25 cycles

 The electronic state is 2-A.
 Alpha  occ. eigenvalues --  -38.45191 -38.45062 -38.44485 -38.43582 -38.43121
 Alpha  occ. eigenvalues --  -38.43036 -38.42887  -2.20956  -2.20920  -2.20394
 Alpha  occ. eigenvalues --   -2.19442  -2.19062  -2.19035  -2.18829  -1.14641
 Alpha  occ. eigenvalues --   -1.14632  -1.14609  -1.14589  -1.14564  -1.14526
 Alpha  occ. eigenvalues --   -1.14135  -1.14051  -1.13982  -1.13151  -1.13121
 Alpha  occ. eigenvalues --   -1.13046  -1.12818  -1.12750  -1.12710  -1.12688
 Alpha  occ. eigenvalues --   -1.12644  -1.12625  -1.12495  -1.12488  -1.12445
 Alpha  occ. eigenvalues --   -0.18939  -0.14129  -0.11135  -0.10884
 Alpha virt. eigenvalues --   -0.07240  -0.05157  -0.04030  -0.03070  -0.02915
 Alpha virt. eigenvalues --   -0.02354  -0.02142  -0.01187  -0.00628  -0.00165
 Alpha virt. eigenvalues --    0.00090   0.00183   0.00432   0.00689   0.00794

  Beta  occ. eigenvalues --  -38.45194 -38.45038 -38.44449 -38.43571 -38.43089
  Beta  occ. eigenvalues --  -38.42957 -38.42868  -2.20963  -2.20876  -2.20327
  Beta  occ. eigenvalues --   -2.19422  -2.18980  -2.18921  -2.18800  -1.14641
  Beta  occ. eigenvalues --   -1.14609  -1.14604  -1.14594  -1.14525  -1.14497
  Beta  occ. eigenvalues --   -1.14077  -1.14008  -1.13931  -1.13135  -1.13100
  Beta  occ. eigenvalues --   -1.13027  -1.12741  -1.12697  -1.12629  -1.12601
  Beta  occ. eigenvalues --   -1.12585  -1.12541  -1.12472  -1.12441  -1.12413
  Beta  occ. eigenvalues --   -0.18205  -0.13856  -0.10910
  Beta virt. eigenvalues --   -0.07178  -0.06887  -0.05100  -0.03512  -0.02896
  Beta virt. eigenvalues --   -0.02671  -0.01735  -0.01304  -0.01111  -0.00379
  Beta virt. eigenvalues --   -0.00056   0.00136   0.00186   0.00570   0.00752

 Mulliken charges and spin densities:
               1          2
     1  Na   0.437121   0.268575
     2  Na   0.471148   0.189934
     3  Na  -0.119095   0.188264
     4  Na   0.029680  -0.036336
     5  Na  -0.289612   0.427519
     6  Na  -0.140108  -0.012118
     7  Na  -0.389134  -0.025839
 Sum of Mulliken charges =  -0.00000   1.00000

 Dipole moment (field-independent basis, Debye):
    X=             -0.3250    Y=             -0.3740    Z=             -0.3376  Tot=              0.5996
 Quadrupole moment (field-independent basis, Debye-Ang):
   XX=            -45.9906   YY=            -74.6483   ZZ=            -71.4565
   XY=              0.2302   XZ=             -0.1339   YZ=             -2.3157

 Normal termination of Gaussian 16 at Fri Dec  8 07:51:45 2023.
