 Gaussian 16, Revision B.01,
 Gaussian 16:  ES64L-G16RevB.01 20-Dec-2017

 -------------------------
 #P B3LYP/6-311+g(d) force
 -------------------------

 -----
 DPGEN
 -----
 Symbolic Z-matrix:
 Charge =  0 Multiplicity = 2

                         Standard orientation:
 ---------------------------------------------------------------------
 Center     Atomic      Atomic             Coordinates (Angstroms)
 Number     Number       Type             X           Y           Z
 ---------------------------------------------------------------------
      1         11           0        2.706610    2.044064    0.678844
      2         11           0       -0.626247    3.273029   -0.312510
      3         11           0       -2.069089   -1.559629    2.960636
      4         11           0        0.198343   -0.478749    0.879492
      5         11           0       -2.965374    0.717032   -1.524621
      6         11           0       -0.582971   -2.257226   -2.129476
      7         11           0        3.338728   -1.738520   -0.552364
 ---------------------------------------------------------------------

 SCF Done:  E(UB3LYP) =  -1136.11640130     A.U. after   21 cycles

 The electronic state is 2-A.
 Alpha  occ. eigenvalues --  -38.45676 -38.44553 -38.44386 -38.44242 -38.43682
 Alpha  occ. eigenvalues --  -38.43581 -38.43386  -2.21485  -2.20317  -2.20130
 Alpha  occ. eigenvalues --   -2.20002  -2.19456  -2.19453  -2.19150  -1.15134
 Alpha  occ. eigenvalues --   -1.15096  -1.15082  -1.13989  -1.13974  -1.13931
 Alpha  occ. eigenvalues --   -1.13814  -1.13779  -1.13768  -1.13679  -1.13653
 Alpha  occ. eigenvalues --   -1.13635  -1.13176  -1.13152  -1.13130  -1.13098
 Alpha  occ. eigenvalues --   -1.13089  -1.13070  -1.12838  -1.12818  -1.12780
 Alpha  occ. eigenvalues --   -0.16625  -0.12662  -0.12100  -0.11727
 Alpha virt. eigenvalues --   -0.06071  -0.05288  -0.05155  -0.03069  -0.02940
 Alpha virt. eigenvalues --   -0.02773  -0.01679  -0.01223  -0.00912  -0.00783
 Alpha virt. eigenvalues --   -0.00656   0.00177   0.00285   0.00309   0.00791

  Beta  occ. eigenvalues --  -38.45542 -38.44510 -38.44383 -38.44220 -38.43687
  Beta  occ. eigenvalues --  -38.43560 -38.43390  -2.21236  -2.20238  -2.20124
  Beta  occ. eigenvalues --   -2.19961  -2.19461  -2.19422  -2.19157  -1.14957
  Beta  occ. eigenvalues --   -1.14929  -1.14918  -1.13933  -1.13925  -1.13872
  Beta  occ. eigenvalues --   -1.13810  -1.13774  -1.13763  -1.13646  -1.13628
  Beta  occ. eigenvalues --   -1.13605  -1.13154  -1.13134  -1.13112  -1.13084
  Beta  occ. eigenvalues --   -1.13082  -1.13067  -1.12842  -1.12823  -1.12784
  Beta  occ. eigenvalues --   -0.16055  -0.12040  -0.11628
  Beta virt. eigenvalues --   -0.08205  -0.05857  -0.05150  -0.04644  -0.02813
  Beta virt. eigenvalues --   -0.02483  -0.02265  -0.01383  -0.00993  -0.00787
  Beta virt. eigenvalues --   -0.00558  -0.00494   0.00340   0.00447   0.00605

 Mulliken charges and spin densities:
               1          2
     1  Na   0.361471  -0.071247
     2  Na  -0.196510   0.012543
     3  Na   0.242891   0.322763
     4  Na  -0.758210   0.385647
     5  Na   0.134070   0.104882
     6  Na  -0.148792   0.260434
     7  Na   0.365080  -0.015022
 Sum of Mulliken charges =  -0.00000   1.00000

 Dipole moment (field-independent basis, Debye):
    X=             -0.3797    Y=             -0.8997    Z=              0.1363  Tot=              0.9860
 Quadrupole moment (field-independent basis, Debye-Ang):
   XX=            -58.4353   YY=            -68.3301   ZZ=            -65.7980
   XY=              0.2218   XZ=             -2.5320   YZ=              0.3761

 Normal termination of Gaussian 16 at Tue Dec  5 21:44:24 2023.
