 Gaussian 16, Revision B.01,
 Gaussian 16:  ES64L-G16RevB.01 20-Dec-2017

 -------------------------
 #P B3LYP/6-311+g(d) force
 -------------------------

 -----
 DPGEN
 -----
 Symbolic Z-matrix:
 Charge =  0 Multiplicity = 2

                         Standard orientation:
 ---------------------------------------------------------------------
 Center     Atomic      Atomic             Coordinates (Angstroms)
 Number     Number       Type             X           Y           Z
 ---------------------------------------------------------------------
      1         11           0        3.642493   -1.950009    0.363222
      2         11           0        2.789357    1.245709   -0.764901
      3         11           0        0.599096   -0.642153    1.703334
      4         11           0       -0.645766    0.214622   -1.454489
      5         11           0       -0.535108    3.427260   -0.118886
      6         11           0       -2.724471   -2.964533   -0.906183
      7         11           0       -3.125602    0.669104    1.177904
 ---------------------------------------------------------------------

 SCF Done:  E(UB3LYP) =  -1136.12146876     A.U. after   20 cycles

 The electronic state is 2-A.
 Alpha  occ. eigenvalues --  -38.44810 -38.44589 -38.44379 -38.44211 -38.43907
 Alpha  occ. eigenvalues --  -38.43901 -38.43610  -2.20609  -2.20368  -2.20161
 Alpha  occ. eigenvalues --   -2.20020  -2.19770  -2.19661  -2.19382  -1.14315
 Alpha  occ. eigenvalues --   -1.14273  -1.14199  -1.14042  -1.14020  -1.13985
 Alpha  occ. eigenvalues --   -1.13829  -1.13826  -1.13795  -1.13714  -1.13694
 Alpha  occ. eigenvalues --   -1.13614  -1.13489  -1.13440  -1.13356  -1.13321
 Alpha  occ. eigenvalues --   -1.13317  -1.13272  -1.13071  -1.13038  -1.13025
 Alpha  occ. eigenvalues --   -0.17253  -0.13334  -0.11723  -0.10414
 Alpha virt. eigenvalues --   -0.06394  -0.05503  -0.05419  -0.03035  -0.02728
 Alpha virt. eigenvalues --   -0.02329  -0.02031  -0.01738  -0.01014  -0.00616
 Alpha virt. eigenvalues --   -0.00271   0.00154   0.00376   0.00568   0.00622

  Beta  occ. eigenvalues --  -38.44770 -38.44548 -38.44377 -38.44192 -38.43873
  Beta  occ. eigenvalues --  -38.43849 -38.43622  -2.20534  -2.20292  -2.20156
  Beta  occ. eigenvalues --   -2.19986  -2.19708  -2.19563  -2.19407  -1.14260
  Beta  occ. eigenvalues --   -1.14225  -1.14142  -1.13984  -1.13969  -1.13928
  Beta  occ. eigenvalues --   -1.13826  -1.13819  -1.13791  -1.13685  -1.13673
  Beta  occ. eigenvalues --   -1.13589  -1.13448  -1.13389  -1.13307  -1.13255
  Beta  occ. eigenvalues --   -1.13245  -1.13211  -1.13089  -1.13055  -1.13026
  Beta  occ. eigenvalues --   -0.16741  -0.13051  -0.11349
  Beta virt. eigenvalues --   -0.07006  -0.06157  -0.05200  -0.05100  -0.02739
  Beta virt. eigenvalues --   -0.02289  -0.02093  -0.01565  -0.01406  -0.00915
  Beta virt. eigenvalues --   -0.00390  -0.00097   0.00222   0.00507   0.00654

 Mulliken charges and spin densities:
               1          2
     1  Na   0.207994  -0.005846
     2  Na  -0.094916   0.034311
     3  Na  -0.192477   0.295612
     4  Na   0.131687   0.264409
     5  Na  -0.152462  -0.064866
     6  Na  -0.077870   0.237498
     7  Na   0.178045   0.238882
 Sum of Mulliken charges =  -0.00000   1.00000

 Dipole moment (field-independent basis, Debye):
    X=              0.6549    Y=              0.0204    Z=              0.3993  Tot=              0.7673
 Quadrupole moment (field-independent basis, Debye-Ang):
   XX=            -56.4171   YY=            -64.0482   ZZ=            -74.1344
   XY=             -3.4433   XZ=             -3.3701   YZ=              1.3066

 Normal termination of Gaussian 16 at Sun Dec  3 18:07:58 2023.
