 Gaussian 16, Revision B.01,
 Gaussian 16:  ES64L-G16RevB.01 20-Dec-2017

 -------------------------
 #P B3LYP/6-311+g(d) force
 -------------------------

 -----
 DPGEN
 -----
 Symbolic Z-matrix:
 Charge =  0 Multiplicity = 2

                         Standard orientation:
 ---------------------------------------------------------------------
 Center     Atomic      Atomic             Coordinates (Angstroms)
 Number     Number       Type             X           Y           Z
 ---------------------------------------------------------------------
      1         11           0        0.408500    0.176813   -1.812307
      2         11           0       -1.146616    2.630191   -0.116465
      3         11           0       -3.324040   -0.455820   -0.443816
      4         11           0       -0.994015   -2.250620    0.518633
      5         11           0        2.614359    1.450490    0.274395
      6         11           0        2.516364   -1.820382   -0.367651
      7         11           0       -0.074552    0.269327    1.947212
 ---------------------------------------------------------------------

 SCF Done:  E(UB3LYP) =  -1136.13240951     A.U. after   19 cycles

 The electronic state is 2-A.
 Alpha  occ. eigenvalues --  -38.44524 -38.44125 -38.43652 -38.43649 -38.43586
 Alpha  occ. eigenvalues --  -38.43161 -38.42937  -2.20342  -2.19994  -2.19611
 Alpha  occ. eigenvalues --   -2.19600  -2.19446  -2.19006  -2.18861  -1.14034
 Alpha  occ. eigenvalues --   -1.14000  -1.13968  -1.13683  -1.13677  -1.13614
 Alpha  occ. eigenvalues --   -1.13314  -1.13285  -1.13257  -1.13242  -1.13228
 Alpha  occ. eigenvalues --   -1.13221  -1.13108  -1.13093  -1.13081  -1.12688
 Alpha  occ. eigenvalues --   -1.12685  -1.12621  -1.12563  -1.12514  -1.12473
 Alpha  occ. eigenvalues --   -0.18882  -0.13359  -0.12074  -0.11119
 Alpha virt. eigenvalues --   -0.06013  -0.05089  -0.03965  -0.03522  -0.02888
 Alpha virt. eigenvalues --   -0.02759  -0.01780  -0.01040  -0.00190  -0.00109
 Alpha virt. eigenvalues --    0.00115   0.00344   0.00772   0.00804   0.00884

  Beta  occ. eigenvalues --  -38.44519 -38.44116 -38.43582 -38.43580 -38.43559
  Beta  occ. eigenvalues --  -38.43157 -38.42922  -2.20334  -2.19982  -2.19477
  Beta  occ. eigenvalues --   -2.19442  -2.19436  -2.19002  -2.18838  -1.14031
  Beta  occ. eigenvalues --   -1.13982  -1.13963  -1.13678  -1.13641  -1.13607
  Beta  occ. eigenvalues --   -1.13219  -1.13190  -1.13171  -1.13142  -1.13124
  Beta  occ. eigenvalues --   -1.13104  -1.13092  -1.13073  -1.13061  -1.12685
  Beta  occ. eigenvalues --   -1.12663  -1.12617  -1.12537  -1.12481  -1.12456
  Beta  occ. eigenvalues --   -0.18136  -0.13120  -0.11811
  Beta virt. eigenvalues --   -0.07207  -0.05911  -0.05068  -0.03945  -0.02760
  Beta virt. eigenvalues --   -0.02114  -0.01723  -0.01653  -0.00986  -0.00220
  Beta virt. eigenvalues --    0.00003   0.00127   0.00372   0.00832   0.00861

 Mulliken charges and spin densities:
               1          2
     1  Na  -0.394323   0.594751
     2  Na   0.019024  -0.070966
     3  Na  -0.161234  -0.022710
     4  Na   0.333209   0.043803
     5  Na   0.302243  -0.069486
     6  Na   0.078075  -0.010213
     7  Na  -0.176995   0.534821
 Sum of Mulliken charges =  -0.00000   1.00000

 Dipole moment (field-independent basis, Debye):
    X=              0.0186    Y=              0.2503    Z=             -0.1583  Tot=              0.2968
 Quadrupole moment (field-independent basis, Debye-Ang):
   XX=            -53.7246   YY=            -67.9124   ZZ=            -72.3374
   XY=             -0.5048   XZ=              1.8849   YZ=              0.3736

 Normal termination of Gaussian 16 at Fri Dec  8 00:03:01 2023.
