 Gaussian 16, Revision B.01,
 Gaussian 16:  ES64L-G16RevB.01 20-Dec-2017

 -------------------------
 #P B3LYP/6-311+g(d) force
 -------------------------

 -----
 DPGEN
 -----
 Symbolic Z-matrix:
 Charge =  0 Multiplicity = 2

                         Standard orientation:
 ---------------------------------------------------------------------
 Center     Atomic      Atomic             Coordinates (Angstroms)
 Number     Number       Type             X           Y           Z
 ---------------------------------------------------------------------
      1         11           0       -2.033861    2.426050    0.118948
      2         11           0        1.423922    2.151074    0.229371
      3         11           0        0.552044    0.141078   -1.735263
      4         11           0        0.235373   -2.668758    0.126644
      5         11           0        3.205945   -0.431739   -0.105521
      6         11           0       -3.164975   -1.171654   -0.502322
      7         11           0       -0.218448   -0.446050    1.868143
 ---------------------------------------------------------------------

 SCF Done:  E(UB3LYP) =  -1136.12831925     A.U. after   20 cycles

 The electronic state is 2-A.
 Alpha  occ. eigenvalues --  -38.44576 -38.44234 -38.43671 -38.43607 -38.43473
 Alpha  occ. eigenvalues --  -38.43289 -38.43209  -2.20345  -2.20114  -2.19656
 Alpha  occ. eigenvalues --   -2.19432  -2.19405  -2.19196  -2.19164  -1.14021
 Alpha  occ. eigenvalues --   -1.13992  -1.13981  -1.13820  -1.13786  -1.13736
 Alpha  occ. eigenvalues --   -1.13405  -1.13308  -1.13262  -1.13249  -1.13085
 Alpha  occ. eigenvalues --   -1.13075  -1.13062  -1.13053  -1.13018  -1.12852
 Alpha  occ. eigenvalues --   -1.12847  -1.12830  -1.12810  -1.12774  -1.12765
 Alpha  occ. eigenvalues --   -0.18865  -0.13163  -0.12373  -0.10732
 Alpha virt. eigenvalues --   -0.06055  -0.05198  -0.04298  -0.03354  -0.02831
 Alpha virt. eigenvalues --   -0.02384  -0.01861  -0.01068  -0.00298  -0.00152
 Alpha virt. eigenvalues --   -0.00026   0.00305   0.00740   0.00860   0.00902

  Beta  occ. eigenvalues --  -38.44563 -38.44229 -38.43608 -38.43606 -38.43388
  Beta  occ. eigenvalues --  -38.43277 -38.43197  -2.20321  -2.20109  -2.19538
  Beta  occ. eigenvalues --   -2.19409  -2.19278  -2.19179  -2.19147  -1.13994
  Beta  occ. eigenvalues --   -1.13978  -1.13968  -1.13815  -1.13769  -1.13721
  Beta  occ. eigenvalues --   -1.13328  -1.13230  -1.13177  -1.13161  -1.13073
  Beta  occ. eigenvalues --   -1.13069  -1.13054  -1.12968  -1.12908  -1.12834
  Beta  occ. eigenvalues --   -1.12827  -1.12779  -1.12768  -1.12765  -1.12743
  Beta  occ. eigenvalues --   -0.18140  -0.12912  -0.12116
  Beta virt. eigenvalues --   -0.06891  -0.05911  -0.05185  -0.04261  -0.02618
  Beta virt. eigenvalues --   -0.02078  -0.01734  -0.01404  -0.01014  -0.00322
  Beta virt. eigenvalues --   -0.00167   0.00111   0.00347   0.00794   0.00875

 Mulliken charges and spin densities:
               1          2
     1  Na  -0.139026  -0.106709
     2  Na   0.140523  -0.020145
     3  Na  -0.444489   0.641385
     4  Na   0.254396  -0.058605
     5  Na   0.573917   0.003527
     6  Na  -0.133049   0.023326
     7  Na  -0.252272   0.517221
 Sum of Mulliken charges =  -0.00000   1.00000

 Dipole moment (field-independent basis, Debye):
    X=             -0.1603    Y=             -0.2008    Z=             -0.0685  Tot=              0.2659
 Quadrupole moment (field-independent basis, Debye-Ang):
   XX=            -52.9725   YY=            -66.3834   ZZ=            -73.9753
   XY=             -0.7501   XZ=              1.6982   YZ=              1.5684

 Normal termination of Gaussian 16 at Thu Dec  7 12:46:34 2023.
