 Gaussian 16, Revision B.01,
 Gaussian 16:  ES64L-G16RevB.01 20-Dec-2017

 -------------------------
 #P B3LYP/6-311+g(d) force
 -------------------------

 -----
 DPGEN
 -----
 Symbolic Z-matrix:
 Charge =  0 Multiplicity = 2

                         Standard orientation:
 ---------------------------------------------------------------------
 Center     Atomic      Atomic             Coordinates (Angstroms)
 Number     Number       Type             X           Y           Z
 ---------------------------------------------------------------------
      1         11           0        1.749861    1.933010    0.321254
      2         11           0        4.793573    1.088234   -0.782339
      3         11           0        5.401201   -1.911299    0.641448
      4         11           0        1.357604   -1.134117   -0.600761
      5         11           0       -1.934956    0.685966    0.139017
      6         11           0       -4.546728    0.034075    1.199392
      7         11           0       -6.820555   -0.695868   -0.918012
 ---------------------------------------------------------------------

 SCF Done:  E(UB3LYP) =  -1136.10745272     A.U. after   22 cycles

 The electronic state is 2-A.
 Alpha  occ. eigenvalues --  -38.45676 -38.44868 -38.44326 -38.44000 -38.43966
 Alpha  occ. eigenvalues --  -38.43943 -38.43731  -2.21452  -2.20652  -2.20189
 Alpha  occ. eigenvalues --   -2.19845  -2.19812  -2.19792  -2.19527  -1.15158
 Alpha  occ. eigenvalues --   -1.15148  -1.15035  -1.14308  -1.14302  -1.14295
 Alpha  occ. eigenvalues --   -1.13988  -1.13828  -1.13808  -1.13518  -1.13508
 Alpha  occ. eigenvalues --   -1.13500  -1.13478  -1.13473  -1.13457  -1.13436
 Alpha  occ. eigenvalues --   -1.13425  -1.13382  -1.13181  -1.13173  -1.13145
 Alpha  occ. eigenvalues --   -0.16410  -0.14688  -0.11887  -0.10438
 Alpha virt. eigenvalues --   -0.07464  -0.05321  -0.04477  -0.03527  -0.02822
 Alpha virt. eigenvalues --   -0.02781  -0.02146  -0.01896  -0.01097  -0.00724
 Alpha virt. eigenvalues --   -0.00450  -0.00169   0.00113   0.00298   0.00530

  Beta  occ. eigenvalues --  -38.45674 -38.44830 -38.44331 -38.43981 -38.43949
  Beta  occ. eigenvalues --  -38.43882 -38.43673  -2.21447  -2.20580  -2.20202
  Beta  occ. eigenvalues --   -2.19808  -2.19767  -2.19701  -2.19417  -1.15155
  Beta  occ. eigenvalues --   -1.15132  -1.15033  -1.14261  -1.14253  -1.14248
  Beta  occ. eigenvalues --   -1.13979  -1.13840  -1.13810  -1.13481  -1.13471
  Beta  occ. eigenvalues --   -1.13465  -1.13459  -1.13416  -1.13413  -1.13400
  Beta  occ. eigenvalues --   -1.13386  -1.13297  -1.13105  -1.13098  -1.13076
  Beta  occ. eigenvalues --   -0.15968  -0.14327  -0.11588
  Beta virt. eigenvalues --   -0.07283  -0.06712  -0.04901  -0.04391  -0.03343
  Beta virt. eigenvalues --   -0.02663  -0.02323  -0.01741  -0.01713  -0.00759
  Beta virt. eigenvalues --   -0.00595  -0.00214   0.00133   0.00212   0.00431

 Mulliken charges and spin densities:
               1          2
     1  Na  -0.288821   0.591106
     2  Na   0.140040  -0.019890
     3  Na   0.102207   0.279075
     4  Na  -0.020835   0.177955
     5  Na  -0.873817  -0.137346
     6  Na   0.761602  -0.069361
     7  Na   0.179625   0.178461
 Sum of Mulliken charges =  -0.00000   1.00000

 Dipole moment (field-independent basis, Debye):
    X=             -1.0732    Y=             -0.1521    Z=             -0.4629  Tot=              1.1786
 Quadrupole moment (field-independent basis, Debye-Ang):
   XX=            -64.5437   YY=            -69.9889   ZZ=            -66.6196
   XY=              3.0919   XZ=              3.4599   YZ=              1.9731

 Normal termination of Gaussian 16 at Wed Nov 29 00:17:28 2023.
