 Gaussian 16, Revision B.01,
 Gaussian 16:  ES64L-G16RevB.01 20-Dec-2017

 -------------------------
 #P B3LYP/6-311+g(d) force
 -------------------------

 -----
 DPGEN
 -----
 Symbolic Z-matrix:
 Charge =  0 Multiplicity = 2

                         Standard orientation:
 ---------------------------------------------------------------------
 Center     Atomic      Atomic             Coordinates (Angstroms)
 Number     Number       Type             X           Y           Z
 ---------------------------------------------------------------------
      1         11           0       -2.162544    2.048847   -0.219918
      2         11           0       -0.083216    0.149346    1.839333
      3         11           0        0.493960   -2.651341    0.180249
      4         11           0       -0.004512   -0.114680   -1.836845
      5         11           0        3.016250   -0.492120   -0.174713
      6         11           0        1.340782    2.535398    0.166996
      7         11           0       -2.600720   -1.475450    0.044899
 ---------------------------------------------------------------------

 SCF Done:  E(UB3LYP) =  -1136.14149110     A.U. after   18 cycles

 The electronic state is 2-A.
 Alpha  occ. eigenvalues --  -38.43640 -38.43571 -38.43565 -38.43410 -38.43316
 Alpha  occ. eigenvalues --  -38.43292 -38.43129  -2.19498  -2.19436  -2.19424
 Alpha  occ. eigenvalues --   -2.19285  -2.19280  -2.19265  -2.19053  -1.13177
 Alpha  occ. eigenvalues --   -1.13163  -1.13150  -1.13131  -1.13109  -1.13107
 Alpha  occ. eigenvalues --   -1.13098  -1.13085  -1.13045  -1.13012  -1.12974
 Alpha  occ. eigenvalues --   -1.12951  -1.12932  -1.12909  -1.12901  -1.12891
 Alpha  occ. eigenvalues --   -1.12883  -1.12865  -1.12722  -1.12710  -1.12671
 Alpha  occ. eigenvalues --   -0.19113  -0.12952  -0.12729  -0.10919
 Alpha virt. eigenvalues --   -0.05247  -0.05159  -0.04645  -0.03122  -0.03052
 Alpha virt. eigenvalues --   -0.02582  -0.01348  -0.01076  -0.00192  -0.00086
 Alpha virt. eigenvalues --    0.00007   0.00374   0.00852   0.00929   0.00946

  Beta  occ. eigenvalues --  -38.43636 -38.43565 -38.43561 -38.43404 -38.43235
  Beta  occ. eigenvalues --  -38.43210 -38.43119  -2.19494  -2.19432  -2.19417
  Beta  occ. eigenvalues --   -2.19273  -2.19136  -2.19114  -2.19040  -1.13172
  Beta  occ. eigenvalues --   -1.13156  -1.13133  -1.13126  -1.13106  -1.13087
  Beta  occ. eigenvalues --   -1.13072  -1.13066  -1.13043  -1.12982  -1.12921
  Beta  occ. eigenvalues --   -1.12899  -1.12883  -1.12834  -1.12816  -1.12789
  Beta  occ. eigenvalues --   -1.12785  -1.12766  -1.12703  -1.12674  -1.12655
  Beta  occ. eigenvalues --   -0.18359  -0.12699  -0.12457
  Beta virt. eigenvalues --   -0.06978  -0.05231  -0.05156  -0.04625  -0.02322
  Beta virt. eigenvalues --   -0.02219  -0.01514  -0.01266  -0.01009  -0.00242
  Beta virt. eigenvalues --   -0.00142   0.00123   0.00386   0.00898   0.00923

 Mulliken charges and spin densities:
               1          2
     1  Na   0.094746  -0.101956
     2  Na  -0.355709   0.668464
     3  Na   0.256747  -0.043091
     4  Na  -0.429299   0.726687
     5  Na   0.121630  -0.062650
     6  Na   0.154652  -0.095270
     7  Na   0.157232  -0.092184
 Sum of Mulliken charges =  -0.00000   1.00000

 Dipole moment (field-independent basis, Debye):
    X=             -0.0638    Y=              0.1280    Z=             -0.0383  Tot=              0.1481
 Quadrupole moment (field-independent basis, Debye-Ang):
   XX=            -57.5511   YY=            -62.6488   ZZ=            -73.4391
   XY=              0.0322   XZ=              0.0894   YZ=             -0.5903

 Normal termination of Gaussian 16 at Fri Dec  8 03:21:46 2023.
