 Gaussian 16, Revision B.01,
 Gaussian 16:  ES64L-G16RevB.01 20-Dec-2017

 -------------------------
 #P B3LYP/6-311+g(d) force
 -------------------------

 -----
 DPGEN
 -----
 Symbolic Z-matrix:
 Charge =  0 Multiplicity = 2

                         Standard orientation:
 ---------------------------------------------------------------------
 Center     Atomic      Atomic             Coordinates (Angstroms)
 Number     Number       Type             X           Y           Z
 ---------------------------------------------------------------------
      1         11           0        1.444363    2.312319    0.740071
      2         11           0       -1.199172   -0.081135    1.706454
      3         11           0        3.839583   -0.194670   -1.319938
      4         11           0        2.030368   -1.588820    1.503499
      5         11           0       -3.775637   -1.552330   -0.410569
      6         11           0       -2.593522    1.968510   -0.704606
      7         11           0        0.254017   -0.863875   -1.514911
 ---------------------------------------------------------------------

 SCF Done:  E(UB3LYP) =  -1136.11988261     A.U. after   27 cycles

 The electronic state is 2-A.
 Alpha  occ. eigenvalues --  -38.45068 -38.44645 -38.44489 -38.44476 -38.44051
 Alpha  occ. eigenvalues --  -38.43670 -38.43015  -2.20857  -2.20435  -2.20309
 Alpha  occ. eigenvalues --   -2.20285  -2.19820  -2.19557  -2.18791  -1.14575
 Alpha  occ. eigenvalues --   -1.14533  -1.14455  -1.14126  -1.14093  -1.14036
 Alpha  occ. eigenvalues --   -1.13990  -1.13956  -1.13948  -1.13932  -1.13931
 Alpha  occ. eigenvalues --   -1.13893  -1.13504  -1.13483  -1.13454  -1.13265
 Alpha  occ. eigenvalues --   -1.13207  -1.13161  -1.12474  -1.12459  -1.12423
 Alpha  occ. eigenvalues --   -0.17732  -0.13883  -0.11239  -0.10541
 Alpha virt. eigenvalues --   -0.06710  -0.05825  -0.04932  -0.03033  -0.02760
 Alpha virt. eigenvalues --   -0.02456  -0.02245  -0.01284  -0.01270  -0.00467
 Alpha virt. eigenvalues --    0.00071   0.00136   0.00267   0.00368   0.00443

  Beta  occ. eigenvalues --  -38.45055 -38.44618 -38.44448 -38.44418 -38.44056
  Beta  occ. eigenvalues --  -38.43623 -38.43011  -2.20835  -2.20383  -2.20209
  Beta  occ. eigenvalues --   -2.20205  -2.19830  -2.19476  -2.18786  -1.14543
  Beta  occ. eigenvalues --   -1.14515  -1.14439  -1.14088  -1.14060  -1.14000
  Beta  occ. eigenvalues --   -1.13914  -1.13899  -1.13882  -1.13876  -1.13863
  Beta  occ. eigenvalues --   -1.13827  -1.13508  -1.13488  -1.13461  -1.13213
  Beta  occ. eigenvalues --   -1.13120  -1.13108  -1.12465  -1.12448  -1.12421
  Beta  occ. eigenvalues --   -0.17046  -0.13621  -0.10439
  Beta virt. eigenvalues --   -0.07424  -0.06508  -0.05512  -0.04500  -0.02824
  Beta virt. eigenvalues --   -0.02495  -0.01831  -0.01770  -0.01208  -0.00810
  Beta virt. eigenvalues --   -0.00310   0.00113   0.00237   0.00352   0.00474

 Mulliken charges and spin densities:
               1          2
     1  Na  -0.438912   0.078145
     2  Na   0.110655   0.364813
     3  Na   0.390224   0.212237
     4  Na   0.098187   0.050751
     5  Na   0.253196  -0.074428
     6  Na   0.128549   0.111087
     7  Na  -0.541898   0.257396
 Sum of Mulliken charges =  -0.00000   1.00000

 Dipole moment (field-independent basis, Debye):
    X=              0.1414    Y=             -0.0251    Z=             -0.2335  Tot=              0.2741
 Quadrupole moment (field-independent basis, Debye-Ang):
   XX=            -51.5054   YY=            -74.8406   ZZ=            -69.4076
   XY=             -0.6521   XZ=              1.5978   YZ=             -5.6202

 Normal termination of Gaussian 16 at Fri Dec  8 07:36:28 2023.
