 Gaussian 16, Revision B.01,
 Gaussian 16:  ES64L-G16RevB.01 20-Dec-2017

 -------------------------
 #P B3LYP/6-311+g(d) force
 -------------------------

 -----
 DPGEN
 -----
 Symbolic Z-matrix:
 Charge =  0 Multiplicity = 2

                         Standard orientation:
 ---------------------------------------------------------------------
 Center     Atomic      Atomic             Coordinates (Angstroms)
 Number     Number       Type             X           Y           Z
 ---------------------------------------------------------------------
      1         11           0       -0.971125    2.776105    0.080267
      2         11           0        2.923224   -1.536003   -0.556978
      3         11           0       -0.262489   -0.057975   -1.953728
      4         11           0        2.347750    1.835810    0.124998
      5         11           0       -1.150802   -2.581837    0.199683
      6         11           0        0.415367   -0.417068    2.174345
      7         11           0       -3.301924   -0.019031   -0.068587
 ---------------------------------------------------------------------

 SCF Done:  E(UB3LYP) =  -1136.13608244     A.U. after   19 cycles

 The electronic state is 2-A.
 Alpha  occ. eigenvalues --  -38.44312 -38.44132 -38.44041 -38.43987 -38.43666
 Alpha  occ. eigenvalues --  -38.43337 -38.43028  -2.20125  -2.19922  -2.19895
 Alpha  occ. eigenvalues --   -2.19865  -2.19499  -2.19195  -2.18851  -1.13798
 Alpha  occ. eigenvalues --   -1.13785  -1.13771  -1.13592  -1.13583  -1.13569
 Alpha  occ. eigenvalues --   -1.13557  -1.13541  -1.13529  -1.13511  -1.13507
 Alpha  occ. eigenvalues --   -1.13478  -1.13176  -1.13167  -1.13134  -1.12879
 Alpha  occ. eigenvalues --   -1.12864  -1.12819  -1.12527  -1.12520  -1.12490
 Alpha  occ. eigenvalues --   -0.18180  -0.13064  -0.12073  -0.11075
 Alpha virt. eigenvalues --   -0.05901  -0.05203  -0.04475  -0.03428  -0.03068
 Alpha virt. eigenvalues --   -0.02832  -0.01698  -0.01006  -0.00401  -0.00251
 Alpha virt. eigenvalues --   -0.00100   0.00360   0.00699   0.00769   0.00867

  Beta  occ. eigenvalues --  -38.44312 -38.44120 -38.43949 -38.43917 -38.43662
  Beta  occ. eigenvalues --  -38.43328 -38.43027  -2.20127  -2.19902  -2.19736
  Beta  occ. eigenvalues --   -2.19726  -2.19495  -2.19184  -2.18851  -1.13791
  Beta  occ. eigenvalues --   -1.13784  -1.13773  -1.13572  -1.13560  -1.13551
  Beta  occ. eigenvalues --   -1.13461  -1.13445  -1.13417  -1.13405  -1.13397
  Beta  occ. eigenvalues --   -1.13381  -1.13168  -1.13150  -1.13133  -1.12872
  Beta  occ. eigenvalues --   -1.12826  -1.12818  -1.12526  -1.12512  -1.12487
  Beta  occ. eigenvalues --   -0.17444  -0.12871  -0.11843
  Beta virt. eigenvalues --   -0.07201  -0.05794  -0.05195  -0.04328  -0.02724
  Beta virt. eigenvalues --   -0.02267  -0.01892  -0.01576  -0.00942  -0.00432
  Beta virt. eigenvalues --   -0.00296   0.00060   0.00392   0.00813   0.00864

 Mulliken charges and spin densities:
               1          2
     1  Na  -0.061599  -0.080509
     2  Na   0.127485  -0.019901
     3  Na  -0.187606   0.635625
     4  Na   0.066983  -0.011058
     5  Na   0.220977  -0.058370
     6  Na  -0.289388   0.604462
     7  Na   0.123148  -0.070249
 Sum of Mulliken charges =  -0.00000   1.00000

 Dipole moment (field-independent basis, Debye):
    X=             -0.0461    Y=             -0.2324    Z=             -0.0191  Tot=              0.2377
 Quadrupole moment (field-independent basis, Debye-Ang):
   XX=            -56.0476   YY=            -67.3356   ZZ=            -71.8196
   XY=             -0.7048   XZ=             -1.1304   YZ=              1.1429

 Normal termination of Gaussian 16 at Tue Dec  5 12:15:01 2023.
