 Gaussian 16, Revision B.01,
 Gaussian 16:  ES64L-G16RevB.01 20-Dec-2017

 -------------------------
 #P B3LYP/6-311+g(d) force
 -------------------------

 -----
 DPGEN
 -----
 Symbolic Z-matrix:
 Charge =  0 Multiplicity = 2

                         Standard orientation:
 ---------------------------------------------------------------------
 Center     Atomic      Atomic             Coordinates (Angstroms)
 Number     Number       Type             X           Y           Z
 ---------------------------------------------------------------------
      1         11           0       -3.296910   -0.248919   -0.311010
      2         11           0       -1.063524    2.623992   -0.118908
      3         11           0        2.975548   -1.336139   -0.350428
      4         11           0       -0.141598   -0.070284    1.955397
      5         11           0        2.317129    1.635446    0.281050
      6         11           0        0.095816   -0.165090   -1.806256
      7         11           0       -0.886463   -2.439006    0.350154
 ---------------------------------------------------------------------

 SCF Done:  E(UB3LYP) =  -1136.13364915     A.U. after   19 cycles

 The electronic state is 2-A.
 Alpha  occ. eigenvalues --  -38.44616 -38.44017 -38.43696 -38.43671 -38.43573
 Alpha  occ. eigenvalues --  -38.43070 -38.42795  -2.20437  -2.19861  -2.19652
 Alpha  occ. eigenvalues --   -2.19615  -2.19468  -2.18994  -2.18647  -1.14106
 Alpha  occ. eigenvalues --   -1.14092  -1.14079  -1.13570  -1.13527  -1.13488
 Alpha  occ. eigenvalues --   -1.13381  -1.13311  -1.13287  -1.13262  -1.13253
 Alpha  occ. eigenvalues --   -1.13224  -1.13133  -1.13123  -1.13094  -1.12695
 Alpha  occ. eigenvalues --   -1.12650  -1.12587  -1.12328  -1.12318  -1.12279
 Alpha  occ. eigenvalues --   -0.18921  -0.13450  -0.12031  -0.11084
 Alpha virt. eigenvalues --   -0.06121  -0.04898  -0.04085  -0.03486  -0.02796
 Alpha virt. eigenvalues --   -0.02743  -0.01940  -0.00925  -0.00170  -0.00073
 Alpha virt. eigenvalues --    0.00011   0.00333   0.00782   0.00848   0.00922

  Beta  occ. eigenvalues --  -38.44610 -38.44012 -38.43602 -38.43601 -38.43566
  Beta  occ. eigenvalues --  -38.43054 -38.42793  -2.20428  -2.19853  -2.19489
  Beta  occ. eigenvalues --   -2.19479  -2.19458  -2.18971  -2.18646  -1.14093
  Beta  occ. eigenvalues --   -1.14082  -1.14072  -1.13568  -1.13505  -1.13481
  Beta  occ. eigenvalues --   -1.13267  -1.13220  -1.13186  -1.13171  -1.13138
  Beta  occ. eigenvalues --   -1.13129  -1.13110  -1.13098  -1.13080  -1.12671
  Beta  occ. eigenvalues --   -1.12601  -1.12578  -1.12328  -1.12304  -1.12272
  Beta  occ. eigenvalues --   -0.18175  -0.13208  -0.11756
  Beta virt. eigenvalues --   -0.07161  -0.06044  -0.04890  -0.04059  -0.02719
  Beta virt. eigenvalues --   -0.02018  -0.01830  -0.01662  -0.00878  -0.00150
  Beta virt. eigenvalues --   -0.00093   0.00092   0.00358   0.00844   0.00916

 Mulliken charges and spin densities:
               1          2
     1  Na   0.040036  -0.049123
     2  Na  -0.034232  -0.085431
     3  Na   0.185352  -0.035553
     4  Na  -0.269643   0.552444
     5  Na   0.148591  -0.018240
     6  Na  -0.430953   0.673092
     7  Na   0.360849  -0.037187
 Sum of Mulliken charges =  -0.00000   1.00000

 Dipole moment (field-independent basis, Debye):
    X=             -0.2157    Y=             -0.1346    Z=             -0.1166  Tot=              0.2797
 Quadrupole moment (field-independent basis, Debye-Ang):
   XX=            -52.7947   YY=            -68.4328   ZZ=            -72.6570
   XY=             -0.7346   XZ=              0.8651   YZ=              0.3960

 Normal termination of Gaussian 16 at Thu Dec  7 18:27:23 2023.
