 Gaussian 16, Revision B.01,
 Gaussian 16:  ES64L-G16RevB.01 20-Dec-2017

 -------------------------
 #P B3LYP/6-311+g(d) force
 -------------------------

 -----
 DPGEN
 -----
 Symbolic Z-matrix:
 Charge =  0 Multiplicity = 2

                         Standard orientation:
 ---------------------------------------------------------------------
 Center     Atomic      Atomic             Coordinates (Angstroms)
 Number     Number       Type             X           Y           Z
 ---------------------------------------------------------------------
      1         11           0       -2.374248   -2.035595    0.751155
      2         11           0        0.547925   -0.663413    2.014914
      3         11           0        2.174811    1.950757    0.164116
      4         11           0       -0.851142    1.972133    0.679599
      5         11           0        4.015245   -1.254303   -0.781085
      6         11           0       -3.591293    0.544833   -1.160707
      7         11           0        0.078701   -0.514411   -1.667991
 ---------------------------------------------------------------------

 SCF Done:  E(UB3LYP) =  -1136.12138082     A.U. after   25 cycles

 The electronic state is 2-A.
 Alpha  occ. eigenvalues --  -38.45098 -38.44822 -38.44533 -38.44147 -38.43791
 Alpha  occ. eigenvalues --  -38.43727 -38.42240  -2.20905  -2.20636  -2.20421
 Alpha  occ. eigenvalues --   -2.19978  -2.19600  -2.19534  -2.18177  -1.14615
 Alpha  occ. eigenvalues --   -1.14585  -1.14494  -1.14299  -1.14283  -1.14260
 Alpha  occ. eigenvalues --   -1.14108  -1.14047  -1.14032  -1.13649  -1.13637
 Alpha  occ. eigenvalues --   -1.13606  -1.13300  -1.13271  -1.13221  -1.13211
 Alpha  occ. eigenvalues --   -1.13203  -1.13162  -1.11869  -1.11850  -1.11799
 Alpha  occ. eigenvalues --   -0.18344  -0.13596  -0.11781  -0.10941
 Alpha virt. eigenvalues --   -0.06771  -0.05354  -0.04513  -0.03293  -0.02856
 Alpha virt. eigenvalues --   -0.02487  -0.02421  -0.01234  -0.00904  -0.00247
 Alpha virt. eigenvalues --    0.00037   0.00211   0.00394   0.00545   0.00615

  Beta  occ. eigenvalues --  -38.45072 -38.44782 -38.44442 -38.44111 -38.43795
  Beta  occ. eigenvalues --  -38.43724 -38.42231  -2.20860  -2.20561  -2.20256
  Beta  occ. eigenvalues --   -2.19915  -2.19595  -2.19543  -2.18164  -1.14579
  Beta  occ. eigenvalues --   -1.14547  -1.14460  -1.14247  -1.14227  -1.14213
  Beta  occ. eigenvalues --   -1.13999  -1.13932  -1.13899  -1.13602  -1.13592
  Beta  occ. eigenvalues --   -1.13545  -1.13298  -1.13261  -1.13222  -1.13215
  Beta  occ. eigenvalues --   -1.13205  -1.13167  -1.11866  -1.11823  -1.11780
  Beta  occ. eigenvalues --   -0.17589  -0.13371  -0.10816
  Beta virt. eigenvalues --   -0.07789  -0.06534  -0.05139  -0.04071  -0.02879
  Beta virt. eigenvalues --   -0.02502  -0.02014  -0.01851  -0.01085  -0.00595
  Beta virt. eigenvalues --   -0.00195   0.00084   0.00265   0.00478   0.00650

 Mulliken charges and spin densities:
               1          2
     1  Na  -0.064981   0.041976
     2  Na   0.092738   0.398739
     3  Na   0.382477   0.001684
     4  Na  -0.425932   0.133061
     5  Na   0.005692  -0.048941
     6  Na   0.709588   0.139394
     7  Na  -0.699582   0.334088
 Sum of Mulliken charges =  -0.00000   1.00000

 Dipole moment (field-independent basis, Debye):
    X=             -0.8185    Y=              0.1109    Z=              0.0517  Tot=              0.8276
 Quadrupole moment (field-independent basis, Debye-Ang):
   XX=            -54.5926   YY=            -73.2304   ZZ=            -69.4315
   XY=              1.4555   XZ=              3.1658   YZ=             -4.3308

 Normal termination of Gaussian 16 at Tue Dec  5 15:05:19 2023.
