 Gaussian 16, Revision B.01,
 Gaussian 16:  ES64L-G16RevB.01 20-Dec-2017

 -------------------------
 #P B3LYP/6-311+g(d) force
 -------------------------

 -----
 DPGEN
 -----
 Symbolic Z-matrix:
 Charge =  0 Multiplicity = 2

                         Standard orientation:
 ---------------------------------------------------------------------
 Center     Atomic      Atomic             Coordinates (Angstroms)
 Number     Number       Type             X           Y           Z
 ---------------------------------------------------------------------
      1         11           0        0.881150   -2.707819   -0.997312
      2         11           0        1.145579    2.785748   -0.402003
      3         11           0       -2.686611    2.050304   -1.187369
      4         11           0        3.538322   -2.003746   -0.317687
      5         11           0       -4.766723   -0.621482    0.619809
      6         11           0       -1.977012   -1.182667    1.130146
      7         11           0        3.865295    1.679661    1.154416
 ---------------------------------------------------------------------

 SCF Done:  E(UB3LYP) =  -1136.10561537     A.U. after   20 cycles

 The electronic state is 2-A.
 Alpha  occ. eigenvalues --  -38.45526 -38.44921 -38.44876 -38.44873 -38.43923
 Alpha  occ. eigenvalues --  -38.43656 -38.43439  -2.21356  -2.20740  -2.20731
 Alpha  occ. eigenvalues --   -2.20655  -2.19675  -2.19504  -2.19243  -1.15098
 Alpha  occ. eigenvalues --   -1.15009  -1.14987  -1.14502  -1.14394  -1.14391
 Alpha  occ. eigenvalues --   -1.14361  -1.14357  -1.14336  -1.14320  -1.14301
 Alpha  occ. eigenvalues --   -1.14257  -1.13371  -1.13363  -1.13316  -1.13187
 Alpha  occ. eigenvalues --   -1.13131  -1.13127  -1.12897  -1.12881  -1.12875
 Alpha  occ. eigenvalues --   -0.16277  -0.14221  -0.12523  -0.10771
 Alpha virt. eigenvalues --   -0.07237  -0.05078  -0.04656  -0.03572  -0.03309
 Alpha virt. eigenvalues --   -0.02772  -0.02108  -0.01607  -0.00983  -0.00711
 Alpha virt. eigenvalues --   -0.00401  -0.00385   0.00073   0.00472   0.00562

  Beta  occ. eigenvalues --  -38.45506 -38.44925 -38.44833 -38.44792 -38.43937
  Beta  occ. eigenvalues --  -38.43637 -38.43385  -2.21324  -2.20749  -2.20655
  Beta  occ. eigenvalues --   -2.20505  -2.19704  -2.19468  -2.19141  -1.15057
  Beta  occ. eigenvalues --   -1.14986  -1.14960  -1.14496  -1.14399  -1.14357
  Beta  occ. eigenvalues --   -1.14334  -1.14310  -1.14284  -1.14219  -1.14199
  Beta  occ. eigenvalues --   -1.14150  -1.13395  -1.13387  -1.13300  -1.13166
  Beta  occ. eigenvalues --   -1.13106  -1.13103  -1.12826  -1.12815  -1.12810
  Beta  occ. eigenvalues --   -0.15772  -0.13804  -0.11969
  Beta virt. eigenvalues --   -0.07408  -0.07147  -0.04730  -0.04231  -0.03343
  Beta virt. eigenvalues --   -0.02857  -0.02588  -0.01907  -0.01254  -0.00636
  Beta virt. eigenvalues --   -0.00379  -0.00320  -0.00252   0.00279   0.00561

 Mulliken charges and spin densities:
               1          2
     1  Na   0.084026   0.056741
     2  Na  -0.267750  -0.100718
     3  Na   0.035749   0.378195
     4  Na   0.105303   0.039694
     5  Na   0.577117   0.097511
     6  Na  -0.643893   0.203159
     7  Na   0.109449   0.325418
 Sum of Mulliken charges =  -0.00000   1.00000

 Dipole moment (field-independent basis, Debye):
    X=             -1.6904    Y=             -0.6747    Z=              0.0630  Tot=              1.8211
 Quadrupole moment (field-independent basis, Debye-Ang):
   XX=            -51.5600   YY=            -77.6281   ZZ=            -70.9991
   XY=             -5.0287   XZ=              3.3075   YZ=             -0.9740

 Normal termination of Gaussian 16 at Sun Dec  3 17:34:13 2023.
