 Gaussian 16, Revision B.01,
 Gaussian 16:  ES64L-G16RevB.01 20-Dec-2017

 -------------------------
 #P B3LYP/6-311+g(d) force
 -------------------------

 -----
 DPGEN
 -----
 Symbolic Z-matrix:
 Charge =  0 Multiplicity = 2

                         Standard orientation:
 ---------------------------------------------------------------------
 Center     Atomic      Atomic             Coordinates (Angstroms)
 Number     Number       Type             X           Y           Z
 ---------------------------------------------------------------------
      1         11           0       -0.266797    3.179306    0.048642
      2         11           0        5.478161   -0.847955   -0.901671
      3         11           0        2.815296    1.312213   -0.073037
      4         11           0        3.555687   -1.766736    1.283602
      5         11           0       -0.639501   -0.180675    0.109590
      6         11           0       -4.392366   -1.457294   -1.110135
      7         11           0       -6.550480   -0.238859    0.643010
 ---------------------------------------------------------------------

 SCF Done:  E(UB3LYP) =  -1136.11251551     A.U. after   20 cycles

 The electronic state is 2-A.
 Alpha  occ. eigenvalues --  -38.44696 -38.44655 -38.44315 -38.44108 -38.43876
 Alpha  occ. eigenvalues --  -38.43875 -38.43737  -2.20543  -2.20492  -2.20154
 Alpha  occ. eigenvalues --   -2.19907  -2.19675  -2.19673  -2.19541  -1.14290
 Alpha  occ. eigenvalues --   -1.14215  -1.14187  -1.14141  -1.14136  -1.14059
 Alpha  occ. eigenvalues --   -1.13870  -1.13848  -1.13730  -1.13621  -1.13555
 Alpha  occ. eigenvalues --   -1.13552  -1.13342  -1.13339  -1.13333  -1.13321
 Alpha  occ. eigenvalues --   -1.13306  -1.13300  -1.13225  -1.13192  -1.13148
 Alpha  occ. eigenvalues --   -0.16430  -0.13854  -0.12551  -0.09855
 Alpha virt. eigenvalues --   -0.06682  -0.05869  -0.04729  -0.03619  -0.02801
 Alpha virt. eigenvalues --   -0.02282  -0.02039  -0.01782  -0.01368  -0.01025
 Alpha virt. eigenvalues --   -0.00403  -0.00059   0.00352   0.00402   0.00518

  Beta  occ. eigenvalues --  -38.44666 -38.44641 -38.44287 -38.44087 -38.43880
  Beta  occ. eigenvalues --  -38.43853 -38.43690  -2.20487  -2.20465  -2.20106
  Beta  occ. eigenvalues --   -2.19867  -2.19683  -2.19635  -2.19452  -1.14259
  Beta  occ. eigenvalues --   -1.14178  -1.14149  -1.14118  -1.14109  -1.14028
  Beta  occ. eigenvalues --   -1.13838  -1.13791  -1.13696  -1.13600  -1.13527
  Beta  occ. eigenvalues --   -1.13524  -1.13341  -1.13327  -1.13313  -1.13307
  Beta  occ. eigenvalues --   -1.13289  -1.13278  -1.13165  -1.13126  -1.13086
  Beta  occ. eigenvalues --   -0.15915  -0.13638  -0.12335
  Beta virt. eigenvalues --   -0.06680  -0.06041  -0.05523  -0.04395  -0.03374
  Beta virt. eigenvalues --   -0.02626  -0.02095  -0.01845  -0.01433  -0.01162
  Beta virt. eigenvalues --   -0.00697  -0.00118   0.00148   0.00433   0.00543

 Mulliken charges and spin densities:
               1          2
     1  Na   0.262764   0.191439
     2  Na   0.844652   0.018086
     3  Na  -0.459708   0.189821
     4  Na   0.148517   0.127140
     5  Na  -0.779077   0.394672
     6  Na  -0.097082  -0.021532
     7  Na   0.079934   0.100374
 Sum of Mulliken charges =  -0.00000   1.00000

 Dipole moment (field-independent basis, Debye):
    X=              1.3222    Y=             -0.0160    Z=              0.0676  Tot=              1.3240
 Quadrupole moment (field-independent basis, Debye-Ang):
   XX=            -57.0153   YY=            -68.7485   ZZ=            -67.3900
   XY=            -10.4945   XZ=             -5.8678   YZ=              2.6759

 Normal termination of Gaussian 16 at Wed Nov 29 04:00:28 2023.
