 Gaussian 16, Revision B.01,
 Gaussian 16:  ES64L-G16RevB.01 20-Dec-2017

 -------------------------
 #P B3LYP/6-311+g(d) force
 -------------------------

 -----
 DPGEN
 -----
 Symbolic Z-matrix:
 Charge =  0 Multiplicity = 2

                         Standard orientation:
 ---------------------------------------------------------------------
 Center     Atomic      Atomic             Coordinates (Angstroms)
 Number     Number       Type             X           Y           Z
 ---------------------------------------------------------------------
      1         11           0       -3.749986    1.790549   -0.174295
      2         11           0       -4.323745   -1.386608   -0.441310
      3         11           0        1.804495   -2.811528   -0.775160
      4         11           0       -0.677493   -2.998102    1.154914
      5         11           0        2.729528    2.730449   -0.006092
      6         11           0       -0.347036    3.237833    0.298934
      7         11           0        4.564237   -0.562593   -0.056992
 ---------------------------------------------------------------------

 SCF Done:  E(UB3LYP) =  -1136.10767008     A.U. after   20 cycles

 The electronic state is 2-A.
 Alpha  occ. eigenvalues --  -38.45019 -38.44742 -38.44546 -38.44500 -38.44450
 Alpha  occ. eigenvalues --  -38.44397 -38.43820  -2.20796  -2.20522  -2.20328
 Alpha  occ. eigenvalues --   -2.20300  -2.20240  -2.20190  -2.19630  -1.14463
 Alpha  occ. eigenvalues --   -1.14456  -1.14434  -1.14193  -1.14181  -1.14158
 Alpha  occ. eigenvalues --   -1.14026  -1.14024  -1.14003  -1.13973  -1.13947
 Alpha  occ. eigenvalues --   -1.13933  -1.13906  -1.13895  -1.13851  -1.13838
 Alpha  occ. eigenvalues --   -1.13816  -1.13811  -1.13285  -1.13281  -1.13262
 Alpha  occ. eigenvalues --   -0.15494  -0.13888  -0.13334  -0.10957
 Alpha virt. eigenvalues --   -0.07458  -0.05112  -0.04127  -0.03615  -0.03381
 Alpha virt. eigenvalues --   -0.02642  -0.02323  -0.01770  -0.01102  -0.00752
 Alpha virt. eigenvalues --   -0.00459  -0.00225  -0.00147   0.00470   0.00542

  Beta  occ. eigenvalues --  -38.44986 -38.44732 -38.44549 -38.44449 -38.44443
  Beta  occ. eigenvalues --  -38.44309 -38.43776  -2.20738  -2.20508  -2.20339
  Beta  occ. eigenvalues --   -2.20244  -2.20195  -2.20025  -2.19549  -1.14422
  Beta  occ. eigenvalues --   -1.14418  -1.14388  -1.14186  -1.14174  -1.14126
  Beta  occ. eigenvalues --   -1.14022  -1.14016  -1.13976  -1.13955  -1.13921
  Beta  occ. eigenvalues --   -1.13895  -1.13871  -1.13857  -1.13796  -1.13726
  Beta  occ. eigenvalues --   -1.13709  -1.13705  -1.13232  -1.13226  -1.13209
  Beta  occ. eigenvalues --   -0.14958  -0.13133  -0.12648
  Beta virt. eigenvalues --   -0.07833  -0.07567  -0.04650  -0.03615  -0.03403
  Beta virt. eigenvalues --   -0.03035  -0.02464  -0.02087  -0.01611  -0.00977
  Beta virt. eigenvalues --   -0.00462  -0.00175  -0.00027   0.00086   0.00451

 Mulliken charges and spin densities:
               1          2
     1  Na   0.161547   0.077929
     2  Na  -0.028738   0.118018
     3  Na  -0.179774  -0.001931
     4  Na  -0.153144   0.256405
     5  Na   0.069234  -0.014349
     6  Na   0.052865   0.156334
     7  Na   0.078008   0.407594
 Sum of Mulliken charges =  -0.00000   1.00000

 Dipole moment (field-independent basis, Debye):
    X=             -0.7084    Y=             -0.5821    Z=             -0.0054  Tot=              0.9169
 Quadrupole moment (field-independent basis, Debye-Ang):
   XX=            -62.0185   YY=            -67.9405   ZZ=            -70.8047
   XY=              2.3029   XZ=             -0.6336   YZ=              0.8697

 Normal termination of Gaussian 16 at Sun Dec  3 22:56:16 2023.
