 Gaussian 16, Revision B.01,
 Gaussian 16:  ES64L-G16RevB.01 20-Dec-2017

 -------------------------
 #P B3LYP/6-311+g(d) force
 -------------------------

 -----
 DPGEN
 -----
 Symbolic Z-matrix:
 Charge =  0 Multiplicity = 2

                         Standard orientation:
 ---------------------------------------------------------------------
 Center     Atomic      Atomic             Coordinates (Angstroms)
 Number     Number       Type             X           Y           Z
 ---------------------------------------------------------------------
      1         11           0       -1.259436    2.410060   -0.394782
      2         11           0        2.374598    2.078186   -0.202651
      3         11           0       -0.588791   -2.534332   -0.060388
      4         11           0        0.187234    0.292930    2.175016
      5         11           0       -2.989267   -0.189142    0.345127
      6         11           0       -0.193659   -0.401490   -1.942023
      7         11           0        2.469322   -1.656213    0.079700
 ---------------------------------------------------------------------

 SCF Done:  E(UB3LYP) =  -1136.13545530     A.U. after   18 cycles

 The electronic state is 2-A.
 Alpha  occ. eigenvalues --  -38.44107 -38.43899 -38.43670 -38.43651 -38.43585
 Alpha  occ. eigenvalues --  -38.43367 -38.43109  -2.19976  -2.19865  -2.19505
 Alpha  occ. eigenvalues --   -2.19464  -2.19459  -2.19242  -2.19066  -1.13642
 Alpha  occ. eigenvalues --   -1.13623  -1.13608  -1.13595  -1.13503  -1.13458
 Alpha  occ. eigenvalues --   -1.13195  -1.13171  -1.13149  -1.13146  -1.13137
 Alpha  occ. eigenvalues --   -1.13124  -1.13118  -1.13107  -1.13106  -1.12924
 Alpha  occ. eigenvalues --   -1.12900  -1.12858  -1.12766  -1.12702  -1.12667
 Alpha  occ. eigenvalues --   -0.18861  -0.12868  -0.12477  -0.11389
 Alpha virt. eigenvalues --   -0.05236  -0.05169  -0.04397  -0.03395  -0.03361
 Alpha virt. eigenvalues --   -0.02974  -0.01261  -0.00947  -0.00137  -0.00055
 Alpha virt. eigenvalues --    0.00042   0.00389   0.00820   0.00927   0.00945

  Beta  occ. eigenvalues --  -38.44018 -38.43822 -38.43669 -38.43649 -38.43578
  Beta  occ. eigenvalues --  -38.43356 -38.43100  -2.19812  -2.19723  -2.19503
  Beta  occ. eigenvalues --   -2.19466  -2.19450  -2.19227  -2.19054  -1.13537
  Beta  occ. eigenvalues --   -1.13525  -1.13492  -1.13474  -1.13403  -1.13359
  Beta  occ. eigenvalues --   -1.13195  -1.13156  -1.13146  -1.13139  -1.13125
  Beta  occ. eigenvalues --   -1.13120  -1.13117  -1.13109  -1.13077  -1.12907
  Beta  occ. eigenvalues --   -1.12870  -1.12853  -1.12747  -1.12672  -1.12658
  Beta  occ. eigenvalues --   -0.18073  -0.12649  -0.12249
  Beta virt. eigenvalues --   -0.07432  -0.05243  -0.05069  -0.04335  -0.02601
  Beta virt. eigenvalues --   -0.02528  -0.01972  -0.01173  -0.00884  -0.00104
  Beta virt. eigenvalues --   -0.00057   0.00081   0.00405   0.00900   0.00919

 Mulliken charges and spin densities:
               1          2
     1  Na   0.140571  -0.028533
     2  Na   0.006481  -0.109989
     3  Na   0.538791   0.115854
     4  Na  -0.624402   0.634188
     5  Na   0.208514   0.032979
     6  Na  -0.365296   0.452374
     7  Na   0.095341  -0.096874
 Sum of Mulliken charges =  -0.00000   1.00000

 Dipole moment (field-independent basis, Debye):
    X=              0.1713    Y=              0.1444    Z=              0.1871  Tot=              0.2918
 Quadrupole moment (field-independent basis, Debye-Ang):
   XX=            -59.5903   YY=            -66.1451   ZZ=            -70.0189
   XY=              0.0417   XZ=             -0.9904   YZ=             -1.5022

 Normal termination of Gaussian 16 at Thu Dec  7 05:48:40 2023.
