 Gaussian 16, Revision B.01,
 Gaussian 16:  ES64L-G16RevB.01 20-Dec-2017

 -------------------------
 #P B3LYP/6-311+g(d) force
 -------------------------

 -----
 DPGEN
 -----
 Symbolic Z-matrix:
 Charge =  0 Multiplicity = 2

                         Standard orientation:
 ---------------------------------------------------------------------
 Center     Atomic      Atomic             Coordinates (Angstroms)
 Number     Number       Type             X           Y           Z
 ---------------------------------------------------------------------
      1         11           0       -0.822496    1.655497    1.059776
      2         11           0        2.453911    0.824676   -0.113073
      3         11           0        0.046049   -1.558196   -0.359663
      4         11           0       -2.956288   -0.980880    1.544073
      5         11           0       -3.560976   -1.290555   -1.611167
      6         11           0        4.127512   -2.648988    0.106418
      7         11           0        0.712288    3.998446   -0.626364
 ---------------------------------------------------------------------

 SCF Done:  E(UB3LYP) =  -1136.12197272     A.U. after   21 cycles

 The electronic state is 2-A.
 Alpha  occ. eigenvalues --  -38.45073 -38.44781 -38.44280 -38.44095 -38.43666
 Alpha  occ. eigenvalues --  -38.43655 -38.43426  -2.20876  -2.20506  -2.20101
 Alpha  occ. eigenvalues --   -2.19962  -2.19497  -2.19483  -2.19320  -1.14607
 Alpha  occ. eigenvalues --   -1.14578  -1.14446  -1.14186  -1.14184  -1.14121
 Alpha  occ. eigenvalues --   -1.13834  -1.13808  -1.13654  -1.13640  -1.13622
 Alpha  occ. eigenvalues --   -1.13604  -1.13164  -1.13149  -1.13137  -1.13134
 Alpha  occ. eigenvalues --   -1.13111  -1.13104  -1.13015  -1.12997  -1.12908
 Alpha  occ. eigenvalues --   -0.17317  -0.13839  -0.12332  -0.10165
 Alpha virt. eigenvalues --   -0.06884  -0.05285  -0.04960  -0.03605  -0.02692
 Alpha virt. eigenvalues --   -0.02183  -0.02048  -0.01770  -0.01094  -0.00725
 Alpha virt. eigenvalues --   -0.00133   0.00082   0.00253   0.00503   0.00634

  Beta  occ. eigenvalues --  -38.45066 -38.44790 -38.44276 -38.44067 -38.43641
  Beta  occ. eigenvalues --  -38.43568 -38.43385  -2.20866  -2.20522  -2.20095
  Beta  occ. eigenvalues --   -2.19917  -2.19436  -2.19333  -2.19251  -1.14604
  Beta  occ. eigenvalues --   -1.14542  -1.14446  -1.14197  -1.14195  -1.14131
  Beta  occ. eigenvalues --   -1.13828  -1.13799  -1.13649  -1.13614  -1.13583
  Beta  occ. eigenvalues --   -1.13537  -1.13130  -1.13104  -1.13079  -1.13036
  Beta  occ. eigenvalues --   -1.13020  -1.12999  -1.12970  -1.12954  -1.12831
  Beta  occ. eigenvalues --   -0.16769  -0.13401  -0.12243
  Beta virt. eigenvalues --   -0.06786  -0.06344  -0.05204  -0.04544  -0.03248
  Beta virt. eigenvalues --   -0.02565  -0.02009  -0.01832  -0.01122  -0.00972
  Beta virt. eigenvalues --   -0.00337  -0.00037   0.00214   0.00563   0.00628

 Mulliken charges and spin densities:
               1          2
     1  Na  -0.781921   0.166306
     2  Na  -0.745361   0.068225
     3  Na  -0.978298   0.192109
     4  Na   0.710475   0.039956
     5  Na   0.303865   0.476856
     6  Na   0.295364  -0.081463
     7  Na   1.195874   0.138011
 Sum of Mulliken charges =  -0.00000   1.00000

 Dipole moment (field-independent basis, Debye):
    X=              0.6889    Y=             -0.1291    Z=              0.4882  Tot=              0.8542
 Quadrupole moment (field-independent basis, Debye-Ang):
   XX=            -59.4861   YY=            -63.2366   ZZ=            -72.7614
   XY=             -4.8755   XZ=             -3.1980   YZ=             -4.4306

 Normal termination of Gaussian 16 at Tue Nov 28 21:13:25 2023.
