 Gaussian 16, Revision B.01,
 Gaussian 16:  ES64L-G16RevB.01 20-Dec-2017

 -------------------------
 #P B3LYP/6-311+g(d) force
 -------------------------

 -----
 DPGEN
 -----
 Symbolic Z-matrix:
 Charge =  0 Multiplicity = 2

                         Standard orientation:
 ---------------------------------------------------------------------
 Center     Atomic      Atomic             Coordinates (Angstroms)
 Number     Number       Type             X           Y           Z
 ---------------------------------------------------------------------
      1         11           0        2.759889    1.828790    0.026288
      2         11           0        2.611958   -1.687326   -0.155348
      3         11           0       -1.548843    2.450201    0.108614
      4         11           0        0.274578    0.454685   -1.671160
      5         11           0       -1.031561   -2.438159   -0.433989
      6         11           0        0.323981   -0.416476    2.078196
      7         11           0       -3.390002   -0.191716    0.047399
 ---------------------------------------------------------------------

 SCF Done:  E(UB3LYP) =  -1136.13313343     A.U. after   21 cycles

 The electronic state is 2-A.
 Alpha  occ. eigenvalues --  -38.44545 -38.44249 -38.44134 -38.43725 -38.43464
 Alpha  occ. eigenvalues --  -38.43321 -38.42931  -2.20374  -2.20059  -2.19975
 Alpha  occ. eigenvalues --   -2.19595  -2.19308  -2.19272  -2.18803  -1.14049
 Alpha  occ. eigenvalues --   -1.14029  -1.14027  -1.13743  -1.13717  -1.13705
 Alpha  occ. eigenvalues --   -1.13651  -1.13641  -1.13601  -1.13260  -1.13220
 Alpha  occ. eigenvalues --   -1.13216  -1.13039  -1.12967  -1.12948  -1.12939
 Alpha  occ. eigenvalues --   -1.12900  -1.12881  -1.12489  -1.12466  -1.12433
 Alpha  occ. eigenvalues --   -0.18507  -0.13501  -0.11939  -0.10700
 Alpha virt. eigenvalues --   -0.06185  -0.05624  -0.03994  -0.03420  -0.02808
 Alpha virt. eigenvalues --   -0.02475  -0.01904  -0.01287  -0.00488  -0.00147
 Alpha virt. eigenvalues --   -0.00053   0.00317   0.00694   0.00814   0.00845

  Beta  occ. eigenvalues --  -38.44546 -38.44246 -38.44128 -38.43633 -38.43460
  Beta  occ. eigenvalues --  -38.43257 -38.42918  -2.20378  -2.20057  -2.19968
  Beta  occ. eigenvalues --   -2.19425  -2.19303  -2.19157  -2.18784  -1.14052
  Beta  occ. eigenvalues --   -1.14032  -1.14019  -1.13735  -1.13707  -1.13700
  Beta  occ. eigenvalues --   -1.13640  -1.13615  -1.13602  -1.13147  -1.13099
  Beta  occ. eigenvalues --   -1.13095  -1.13018  -1.12949  -1.12940  -1.12870
  Beta  occ. eigenvalues --   -1.12816  -1.12808  -1.12476  -1.12430  -1.12420
  Beta  occ. eigenvalues --   -0.17781  -0.13307  -0.11716
  Beta virt. eigenvalues --   -0.06788  -0.06101  -0.05612  -0.03960  -0.02659
  Beta virt. eigenvalues --   -0.02039  -0.01809  -0.01445  -0.01229  -0.00531
  Beta virt. eigenvalues --   -0.00171   0.00113   0.00345   0.00764   0.00820

 Mulliken charges and spin densities:
               1          2
     1  Na   0.116792  -0.092622
     2  Na   0.309523  -0.002759
     3  Na   0.190342  -0.053436
     4  Na  -0.169576   0.427050
     5  Na   0.164757   0.024115
     6  Na  -0.550460   0.722839
     7  Na  -0.061377  -0.025187
 Sum of Mulliken charges =  -0.00000   1.00000

 Dipole moment (field-independent basis, Debye):
    X=              0.2644    Y=              0.0704    Z=              0.1782  Tot=              0.3265
 Quadrupole moment (field-independent basis, Debye-Ang):
   XX=            -51.4645   YY=            -67.4519   ZZ=            -74.5379
   XY=              0.3931   XZ=             -0.2981   YZ=              1.8726

 Normal termination of Gaussian 16 at Tue Dec  5 19:16:13 2023.
