 Gaussian 16, Revision B.01,
 Gaussian 16:  ES64L-G16RevB.01 20-Dec-2017

 -------------------------
 #P B3LYP/6-311+g(d) force
 -------------------------

 -----
 DPGEN
 -----
 Symbolic Z-matrix:
 Charge =  0 Multiplicity = 2

                         Standard orientation:
 ---------------------------------------------------------------------
 Center     Atomic      Atomic             Coordinates (Angstroms)
 Number     Number       Type             X           Y           Z
 ---------------------------------------------------------------------
      1         11           0        3.560286   -0.916691    0.781017
      2         11           0        1.382680   -2.092315   -1.145198
      3         11           0        2.109106    1.839828   -0.702235
      4         11           0       -0.873807   -1.170615    1.669299
      5         11           0       -0.879635    3.250364    0.453090
      6         11           0       -1.449286    0.253090   -0.801531
      7         11           0       -3.849344   -1.163662   -0.254443
 ---------------------------------------------------------------------

 SCF Done:  E(UB3LYP) =  -1136.11236638     A.U. after   28 cycles

 The electronic state is 2-A.
 Alpha  occ. eigenvalues --  -38.45207 -38.44990 -38.44404 -38.43878 -38.43443
 Alpha  occ. eigenvalues --  -38.43423 -38.43229  -2.21017  -2.20811  -2.20276
 Alpha  occ. eigenvalues --   -2.19690  -2.19473  -2.19230  -2.19141  -1.14718
 Alpha  occ. eigenvalues --   -1.14680  -1.14659  -1.14496  -1.14459  -1.14424
 Alpha  occ. eigenvalues --   -1.14044  -1.13897  -1.13883  -1.13390  -1.13365
 Alpha  occ. eigenvalues --   -1.13297  -1.13259  -1.13148  -1.13079  -1.12898
 Alpha  occ. eigenvalues --   -1.12878  -1.12859  -1.12799  -1.12748  -1.12726
 Alpha  occ. eigenvalues --   -0.17944  -0.13987  -0.12134  -0.09665
 Alpha virt. eigenvalues --   -0.07156  -0.05601  -0.04400  -0.03580  -0.02710
 Alpha virt. eigenvalues --   -0.02373  -0.01698  -0.01268  -0.00926  -0.00190
 Alpha virt. eigenvalues --   -0.00119  -0.00026   0.00316   0.00626   0.00656

  Beta  occ. eigenvalues --  -38.45209 -38.44982 -38.44359 -38.43867 -38.43424
  Beta  occ. eigenvalues --  -38.43418 -38.43147  -2.21024  -2.20800  -2.20195
  Beta  occ. eigenvalues --   -2.19670  -2.19445  -2.19221  -2.18988  -1.14725
  Beta  occ. eigenvalues --   -1.14686  -1.14643  -1.14491  -1.14437  -1.14411
  Beta  occ. eigenvalues --   -1.13990  -1.13838  -1.13818  -1.13374  -1.13351
  Beta  occ. eigenvalues --   -1.13277  -1.13202  -1.13132  -1.13044  -1.12890
  Beta  occ. eigenvalues --   -1.12865  -1.12854  -1.12704  -1.12639  -1.12621
  Beta  occ. eigenvalues --   -0.17391  -0.13622  -0.11997
  Beta virt. eigenvalues --   -0.06967  -0.06075  -0.05441  -0.04257  -0.03075
  Beta virt. eigenvalues --   -0.02364  -0.02067  -0.01158  -0.01090  -0.00717
  Beta virt. eigenvalues --   -0.00106   0.00088   0.00188   0.00438   0.00662

 Mulliken charges and spin densities:
               1          2
     1  Na   0.394839   0.031435
     2  Na   0.003176   0.217366
     3  Na   0.006307   0.079908
     4  Na  -0.350771   0.430235
     5  Na   0.207211  -0.006415
     6  Na  -0.506034   0.068386
     7  Na   0.245273   0.179084
 Sum of Mulliken charges =  -0.00000   1.00000

 Dipole moment (field-independent basis, Debye):
    X=              0.9815    Y=             -0.5222    Z=              0.7394  Tot=              1.3352
 Quadrupole moment (field-independent basis, Debye-Ang):
   XX=            -55.6586   YY=            -67.6763   ZZ=            -72.2481
   XY=             -1.2594   XZ=              0.3715   YZ=              2.9316

 Normal termination of Gaussian 16 at Thu Dec  7 06:19:17 2023.
