 Gaussian 16, Revision B.01,
 Gaussian 16:  ES64L-G16RevB.01 20-Dec-2017

 -------------------------
 #P B3LYP/6-311+g(d) force
 -------------------------

 -----
 DPGEN
 -----
 Symbolic Z-matrix:
 Charge =  0 Multiplicity = 2

                         Standard orientation:
 ---------------------------------------------------------------------
 Center     Atomic      Atomic             Coordinates (Angstroms)
 Number     Number       Type             X           Y           Z
 ---------------------------------------------------------------------
      1         11           0        2.839937    1.288559   -0.191322
      2         11           0        0.501774   -0.151159    2.157760
      3         11           0       -0.743886    2.955943   -0.049246
      4         11           0       -1.170099   -2.630166    0.000220
      5         11           0       -3.271760    0.054331   -0.102397
      6         11           0       -0.376331    0.352398   -1.201232
      7         11           0        2.220365   -1.869906   -0.613783
 ---------------------------------------------------------------------

 SCF Done:  E(UB3LYP) =  -1136.13270622     A.U. after   19 cycles

 The electronic state is 2-A.
 Alpha  occ. eigenvalues --  -38.44360 -38.44076 -38.43748 -38.43516 -38.43449
 Alpha  occ. eigenvalues --  -38.43283 -38.42860  -2.20198  -2.19920  -2.19601
 Alpha  occ. eigenvalues --   -2.19390  -2.19329  -2.19149  -2.18950  -1.13903
 Alpha  occ. eigenvalues --   -1.13851  -1.13822  -1.13603  -1.13583  -1.13558
 Alpha  occ. eigenvalues --   -1.13399  -1.13242  -1.13198  -1.13068  -1.13042
 Alpha  occ. eigenvalues --   -1.13034  -1.12993  -1.12948  -1.12941  -1.12846
 Alpha  occ. eigenvalues --   -1.12808  -1.12780  -1.12624  -1.12588  -1.12566
 Alpha  occ. eigenvalues --   -0.18728  -0.13252  -0.12457  -0.10509
 Alpha virt. eigenvalues --   -0.05910  -0.05072  -0.04741  -0.03089  -0.02694
 Alpha virt. eigenvalues --   -0.02357  -0.01708  -0.01117  -0.00519  -0.00342
 Alpha virt. eigenvalues --   -0.00006   0.00329   0.00821   0.00829   0.00899

  Beta  occ. eigenvalues --  -38.44360 -38.44068 -38.43746 -38.43497 -38.43341
  Beta  occ. eigenvalues --  -38.43279 -38.42824  -2.20198  -2.19910  -2.19599
  Beta  occ. eigenvalues --   -2.19358  -2.19144  -2.19129  -2.18886  -1.13900
  Beta  occ. eigenvalues --   -1.13841  -1.13825  -1.13596  -1.13560  -1.13545
  Beta  occ. eigenvalues --   -1.13393  -1.13226  -1.13198  -1.13044  -1.13017
  Beta  occ. eigenvalues --   -1.12996  -1.12866  -1.12839  -1.12811  -1.12802
  Beta  occ. eigenvalues --   -1.12784  -1.12772  -1.12561  -1.12547  -1.12521
  Beta  occ. eigenvalues --   -0.18036  -0.13007  -0.12250
  Beta virt. eigenvalues --   -0.06561  -0.05860  -0.05032  -0.04696  -0.02361
  Beta virt. eigenvalues --   -0.01956  -0.01641  -0.01277  -0.01040  -0.00546
  Beta virt. eigenvalues --   -0.00356   0.00173   0.00388   0.00829   0.00882

 Mulliken charges and spin densities:
               1          2
     1  Na   0.302773   0.056775
     2  Na  -0.572293   0.720910
     3  Na   0.180555  -0.009572
     4  Na   0.276966   0.051700
     5  Na   0.225638   0.003751
     6  Na  -0.565866   0.053812
     7  Na   0.152228   0.122623
 Sum of Mulliken charges =  -0.00000   1.00000

 Dipole moment (field-independent basis, Debye):
    X=             -0.1807    Y=              0.2046    Z=              0.2684  Tot=              0.3828
 Quadrupole moment (field-independent basis, Debye-Ang):
   XX=            -54.7217   YY=            -61.9021   ZZ=            -75.7394
   XY=              0.6727   XZ=             -1.5745   YZ=              1.0816

 Normal termination of Gaussian 16 at Thu Dec  7 15:57:08 2023.
