 Gaussian 16, Revision B.01,
 Gaussian 16:  ES64L-G16RevB.01 20-Dec-2017

 -------------------------
 #P B3LYP/6-311+g(d) force
 -------------------------

 -----
 DPGEN
 -----
 Symbolic Z-matrix:
 Charge =  0 Multiplicity = 2

                         Standard orientation:
 ---------------------------------------------------------------------
 Center     Atomic      Atomic             Coordinates (Angstroms)
 Number     Number       Type             X           Y           Z
 ---------------------------------------------------------------------
      1         11           0        0.399700    0.063722    2.221082
      2         11           0        1.999096   -2.132584    0.071633
      3         11           0        2.862690    0.915272   -0.418382
      4         11           0       -2.869255    0.547726    0.325111
      5         11           0       -0.426849    2.974480   -0.314347
      6         11           0       -1.917635   -2.324072   -0.468142
      7         11           0       -0.047746   -0.044543   -1.416955
 ---------------------------------------------------------------------

 SCF Done:  E(UB3LYP) =  -1136.13471021     A.U. after   19 cycles

 The electronic state is 2-A.
 Alpha  occ. eigenvalues --  -38.44020 -38.43926 -38.43838 -38.43598 -38.43367
 Alpha  occ. eigenvalues --  -38.43186 -38.42919  -2.19893  -2.19794  -2.19719
 Alpha  occ. eigenvalues --   -2.19479  -2.19245  -2.19025  -2.18991  -1.13598
 Alpha  occ. eigenvalues --   -1.13550  -1.13525  -1.13455  -1.13422  -1.13417
 Alpha  occ. eigenvalues --   -1.13412  -1.13378  -1.13362  -1.13165  -1.13138
 Alpha  occ. eigenvalues --   -1.13106  -1.12973  -1.12892  -1.12865  -1.12752
 Alpha  occ. eigenvalues --   -1.12681  -1.12661  -1.12656  -1.12620  -1.12590
 Alpha  occ. eigenvalues --   -0.18868  -0.13358  -0.12256  -0.10979
 Alpha virt. eigenvalues --   -0.05518  -0.05108  -0.04558  -0.03394  -0.02782
 Alpha virt. eigenvalues --   -0.02695  -0.01445  -0.01061  -0.00266  -0.00193
 Alpha virt. eigenvalues --    0.00004   0.00363   0.00820   0.00885   0.00919

  Beta  occ. eigenvalues --  -38.44009 -38.43833 -38.43820 -38.43591 -38.43361
  Beta  occ. eigenvalues --  -38.43183 -38.42867  -2.19876  -2.19713  -2.19599
  Beta  occ. eigenvalues --   -2.19471  -2.19235  -2.19022  -2.18897  -1.13584
  Beta  occ. eigenvalues --   -1.13517  -1.13516  -1.13417  -1.13368  -1.13351
  Beta  occ. eigenvalues --   -1.13324  -1.13283  -1.13271  -1.13159  -1.13110
  Beta  occ. eigenvalues --   -1.13098  -1.12955  -1.12880  -1.12855  -1.12735
  Beta  occ. eigenvalues --   -1.12667  -1.12655  -1.12594  -1.12553  -1.12531
  Beta  occ. eigenvalues --   -0.18148  -0.13133  -0.12016
  Beta virt. eigenvalues --   -0.06998  -0.05468  -0.05068  -0.04516  -0.02599
  Beta virt. eigenvalues --   -0.02026  -0.01631  -0.01353  -0.00995  -0.00264
  Beta virt. eigenvalues --   -0.00226   0.00144   0.00395   0.00875   0.00911

 Mulliken charges and spin densities:
               1          2
     1  Na  -0.584320   0.670664
     2  Na   0.319708   0.104394
     3  Na   0.213290   0.003564
     4  Na   0.179360   0.114978
     5  Na   0.081587   0.010547
     6  Na   0.233233   0.033864
     7  Na  -0.442857   0.061988
 Sum of Mulliken charges =  -0.00000   1.00000

 Dipole moment (field-independent basis, Debye):
    X=              0.2413    Y=              0.0289    Z=              0.3287  Tot=              0.4087
 Quadrupole moment (field-independent basis, Debye-Ang):
   XX=            -57.5384   YY=            -62.9658   ZZ=            -73.4534
   XY=              0.0187   XZ=             -1.2711   YZ=             -0.0109

 Normal termination of Gaussian 16 at Thu Dec  7 02:32:38 2023.
