 Gaussian 16, Revision B.01,
 Gaussian 16:  ES64L-G16RevB.01 20-Dec-2017

 -------------------------
 #P B3LYP/6-311+g(d) force
 -------------------------

 -----
 DPGEN
 -----
 Symbolic Z-matrix:
 Charge =  0 Multiplicity = 2

                         Standard orientation:
 ---------------------------------------------------------------------
 Center     Atomic      Atomic             Coordinates (Angstroms)
 Number     Number       Type             X           Y           Z
 ---------------------------------------------------------------------
      1         11           0       -0.753970   -1.331408   -1.012775
      2         11           0       -1.446386    2.325741   -0.853340
      3         11           0       -0.965619    0.092427    2.105056
      4         11           0        2.534043   -1.955522    0.587834
      5         11           0        1.796188    1.555667    1.226615
      6         11           0        2.579388    0.322456   -1.794261
      7         11           0       -3.743644   -1.009362   -0.259129
 ---------------------------------------------------------------------

 SCF Done:  E(UB3LYP) =  -1136.12622378     A.U. after   21 cycles

 The electronic state is 2-A.
 Alpha  occ. eigenvalues --  -38.44394 -38.44386 -38.44137 -38.44011 -38.43861
 Alpha  occ. eigenvalues --  -38.43341 -38.43165  -2.20242  -2.20199  -2.19924
 Alpha  occ. eigenvalues --   -2.19836  -2.19737  -2.19229  -2.19032  -1.13910
 Alpha  occ. eigenvalues --   -1.13896  -1.13891  -1.13865  -1.13856  -1.13831
 Alpha  occ. eigenvalues --   -1.13607  -1.13569  -1.13543  -1.13499  -1.13489
 Alpha  occ. eigenvalues --   -1.13479  -1.13436  -1.13364  -1.13355  -1.12930
 Alpha  occ. eigenvalues --   -1.12900  -1.12846  -1.12729  -1.12700  -1.12647
 Alpha  occ. eigenvalues --   -0.18165  -0.13742  -0.11299  -0.11079
 Alpha virt. eigenvalues --   -0.06210  -0.05483  -0.04694  -0.03159  -0.02832
 Alpha virt. eigenvalues --   -0.02608  -0.02097  -0.01058  -0.00634  -0.00226
 Alpha virt. eigenvalues --    0.00186   0.00257   0.00394   0.00468   0.00748

  Beta  occ. eigenvalues --  -38.44390 -38.44350 -38.44100 -38.43998 -38.43799
  Beta  occ. eigenvalues --  -38.43327 -38.43152  -2.20207  -2.20160  -2.19854
  Beta  occ. eigenvalues --   -2.19813  -2.19625  -2.19207  -2.19013  -1.13897
  Beta  occ. eigenvalues --   -1.13858  -1.13854  -1.13838  -1.13838  -1.13805
  Beta  occ. eigenvalues --   -1.13553  -1.13520  -1.13496  -1.13481  -1.13474
  Beta  occ. eigenvalues --   -1.13450  -1.13361  -1.13282  -1.13271  -1.12905
  Beta  occ. eigenvalues --   -1.12866  -1.12836  -1.12700  -1.12673  -1.12635
  Beta  occ. eigenvalues --   -0.17432  -0.13578  -0.10899
  Beta virt. eigenvalues --   -0.07512  -0.06039  -0.05070  -0.04280  -0.02943
  Beta virt. eigenvalues --   -0.02231  -0.02063  -0.01819  -0.00859  -0.00333
  Beta virt. eigenvalues --   -0.00136   0.00277   0.00327   0.00451   0.00608

 Mulliken charges and spin densities:
               1          2
     1  Na  -0.603099   0.134041
     2  Na  -0.288390   0.207162
     3  Na  -0.089670   0.250265
     4  Na   0.168030   0.077404
     5  Na   0.215419   0.093231
     6  Na   0.213405   0.281770
     7  Na   0.384306  -0.043874
 Sum of Mulliken charges =  -0.00000   1.00000

 Dipole moment (field-independent basis, Debye):
    X=             -0.4360    Y=              0.1254    Z=             -0.0565  Tot=              0.4572
 Quadrupole moment (field-independent basis, Debye-Ang):
   XX=            -52.2853   YY=            -73.8123   ZZ=            -68.4888
   XY=             -0.8114   XZ=             -0.3101   YZ=             -6.1136

 Normal termination of Gaussian 16 at Thu Dec  7 17:57:14 2023.
