 Gaussian 16, Revision B.01,
 Gaussian 16:  ES64L-G16RevB.01 20-Dec-2017

 -------------------------
 #P B3LYP/6-311+g(d) force
 -------------------------

 -----
 DPGEN
 -----
 Symbolic Z-matrix:
 Charge =  0 Multiplicity = 2

                         Standard orientation:
 ---------------------------------------------------------------------
 Center     Atomic      Atomic             Coordinates (Angstroms)
 Number     Number       Type             X           Y           Z
 ---------------------------------------------------------------------
      1         11           0       -2.615902    2.961185    0.223208
      2         11           0       -4.822689   -0.484937   -0.736944
      3         11           0       -2.507216   -1.853286    0.599932
      4         11           0        0.785152   -2.199003   -0.387071
      5         11           0        0.204958    1.354453    0.020756
      6         11           0        3.134633   -0.342446    1.041135
      7         11           0        5.821064    0.564032   -0.761016
 ---------------------------------------------------------------------

 SCF Done:  E(UB3LYP) =  -1136.11162691     A.U. after   23 cycles

 The electronic state is 2-A.
 Alpha  occ. eigenvalues --  -38.45307 -38.45253 -38.44425 -38.44293 -38.43934
 Alpha  occ. eigenvalues --  -38.43561 -38.43195  -2.21123  -2.21048  -2.20260
 Alpha  occ. eigenvalues --   -2.20135  -2.19767  -2.19400  -2.18985  -1.14825
 Alpha  occ. eigenvalues --   -1.14761  -1.14715  -1.14683  -1.14681  -1.14668
 Alpha  occ. eigenvalues --   -1.13952  -1.13934  -1.13908  -1.13824  -1.13789
 Alpha  occ. eigenvalues --   -1.13746  -1.13460  -1.13420  -1.13413  -1.13078
 Alpha  occ. eigenvalues --   -1.13057  -1.13031  -1.12661  -1.12649  -1.12611
 Alpha  occ. eigenvalues --   -0.16729  -0.14439  -0.12046  -0.11500
 Alpha virt. eigenvalues --   -0.06269  -0.05406  -0.04839  -0.03316  -0.03001
 Alpha virt. eigenvalues --   -0.02664  -0.02199  -0.01231  -0.00990  -0.00858
 Alpha virt. eigenvalues --   -0.00507  -0.00225   0.00269   0.00285   0.00645

  Beta  occ. eigenvalues --  -38.45237 -38.45151 -38.44429 -38.44239 -38.43931
  Beta  occ. eigenvalues --  -38.43555 -38.43178  -2.20997  -2.20859  -2.20273
  Beta  occ. eigenvalues --   -2.20038  -2.19766  -2.19388  -2.18956  -1.14733
  Beta  occ. eigenvalues --   -1.14676  -1.14631  -1.14553  -1.14552  -1.14544
  Beta  occ. eigenvalues --   -1.13965  -1.13948  -1.13870  -1.13761  -1.13733
  Beta  occ. eigenvalues --   -1.13661  -1.13451  -1.13422  -1.13401  -1.13069
  Beta  occ. eigenvalues --   -1.13045  -1.13033  -1.12633  -1.12630  -1.12591
  Beta  occ. eigenvalues --   -0.16245  -0.13512  -0.11108
  Beta virt. eigenvalues --   -0.08576  -0.05759  -0.05336  -0.04660  -0.03052
  Beta virt. eigenvalues --   -0.02707  -0.02176  -0.01759  -0.01155  -0.00718
  Beta virt. eigenvalues --   -0.00482  -0.00221  -0.00103   0.00264   0.00368

 Mulliken charges and spin densities:
               1          2
     1  Na   0.343395  -0.072921
     2  Na   0.173778   0.142494
     3  Na  -0.313852   0.254023
     4  Na   0.247502  -0.092790
     5  Na  -1.141067   0.265699
     6  Na   0.586842   0.044744
     7  Na   0.103401   0.458752
 Sum of Mulliken charges =  -0.00000   1.00000

 Dipole moment (field-independent basis, Debye):
    X=              0.3858    Y=             -0.4596    Z=             -0.6171  Tot=              0.8607
 Quadrupole moment (field-independent basis, Debye-Ang):
   XX=            -51.0765   YY=            -75.8777   ZZ=            -67.5595
   XY=             -0.9618   XZ=             -0.3252   YZ=             -0.3458

 Normal termination of Gaussian 16 at Wed Nov 29 00:49:27 2023.
