 Gaussian 16, Revision B.01,
 Gaussian 16:  ES64L-G16RevB.01 20-Dec-2017

 -------------------------
 #P B3LYP/6-311+g(d) force
 -------------------------

 -----
 DPGEN
 -----
 Symbolic Z-matrix:
 Charge =  0 Multiplicity = 2

                         Standard orientation:
 ---------------------------------------------------------------------
 Center     Atomic      Atomic             Coordinates (Angstroms)
 Number     Number       Type             X           Y           Z
 ---------------------------------------------------------------------
      1         11           0        0.210331   -0.022335    1.976935
      2         11           0       -0.146206    0.229671   -1.667204
      3         11           0        0.972738   -2.822478   -0.597325
      4         11           0       -2.734991    1.178840   -0.390369
      5         11           0       -2.107655   -1.946274    0.573182
      6         11           0        0.409503    3.208249    0.098425
      7         11           0        3.396280    0.174327    0.006355
 ---------------------------------------------------------------------

 SCF Done:  E(UB3LYP) =  -1136.13462214     A.U. after   21 cycles

 The electronic state is 2-A.
 Alpha  occ. eigenvalues --  -38.44337 -38.44069 -38.43690 -38.43687 -38.43641
 Alpha  occ. eigenvalues --  -38.43314 -38.43272  -2.20093  -2.19856  -2.19563
 Alpha  occ. eigenvalues --   -2.19528  -2.19518  -2.19277  -2.19160  -1.13776
 Alpha  occ. eigenvalues --   -1.13743  -1.13736  -1.13539  -1.13520  -1.13488
 Alpha  occ. eigenvalues --   -1.13321  -1.13221  -1.13210  -1.13203  -1.13182
 Alpha  occ. eigenvalues --   -1.13177  -1.13155  -1.13151  -1.13144  -1.12949
 Alpha  occ. eigenvalues --   -1.12902  -1.12889  -1.12834  -1.12803  -1.12800
 Alpha  occ. eigenvalues --   -0.18431  -0.12621  -0.12545  -0.10805
 Alpha virt. eigenvalues --   -0.05887  -0.05112  -0.04637  -0.03111  -0.03073
 Alpha virt. eigenvalues --   -0.02553  -0.01492  -0.01359  -0.00404  -0.00387
 Alpha virt. eigenvalues --    0.00020   0.00356   0.00770   0.00834   0.00870

  Beta  occ. eigenvalues --  -38.44340 -38.44069 -38.43677 -38.43674 -38.43553
  Beta  occ. eigenvalues --  -38.43257 -38.43249  -2.20100  -2.19857  -2.19547
  Beta  occ. eigenvalues --   -2.19493  -2.19367  -2.19159  -2.19136  -1.13771
  Beta  occ. eigenvalues --   -1.13749  -1.13739  -1.13527  -1.13521  -1.13487
  Beta  occ. eigenvalues --   -1.13296  -1.13188  -1.13184  -1.13175  -1.13148
  Beta  occ. eigenvalues --   -1.13135  -1.13100  -1.13040  -1.13032  -1.12872
  Beta  occ. eigenvalues --   -1.12818  -1.12813  -1.12800  -1.12790  -1.12762
  Beta  occ. eigenvalues --   -0.17701  -0.12367  -0.12326
  Beta virt. eigenvalues --   -0.06907  -0.05906  -0.04997  -0.04591  -0.02360
  Beta virt. eigenvalues --   -0.02346  -0.01587  -0.01382  -0.01258  -0.00429
  Beta virt. eigenvalues --   -0.00374   0.00129   0.00386   0.00773   0.00890

 Mulliken charges and spin densities:
               1          2
     1  Na  -0.201922   0.641437
     2  Na   0.027571   0.416134
     3  Na  -0.018848   0.019773
     4  Na   0.224219  -0.002401
     5  Na   0.215360   0.138057
     6  Na  -0.110832  -0.103566
     7  Na  -0.135549  -0.109434
 Sum of Mulliken charges =  -0.00000   1.00000

 Dipole moment (field-independent basis, Debye):
    X=              0.3911    Y=              0.3105    Z=              0.0929  Tot=              0.5079
 Quadrupole moment (field-independent basis, Debye-Ang):
   XX=            -58.5969   YY=            -60.0768   ZZ=            -74.3233
   XY=              0.3097   XZ=             -0.7160   YZ=              0.7402

 Normal termination of Gaussian 16 at Thu Dec  7 19:39:57 2023.
