 Gaussian 16, Revision B.01,
 Gaussian 16:  ES64L-G16RevB.01 20-Dec-2017

 -------------------------
 #P B3LYP/6-311+g(d) force
 -------------------------

 -----
 DPGEN
 -----
 Symbolic Z-matrix:
 Charge =  0 Multiplicity = 2

                         Standard orientation:
 ---------------------------------------------------------------------
 Center     Atomic      Atomic             Coordinates (Angstroms)
 Number     Number       Type             X           Y           Z
 ---------------------------------------------------------------------
      1         11           0        0.427054   -0.789157    1.668130
      2         11           0        2.832285    1.574079    0.476363
      3         11           0        4.695369   -0.998782   -0.115648
      4         11           0        0.665409   -0.694295   -1.522050
      5         11           0       -2.552254   -1.118034   -0.334731
      6         11           0       -5.281450    0.051096    0.332681
      7         11           0       -0.786413    1.975093   -0.504743
 ---------------------------------------------------------------------

 SCF Done:  E(UB3LYP) =  -1136.10925563     A.U. after   27 cycles

 The electronic state is 2-A.
 Alpha  occ. eigenvalues --  -38.46784 -38.45580 -38.44126 -38.43974 -38.43435
 Alpha  occ. eigenvalues --  -38.42733 -38.42401  -2.22633  -2.21502  -2.19999
 Alpha  occ. eigenvalues --   -2.19861  -2.19227  -2.18654  -2.18219  -1.16313
 Alpha  occ. eigenvalues --   -1.16276  -1.16245  -1.15178  -1.15151  -1.15136
 Alpha  occ. eigenvalues --   -1.13702  -1.13662  -1.13600  -1.13547  -1.13498
 Alpha  occ. eigenvalues --   -1.13468  -1.12899  -1.12894  -1.12866  -1.12360
 Alpha  occ. eigenvalues --   -1.12341  -1.12301  -1.11867  -1.11862  -1.11859
 Alpha  occ. eigenvalues --   -0.18742  -0.13868  -0.11470  -0.10706
 Alpha virt. eigenvalues --   -0.08051  -0.05108  -0.04604  -0.03280  -0.03157
 Alpha virt. eigenvalues --   -0.02242  -0.01976  -0.01778  -0.01430  -0.00862
 Alpha virt. eigenvalues --   -0.00202   0.00150   0.00271   0.00512   0.00651

  Beta  occ. eigenvalues --  -38.46735 -38.45555 -38.44090 -38.43921 -38.43440
  Beta  occ. eigenvalues --  -38.42725 -38.42381  -2.22549  -2.21461  -2.19934
  Beta  occ. eigenvalues --   -2.19763  -2.19236  -2.18643  -2.18182  -1.16240
  Beta  occ. eigenvalues --   -1.16205  -1.16189  -1.15141  -1.15117  -1.15086
  Beta  occ. eigenvalues --   -1.13659  -1.13622  -1.13540  -1.13482  -1.13437
  Beta  occ. eigenvalues --   -1.13387  -1.12906  -1.12895  -1.12872  -1.12353
  Beta  occ. eigenvalues --   -1.12318  -1.12281  -1.11843  -1.11837  -1.11831
  Beta  occ. eigenvalues --   -0.18018  -0.13636  -0.10572
  Beta virt. eigenvalues --   -0.07868  -0.07513  -0.04887  -0.04151  -0.03139
  Beta virt. eigenvalues --   -0.02644  -0.01796  -0.01587  -0.01373  -0.01214
  Beta virt. eigenvalues --   -0.00779  -0.00094   0.00272   0.00311   0.00609

 Mulliken charges and spin densities:
               1          2
     1  Na   0.192106   0.178530
     2  Na   0.063336   0.212874
     3  Na   0.007266  -0.030865
     4  Na   0.244360   0.158335
     5  Na  -0.256252   0.006355
     6  Na   0.101200   0.074636
     7  Na  -0.352015   0.400136
 Sum of Mulliken charges =  -0.00000   1.00000

 Dipole moment (field-independent basis, Debye):
    X=              1.8622    Y=              0.1707    Z=              0.1342  Tot=              1.8748
 Quadrupole moment (field-independent basis, Debye-Ang):
   XX=            -87.5232   YY=            -70.3092   ZZ=            -59.7333
   XY=             -5.1963   XZ=             -2.0312   YZ=              3.0440

 Normal termination of Gaussian 16 at Fri Dec  8 20:15:18 2023.
