 Gaussian 16, Revision B.01,
 Gaussian 16:  ES64L-G16RevB.01 20-Dec-2017

 -------------------------
 #P B3LYP/6-311+g(d) force
 -------------------------

 -----
 DPGEN
 -----
 Symbolic Z-matrix:
 Charge =  0 Multiplicity = 2

                         Standard orientation:
 ---------------------------------------------------------------------
 Center     Atomic      Atomic             Coordinates (Angstroms)
 Number     Number       Type             X           Y           Z
 ---------------------------------------------------------------------
      1         11           0        2.175706   -0.933988   -0.811701
      2         11           0        4.735365   -1.638819    1.497115
      3         11           0        4.272593    1.816062    0.126236
      4         11           0        1.039866    1.824084   -0.819199
      5         11           0       -1.380376   -1.105879   -0.845290
      6         11           0       -4.745723   -0.854579   -0.723204
      7         11           0       -6.097430    0.893119    1.576042
 ---------------------------------------------------------------------

 SCF Done:  E(UB3LYP) =  -1136.11418531     A.U. after   22 cycles

 The electronic state is 2-A.
 Alpha  occ. eigenvalues --  -38.44590 -38.44391 -38.44342 -38.44244 -38.44006
 Alpha  occ. eigenvalues --  -38.43954 -38.43397  -2.20369  -2.20229  -2.20215
 Alpha  occ. eigenvalues --   -2.20147  -2.19816  -2.19757  -2.19214  -1.14057
 Alpha  occ. eigenvalues --   -1.14023  -1.14022  -1.14019  -1.13907  -1.13896
 Alpha  occ. eigenvalues --   -1.13886  -1.13836  -1.13836  -1.13800  -1.13778
 Alpha  occ. eigenvalues --   -1.13706  -1.13488  -1.13479  -1.13462  -1.13413
 Alpha  occ. eigenvalues --   -1.13409  -1.13363  -1.12890  -1.12880  -1.12827
 Alpha  occ. eigenvalues --   -0.16857  -0.14149  -0.11823  -0.11209
 Alpha virt. eigenvalues --   -0.06993  -0.05000  -0.04254  -0.03661  -0.02994
 Alpha virt. eigenvalues --   -0.02575  -0.02233  -0.01555  -0.00992  -0.00672
 Alpha virt. eigenvalues --   -0.00415  -0.00097   0.00009   0.00330   0.00568

  Beta  occ. eigenvalues --  -38.44567 -38.44360 -38.44294 -38.44229 -38.44012
  Beta  occ. eigenvalues --  -38.43890 -38.43371  -2.20325  -2.20163  -2.20147
  Beta  occ. eigenvalues --   -2.20120  -2.19829  -2.19637  -2.19164  -1.14012
  Beta  occ. eigenvalues --   -1.13995  -1.13993  -1.13990  -1.13865  -1.13855
  Beta  occ. eigenvalues --   -1.13842  -1.13809  -1.13781  -1.13741  -1.13722
  Beta  occ. eigenvalues --   -1.13678  -1.13494  -1.13490  -1.13459  -1.13329
  Beta  occ. eigenvalues --   -1.13322  -1.13291  -1.12855  -1.12844  -1.12804
  Beta  occ. eigenvalues --   -0.16206  -0.13895  -0.11433
  Beta virt. eigenvalues --   -0.07687  -0.06558  -0.04705  -0.03905  -0.03494
  Beta virt. eigenvalues --   -0.02518  -0.02457  -0.01803  -0.01396  -0.00745
  Beta virt. eigenvalues --   -0.00422  -0.00094   0.00043   0.00162   0.00381

 Mulliken charges and spin densities:
               1          2
     1  Na  -0.908719   0.099962
     2  Na   0.341796   0.272106
     3  Na   0.469760   0.075678
     4  Na  -0.110861   0.275946
     5  Na  -0.442318   0.134856
     6  Na   0.532511   0.029447
     7  Na   0.117831   0.112004
 Sum of Mulliken charges =  -0.00000   1.00000

 Dipole moment (field-independent basis, Debye):
    X=              0.2449    Y=              0.9380    Z=              0.5802  Tot=              1.1298
 Quadrupole moment (field-independent basis, Debye-Ang):
   XX=            -64.3813   YY=            -65.3229   ZZ=            -67.2444
   XY=             -0.8164   XZ=             -1.4193   YZ=              2.8477

 Normal termination of Gaussian 16 at Wed Nov 29 01:37:05 2023.
