 Gaussian 16, Revision B.01,
 Gaussian 16:  ES64L-G16RevB.01 20-Dec-2017

 -------------------------
 #P B3LYP/6-311+g(d) force
 -------------------------

 -----
 DPGEN
 -----
 Symbolic Z-matrix:
 Charge =  0 Multiplicity = 2

                         Standard orientation:
 ---------------------------------------------------------------------
 Center     Atomic      Atomic             Coordinates (Angstroms)
 Number     Number       Type             X           Y           Z
 ---------------------------------------------------------------------
      1         11           0        4.071552   -1.760458    1.873132
      2         11           0        0.344442    2.976997    0.193999
      3         11           0       -3.306042    1.924104    0.661990
      4         11           0       -4.924975   -1.157454    0.482957
      5         11           0        3.532899    1.382860   -1.359566
      6         11           0       -1.596961   -2.371291   -1.483865
      7         11           0        1.879085   -0.994757   -0.368647
 ---------------------------------------------------------------------

 SCF Done:  E(UB3LYP) =  -1136.10243042     A.U. after   22 cycles

 The electronic state is 2-A.
 Alpha  occ. eigenvalues --  -38.45843 -38.44744 -38.44615 -38.44419 -38.44303
 Alpha  occ. eigenvalues --  -38.44096 -38.44061  -2.21643  -2.20482  -2.20434
 Alpha  occ. eigenvalues --   -2.20188  -2.20064  -2.19927  -2.19816  -1.15344
 Alpha  occ. eigenvalues --   -1.15286  -1.15248  -1.14166  -1.14149  -1.14132
 Alpha  occ. eigenvalues --   -1.14088  -1.14064  -1.14043  -1.13844  -1.13837
 Alpha  occ. eigenvalues --   -1.13788  -1.13751  -1.13733  -1.13668  -1.13639
 Alpha  occ. eigenvalues --   -1.13581  -1.13564  -1.13523  -1.13513  -1.13446
 Alpha  occ. eigenvalues --   -0.16237  -0.13818  -0.11968  -0.11120
 Alpha virt. eigenvalues --   -0.07442  -0.05673  -0.04591  -0.03141  -0.03011
 Alpha virt. eigenvalues --   -0.02712  -0.02240  -0.01824  -0.01260  -0.00821
 Alpha virt. eigenvalues --   -0.00562  -0.00286  -0.00019   0.00221   0.00438

  Beta  occ. eigenvalues --  -38.45810 -38.44764 -38.44508 -38.44327 -38.44278
  Beta  occ. eigenvalues --  -38.44144 -38.44048  -2.21581  -2.20523  -2.20235
  Beta  occ. eigenvalues --   -2.20017  -2.20016  -2.19910  -2.19905  -1.15308
  Beta  occ. eigenvalues --   -1.15243  -1.15199  -1.14196  -1.14167  -1.14155
  Beta  occ. eigenvalues --   -1.13953  -1.13928  -1.13911  -1.13728  -1.13719
  Beta  occ. eigenvalues --   -1.13715  -1.13701  -1.13671  -1.13653  -1.13622
  Beta  occ. eigenvalues --   -1.13585  -1.13575  -1.13564  -1.13507  -1.13502
  Beta  occ. eigenvalues --   -0.15660  -0.13536  -0.11553
  Beta virt. eigenvalues --   -0.07527  -0.07196  -0.05344  -0.04214  -0.03074
  Beta virt. eigenvalues --   -0.02771  -0.02383  -0.01980  -0.01299  -0.00928
  Beta virt. eigenvalues --   -0.00574  -0.00361  -0.00308   0.00114   0.00464

 Mulliken charges and spin densities:
               1          2
     1  Na   0.421490   0.402760
     2  Na   0.083995  -0.169343
     3  Na  -0.140623   0.207586
     4  Na   0.110018  -0.166342
     5  Na   0.562869   0.110062
     6  Na   0.022159   0.273502
     7  Na  -1.059909   0.341774
 Sum of Mulliken charges =  -0.00000   1.00000

 Dipole moment (field-independent basis, Debye):
    X=              1.0727    Y=              0.2138    Z=             -0.0770  Tot=              1.0965
 Quadrupole moment (field-independent basis, Debye-Ang):
   XX=            -53.1605   YY=            -73.0515   ZZ=            -69.4653
   XY=              7.8151   XZ=             -3.6043   YZ=             -2.2299

 Normal termination of Gaussian 16 at Sun Dec  3 17:33:54 2023.
