 Gaussian 16, Revision B.01,
 Gaussian 16:  ES64L-G16RevB.01 20-Dec-2017

 -------------------------
 #P B3LYP/6-311+g(d) force
 -------------------------

 -----
 DPGEN
 -----
 Symbolic Z-matrix:
 Charge =  0 Multiplicity = 2

                         Standard orientation:
 ---------------------------------------------------------------------
 Center     Atomic      Atomic             Coordinates (Angstroms)
 Number     Number       Type             X           Y           Z
 ---------------------------------------------------------------------
      1         11           0        1.079794   -0.525601    2.270954
      2         11           0        1.711462    2.413413   -0.299638
      3         11           0        3.851885   -0.234752   -0.572011
      4         11           0        0.910364   -1.787580   -1.265625
      5         11           0       -1.924314   -1.950292    0.175069
      6         11           0       -1.198365    1.377628    0.119114
      7         11           0       -4.430826    0.707184   -0.427863
 ---------------------------------------------------------------------

 SCF Done:  E(UB3LYP) =  -1136.12083600     A.U. after   23 cycles

 The electronic state is 2-A.
 Alpha  occ. eigenvalues --  -38.45118 -38.44624 -38.44559 -38.43625 -38.43510
 Alpha  occ. eigenvalues --  -38.43401 -38.43158  -2.20935  -2.20457  -2.20356
 Alpha  occ. eigenvalues --   -2.19478  -2.19368  -2.19242  -2.19063  -1.14604
 Alpha  occ. eigenvalues --   -1.14569  -1.14544  -1.14120  -1.14097  -1.14085
 Alpha  occ. eigenvalues --   -1.14012  -1.14010  -1.13981  -1.13195  -1.13143
 Alpha  occ. eigenvalues --   -1.13125  -1.13052  -1.13040  -1.12986  -1.12961
 Alpha  occ. eigenvalues --   -1.12896  -1.12873  -1.12755  -1.12726  -1.12677
 Alpha  occ. eigenvalues --   -0.18007  -0.13963  -0.11504  -0.11037
 Alpha virt. eigenvalues --   -0.07314  -0.05208  -0.04078  -0.03338  -0.02896
 Alpha virt. eigenvalues --   -0.02416  -0.02375  -0.01409  -0.00987  -0.00402
 Alpha virt. eigenvalues --   -0.00203   0.00105   0.00381   0.00636   0.00761

  Beta  occ. eigenvalues --  -38.45038 -38.44567 -38.44522 -38.43612 -38.43510
  Beta  occ. eigenvalues --  -38.43398 -38.43149  -2.20789  -2.20351  -2.20286
  Beta  occ. eigenvalues --   -2.19455  -2.19371  -2.19240  -2.19051  -1.14493
  Beta  occ. eigenvalues --   -1.14473  -1.14439  -1.14039  -1.14027  -1.14013
  Beta  occ. eigenvalues --   -1.13964  -1.13963  -1.13936  -1.13179  -1.13129
  Beta  occ. eigenvalues --   -1.13112  -1.13050  -1.13029  -1.12981  -1.12951
  Beta  occ. eigenvalues --   -1.12879  -1.12874  -1.12752  -1.12710  -1.12647
  Beta  occ. eigenvalues --   -0.17409  -0.13430  -0.11345
  Beta virt. eigenvalues --   -0.07487  -0.06901  -0.05044  -0.03609  -0.03171
  Beta virt. eigenvalues --   -0.02615  -0.01906  -0.01719  -0.01246  -0.00579
  Beta virt. eigenvalues --   -0.00311  -0.00093   0.00173   0.00493   0.00691

 Mulliken charges and spin densities:
               1          2
     1  Na   0.103492   0.268910
     2  Na   0.067386  -0.105664
     3  Na   0.193014   0.315395
     4  Na  -0.256404   0.040043
     5  Na   0.310639   0.176834
     6  Na  -1.006595   0.147152
     7  Na   0.588468   0.157330
 Sum of Mulliken charges =  -0.00000   1.00000

 Dipole moment (field-independent basis, Debye):
    X=              0.1309    Y=             -0.4853    Z=              0.8002  Tot=              0.9450
 Quadrupole moment (field-independent basis, Debye-Ang):
   XX=            -52.4119   YY=            -76.2077   ZZ=            -67.1493
   XY=              1.0945   XZ=              3.2679   YZ=             -2.2824

 Normal termination of Gaussian 16 at Thu Dec  7 01:47:59 2023.
