 Gaussian 16, Revision B.01,
 Gaussian 16:  ES64L-G16RevB.01 20-Dec-2017

 -------------------------
 #P B3LYP/6-311+g(d) force
 -------------------------

 -----
 DPGEN
 -----
 Symbolic Z-matrix:
 Charge =  0 Multiplicity = 2

                         Standard orientation:
 ---------------------------------------------------------------------
 Center     Atomic      Atomic             Coordinates (Angstroms)
 Number     Number       Type             X           Y           Z
 ---------------------------------------------------------------------
      1         11           0        2.176833   -1.774831   -0.281766
      2         11           0        1.439126    1.844396   -1.328826
      3         11           0       -4.717687    0.114718   -0.072996
      4         11           0        4.534338    0.520819    0.384994
      5         11           0       -1.619960   -1.356567   -1.468199
      6         11           0       -1.649508    1.818177    1.003387
      7         11           0       -0.163142   -1.166713    1.763407
 ---------------------------------------------------------------------

 SCF Done:  E(UB3LYP) =  -1136.10982506     A.U. after   25 cycles

 The electronic state is 2-A.
 Alpha  occ. eigenvalues --  -38.45184 -38.44810 -38.44495 -38.44445 -38.43860
 Alpha  occ. eigenvalues --  -38.43696 -38.43336  -2.20969  -2.20561  -2.20282
 Alpha  occ. eigenvalues --   -2.20234  -2.19734  -2.19519  -2.19204  -1.14678
 Alpha  occ. eigenvalues --   -1.14631  -1.14564  -1.14264  -1.14227  -1.14175
 Alpha  occ. eigenvalues --   -1.13952  -1.13944  -1.13895  -1.13892  -1.13879
 Alpha  occ. eigenvalues --   -1.13852  -1.13416  -1.13393  -1.13357  -1.13198
 Alpha  occ. eigenvalues --   -1.13179  -1.13135  -1.12910  -1.12880  -1.12797
 Alpha  occ. eigenvalues --   -0.17433  -0.13971  -0.11019  -0.10886
 Alpha virt. eigenvalues --   -0.07919  -0.05086  -0.04517  -0.03488  -0.03055
 Alpha virt. eigenvalues --   -0.02492  -0.02095  -0.01763  -0.01149  -0.00819
 Alpha virt. eigenvalues --   -0.00144   0.00062   0.00165   0.00639   0.00717

  Beta  occ. eigenvalues --  -38.45165 -38.44804 -38.44465 -38.44382 -38.43822
  Beta  occ. eigenvalues --  -38.43655 -38.43329  -2.20935  -2.20553  -2.20227
  Beta  occ. eigenvalues --   -2.20116  -2.19665  -2.19448  -2.19191  -1.14652
  Beta  occ. eigenvalues --   -1.14609  -1.14530  -1.14262  -1.14219  -1.14159
  Beta  occ. eigenvalues --   -1.13912  -1.13902  -1.13862  -1.13811  -1.13792
  Beta  occ. eigenvalues --   -1.13778  -1.13376  -1.13337  -1.13305  -1.13142
  Beta  occ. eigenvalues --   -1.13131  -1.13076  -1.12900  -1.12873  -1.12782
  Beta  occ. eigenvalues --   -0.16915  -0.13396  -0.10806
  Beta virt. eigenvalues --   -0.07658  -0.07360  -0.04803  -0.04094  -0.03182
  Beta virt. eigenvalues --   -0.02909  -0.02204  -0.01739  -0.01342  -0.00823
  Beta virt. eigenvalues --   -0.00492  -0.00038   0.00108   0.00266   0.00718

 Mulliken charges and spin densities:
               1          2
     1  Na  -0.036947   0.210336
     2  Na  -0.094550  -0.042502
     3  Na   0.198655   0.258227
     4  Na   0.086851   0.120395
     5  Na  -0.203284   0.209689
     6  Na  -0.323257   0.133629
     7  Na   0.372532   0.110226
 Sum of Mulliken charges =  -0.00000   1.00000

 Dipole moment (field-independent basis, Debye):
    X=              0.1157    Y=             -0.2361    Z=              0.2818  Tot=              0.3854
 Quadrupole moment (field-independent basis, Debye-Ang):
   XX=            -62.2688   YY=            -79.1210   ZZ=            -61.5662
   XY=             -1.0234   XZ=              1.2244   YZ=              1.5126

 Normal termination of Gaussian 16 at Sun Dec  3 20:19:33 2023.
