 Gaussian 16, Revision B.01,
 Gaussian 16:  ES64L-G16RevB.01 20-Dec-2017

 -------------------------
 #P B3LYP/6-311+g(d) force
 -------------------------

 -----
 DPGEN
 -----
 Symbolic Z-matrix:
 Charge =  0 Multiplicity = 2

                         Standard orientation:
 ---------------------------------------------------------------------
 Center     Atomic      Atomic             Coordinates (Angstroms)
 Number     Number       Type             X           Y           Z
 ---------------------------------------------------------------------
      1         11           0        2.910980   -1.451511    0.034177
      2         11           0       -0.530223   -2.705723    0.310128
      3         11           0       -3.043953   -0.614747   -0.954721
      4         11           0        0.076029   -0.024338   -1.084701
      5         11           0       -1.154673    2.811478    0.251307
      6         11           0       -0.690381    0.211348    1.915133
      7         11           0        2.432220    1.773492   -0.471323
 ---------------------------------------------------------------------

 SCF Done:  E(UB3LYP) =  -1136.13055435     A.U. after   20 cycles

 The electronic state is 2-A.
 Alpha  occ. eigenvalues --  -38.43991 -38.43842 -38.43755 -38.43474 -38.43401
 Alpha  occ. eigenvalues --  -38.43277 -38.42799  -2.19849  -2.19677  -2.19625
 Alpha  occ. eigenvalues --   -2.19366  -2.19335  -2.19180  -2.18947  -1.13543
 Alpha  occ. eigenvalues --   -1.13479  -1.13471  -1.13392  -1.13350  -1.13340
 Alpha  occ. eigenvalues --   -1.13321  -1.13267  -1.13214  -1.13131  -1.13075
 Alpha  occ. eigenvalues --   -1.12995  -1.12974  -1.12950  -1.12930  -1.12910
 Alpha  occ. eigenvalues --   -1.12834  -1.12782  -1.12638  -1.12581  -1.12547
 Alpha  occ. eigenvalues --   -0.18909  -0.13226  -0.12585  -0.10591
 Alpha virt. eigenvalues --   -0.05495  -0.05206  -0.04692  -0.03037  -0.02782
 Alpha virt. eigenvalues --   -0.02144  -0.01620  -0.01217  -0.00354  -0.00255
 Alpha virt. eigenvalues --    0.00023   0.00312   0.00807   0.00853   0.00883

  Beta  occ. eigenvalues --  -38.43945 -38.43844 -38.43744 -38.43466 -38.43314
  Beta  occ. eigenvalues --  -38.43265 -38.42765  -2.19765  -2.19684  -2.19607
  Beta  occ. eigenvalues --   -2.19324  -2.19205  -2.19163  -2.18888  -1.13477
  Beta  occ. eigenvalues --   -1.13420  -1.13412  -1.13387  -1.13355  -1.13331
  Beta  occ. eigenvalues --   -1.13313  -1.13250  -1.13204  -1.13075  -1.12989
  Beta  occ. eigenvalues --   -1.12972  -1.12953  -1.12902  -1.12859  -1.12842
  Beta  occ. eigenvalues --   -1.12789  -1.12762  -1.12568  -1.12539  -1.12507
  Beta  occ. eigenvalues --   -0.18255  -0.12901  -0.12330
  Beta virt. eigenvalues --   -0.06765  -0.05318  -0.05107  -0.04654  -0.02437
  Beta virt. eigenvalues --   -0.02072  -0.01561  -0.01185  -0.01046  -0.00306
  Beta virt. eigenvalues --   -0.00231   0.00161   0.00385   0.00862   0.00888

 Mulliken charges and spin densities:
               1          2
     1  Na  -0.022055   0.015899
     2  Na   0.349667   0.119063
     3  Na   0.203167   0.160456
     4  Na  -0.839591   0.144391
     5  Na   0.128424   0.022728
     6  Na  -0.148269   0.496712
     7  Na   0.328658   0.040753
 Sum of Mulliken charges =  -0.00000   1.00000

 Dipole moment (field-independent basis, Debye):
    X=              0.0134    Y=              0.0514    Z=              0.2779  Tot=              0.2829
 Quadrupole moment (field-independent basis, Debye-Ang):
   XX=            -56.2909   YY=            -60.8041   ZZ=            -74.6673
   XY=             -0.9801   XZ=              1.5748   YZ=             -1.0879

 Normal termination of Gaussian 16 at Tue Nov 28 19:03:01 2023.
