 Gaussian 16, Revision B.01,
 Gaussian 16:  ES64L-G16RevB.01 20-Dec-2017

 -------------------------
 #P B3LYP/6-311+g(d) force
 -------------------------

 -----
 DPGEN
 -----
 Symbolic Z-matrix:
 Charge =  0 Multiplicity = 2

                         Standard orientation:
 ---------------------------------------------------------------------
 Center     Atomic      Atomic             Coordinates (Angstroms)
 Number     Number       Type             X           Y           Z
 ---------------------------------------------------------------------
      1         11           0        0.064284    0.378640   -1.619109
      2         11           0        0.097278   -2.607929   -0.183935
      3         11           0       -1.890855    2.619555   -0.215367
      4         11           0       -0.526892    0.083982    2.100646
      5         11           0        2.301710    2.041333    0.122613
      6         11           0        3.069429   -1.181634   -0.015968
      7         11           0       -3.114954   -1.333947   -0.188880
 ---------------------------------------------------------------------

 SCF Done:  E(UB3LYP) =  -1136.13365575     A.U. after   19 cycles

 The electronic state is 2-A.
 Alpha  occ. eigenvalues --  -38.44579 -38.44124 -38.43943 -38.43925 -38.43609
 Alpha  occ. eigenvalues --  -38.43213 -38.43001  -2.20365  -2.19950  -2.19779
 Alpha  occ. eigenvalues --   -2.19724  -2.19468  -2.19167  -2.18888  -1.14038
 Alpha  occ. eigenvalues --   -1.14022  -1.14008  -1.13646  -1.13617  -1.13586
 Alpha  occ. eigenvalues --   -1.13449  -1.13436  -1.13420  -1.13415  -1.13383
 Alpha  occ. eigenvalues --   -1.13356  -1.13135  -1.13093  -1.13084  -1.12857
 Alpha  occ. eigenvalues --   -1.12816  -1.12786  -1.12576  -1.12551  -1.12511
 Alpha  occ. eigenvalues --   -0.18337  -0.13084  -0.12258  -0.10531
 Alpha virt. eigenvalues --   -0.06091  -0.05594  -0.04306  -0.03188  -0.02784
 Alpha virt. eigenvalues --   -0.02487  -0.01839  -0.01409  -0.00587  -0.00226
 Alpha virt. eigenvalues --   -0.00041   0.00320   0.00716   0.00768   0.00899

  Beta  occ. eigenvalues --  -38.44578 -38.44120 -38.43944 -38.43920 -38.43513
  Beta  occ. eigenvalues --  -38.43153 -38.42992  -2.20366  -2.19945  -2.19782
  Beta  occ. eigenvalues --   -2.19717  -2.19290  -2.19056  -2.18875  -1.14025
  Beta  occ. eigenvalues --   -1.14017  -1.14011  -1.13642  -1.13598  -1.13584
  Beta  occ. eigenvalues --   -1.13452  -1.13424  -1.13422  -1.13401  -1.13366
  Beta  occ. eigenvalues --   -1.13355  -1.13015  -1.12969  -1.12957  -1.12781
  Beta  occ. eigenvalues --   -1.12736  -1.12706  -1.12565  -1.12515  -1.12504
  Beta  occ. eigenvalues --   -0.17628  -0.12898  -0.12027
  Beta virt. eigenvalues --   -0.06632  -0.06065  -0.05535  -0.04280  -0.02456
  Beta virt. eigenvalues --   -0.02024  -0.01747  -0.01448  -0.01331  -0.00643
  Beta virt. eigenvalues --   -0.00253   0.00122   0.00350   0.00751   0.00793

 Mulliken charges and spin densities:
               1          2
     1  Na  -0.217587   0.433199
     2  Na   0.178871   0.027020
     3  Na   0.089808  -0.132409
     4  Na  -0.548371   0.758421
     5  Na   0.297655  -0.022948
     6  Na  -0.020142  -0.003783
     7  Na   0.219765  -0.059500
 Sum of Mulliken charges =  -0.00000   1.00000

 Dipole moment (field-independent basis, Debye):
    X=             -0.3003    Y=              0.2465    Z=              0.0961  Tot=              0.4002
 Quadrupole moment (field-independent basis, Debye-Ang):
   XX=            -52.6161   YY=            -64.3962   ZZ=            -75.6764
   XY=              0.2863   XZ=              1.2659   YZ=              0.7269

 Normal termination of Gaussian 16 at Thu Dec  7 22:50:38 2023.
