 Gaussian 16, Revision B.01,
 Gaussian 16:  ES64L-G16RevB.01 20-Dec-2017

 -------------------------
 #P B3LYP/6-311+g(d) force
 -------------------------

 -----
 DPGEN
 -----
 Symbolic Z-matrix:
 Charge =  0 Multiplicity = 2

                         Standard orientation:
 ---------------------------------------------------------------------
 Center     Atomic      Atomic             Coordinates (Angstroms)
 Number     Number       Type             X           Y           Z
 ---------------------------------------------------------------------
      1         11           0       -3.866751    0.627115    1.313817
      2         11           0       -2.094313    3.111937   -0.672773
      3         11           0        3.276318   -2.080212    0.851216
      4         11           0        0.026979   -3.135784   -1.071108
      5         11           0        4.007375    0.963316    0.193676
      6         11           0       -2.904100   -2.508305   -0.244665
      7         11           0        1.554492    3.021932   -0.370162
 ---------------------------------------------------------------------

 SCF Done:  E(UB3LYP) =  -1136.10753009     A.U. after   23 cycles

 The electronic state is 2-A.
 Alpha  occ. eigenvalues --  -38.45214 -38.44760 -38.44644 -38.44603 -38.44307
 Alpha  occ. eigenvalues --  -38.44245 -38.43941  -2.20946  -2.20560  -2.20461
 Alpha  occ. eigenvalues --   -2.20405  -2.20097  -2.20051  -2.19742  -1.14636
 Alpha  occ. eigenvalues --   -1.14623  -1.14586  -1.14257  -1.14214  -1.14194
 Alpha  occ. eigenvalues --   -1.14133  -1.14124  -1.14110  -1.14086  -1.14071
 Alpha  occ. eigenvalues --   -1.14048  -1.13750  -1.13736  -1.13723  -1.13704
 Alpha  occ. eigenvalues --   -1.13700  -1.13678  -1.13398  -1.13391  -1.13373
 Alpha  occ. eigenvalues --   -0.15685  -0.14092  -0.13287  -0.10717
 Alpha virt. eigenvalues --   -0.07771  -0.04815  -0.04514  -0.03608  -0.03469
 Alpha virt. eigenvalues --   -0.02235  -0.02055  -0.01861  -0.01253  -0.01130
 Alpha virt. eigenvalues --   -0.00669  -0.00040   0.00083   0.00301   0.00726

  Beta  occ. eigenvalues --  -38.45227 -38.44708 -38.44639 -38.44586 -38.44237
  Beta  occ. eigenvalues --  -38.44205 -38.43887  -2.20974  -2.20467  -2.20458
  Beta  occ. eigenvalues --   -2.20380  -2.19980  -2.19967  -2.19642  -1.14659
  Beta  occ. eigenvalues --   -1.14645  -1.14574  -1.14199  -1.14153  -1.14133
  Beta  occ. eigenvalues --   -1.14127  -1.14120  -1.14076  -1.14059  -1.14042
  Beta  occ. eigenvalues --   -1.14011  -1.13661  -1.13657  -1.13655  -1.13650
  Beta  occ. eigenvalues --   -1.13637  -1.13617  -1.13329  -1.13325  -1.13310
  Beta  occ. eigenvalues --   -0.15163  -0.13364  -0.12598
  Beta virt. eigenvalues --   -0.07884  -0.07601  -0.04336  -0.04042  -0.03399
  Beta virt. eigenvalues --   -0.03147  -0.02003  -0.01846  -0.01766  -0.01027
  Beta virt. eigenvalues --   -0.00867  -0.00434   0.00181   0.00262   0.00334

 Mulliken charges and spin densities:
               1          2
     1  Na   0.028631   0.340914
     2  Na   0.047921  -0.097824
     3  Na  -0.088907   0.229451
     4  Na  -0.163687   0.153299
     5  Na   0.202449   0.080356
     6  Na   0.083639   0.051735
     7  Na  -0.110046   0.242069
 Sum of Mulliken charges =  -0.00000   1.00000

 Dipole moment (field-independent basis, Debye):
    X=              0.0431    Y=             -0.1874    Z=              0.0710  Tot=              0.2050
 Quadrupole moment (field-independent basis, Debye-Ang):
   XX=            -62.6525   YY=            -68.2985   ZZ=            -70.5018
   XY=             -0.6743   XZ=             -0.1801   YZ=             -2.3768

 Normal termination of Gaussian 16 at Sun Dec  3 20:46:59 2023.
