 Gaussian 16, Revision B.01,
 Gaussian 16:  ES64L-G16RevB.01 20-Dec-2017

 -------------------------
 #P B3LYP/6-311+g(d) force
 -------------------------

 -----
 DPGEN
 -----
 Symbolic Z-matrix:
 Charge =  0 Multiplicity = 2

                         Standard orientation:
 ---------------------------------------------------------------------
 Center     Atomic      Atomic             Coordinates (Angstroms)
 Number     Number       Type             X           Y           Z
 ---------------------------------------------------------------------
      1         11           0       -0.538013    3.356440    0.518069
      2         11           0        3.298634   -1.423571    0.431498
      3         11           0        1.696013    1.273778   -1.306255
      4         11           0       -2.774196   -2.338691    0.193264
      5         11           0       -0.056671    0.070194    2.171334
      6         11           0        0.361573   -1.705949   -0.962314
      7         11           0       -1.987340    0.767799   -1.045595
 ---------------------------------------------------------------------

 SCF Done:  E(UB3LYP) =  -1136.13634267     A.U. after   17 cycles

 The electronic state is 2-A.
 Alpha  occ. eigenvalues --  -38.44253 -38.43850 -38.43770 -38.43593 -38.43530
 Alpha  occ. eigenvalues --  -38.43417 -38.43104  -2.20084  -2.19662  -2.19640
 Alpha  occ. eigenvalues --   -2.19422  -2.19404  -2.19242  -2.19055  -1.13751
 Alpha  occ. eigenvalues --   -1.13708  -1.13702  -1.13361  -1.13344  -1.13317
 Alpha  occ. eigenvalues --   -1.13313  -1.13293  -1.13224  -1.13133  -1.13103
 Alpha  occ. eigenvalues --   -1.13083  -1.13071  -1.13055  -1.13006  -1.12909
 Alpha  occ. eigenvalues --   -1.12895  -1.12877  -1.12770  -1.12731  -1.12638
 Alpha  occ. eigenvalues --   -0.18299  -0.12742  -0.12472  -0.11028
 Alpha virt. eigenvalues --   -0.05624  -0.05099  -0.04540  -0.03295  -0.03029
 Alpha virt. eigenvalues --   -0.02836  -0.01524  -0.01371  -0.00437  -0.00139
 Alpha virt. eigenvalues --    0.00237   0.00349   0.00750   0.00793   0.00832

  Beta  occ. eigenvalues --  -38.44154 -38.43849 -38.43733 -38.43596 -38.43506
  Beta  occ. eigenvalues --  -38.43415 -38.43081  -2.19901  -2.19663  -2.19573
  Beta  occ. eigenvalues --   -2.19411  -2.19382  -2.19239  -2.19016  -1.13629
  Beta  occ. eigenvalues --   -1.13580  -1.13569  -1.13348  -1.13318  -1.13301
  Beta  occ. eigenvalues --   -1.13298  -1.13244  -1.13183  -1.13105  -1.13089
  Beta  occ. eigenvalues --   -1.13067  -1.13057  -1.13049  -1.12990  -1.12908
  Beta  occ. eigenvalues --   -1.12881  -1.12869  -1.12744  -1.12674  -1.12616
  Beta  occ. eigenvalues --   -0.17523  -0.12599  -0.12320
  Beta virt. eigenvalues --   -0.07049  -0.05418  -0.05020  -0.04501  -0.02628
  Beta virt. eigenvalues --   -0.02439  -0.01825  -0.01445  -0.01251  -0.00206
  Beta virt. eigenvalues --   -0.00140   0.00296   0.00411   0.00776   0.00854

 Mulliken charges and spin densities:
               1          2
     1  Na   0.352164  -0.086724
     2  Na   0.308182  -0.142966
     3  Na  -0.165696   0.100891
     4  Na   0.471901  -0.108176
     5  Na  -0.635149   0.765010
     6  Na  -0.212035   0.308546
     7  Na  -0.119366   0.163418
 Sum of Mulliken charges =  -0.00000   1.00000

 Dipole moment (field-independent basis, Debye):
    X=              0.1849    Y=             -0.0175    Z=              0.3270  Tot=              0.3760
 Quadrupole moment (field-independent basis, Debye-Ang):
   XX=            -59.4581   YY=            -62.3697   ZZ=            -71.3138
   XY=              0.4569   XZ=              0.3750   YZ=             -1.3415

 Normal termination of Gaussian 16 at Fri Dec  8 00:29:13 2023.
