 Gaussian 16, Revision B.01,
 Gaussian 16:  ES64L-G16RevB.01 20-Dec-2017

 -------------------------
 #P B3LYP/6-311+g(d) force
 -------------------------

 -----
 DPGEN
 -----
 Symbolic Z-matrix:
 Charge =  0 Multiplicity = 2

                         Standard orientation:
 ---------------------------------------------------------------------
 Center     Atomic      Atomic             Coordinates (Angstroms)
 Number     Number       Type             X           Y           Z
 ---------------------------------------------------------------------
      1         11           0        2.143633   -2.504616   -0.932759
      2         11           0       -4.254315   -0.612335   -0.109459
      3         11           0        3.022501    2.595727   -0.096811
      4         11           0        0.608421    1.225342   -0.832086
      5         11           0        2.284946   -1.220772    1.484570
      6         11           0       -2.400552    2.321568    0.377597
      7         11           0       -1.404635   -1.804914    0.108948
 ---------------------------------------------------------------------

 SCF Done:  E(UB3LYP) =  -1136.10802054     A.U. after   26 cycles

 The electronic state is 2-A.
 Alpha  occ. eigenvalues --  -38.46110 -38.45122 -38.44272 -38.43701 -38.43592
 Alpha  occ. eigenvalues --  -38.43408 -38.42803  -2.21980  -2.21002  -2.20119
 Alpha  occ. eigenvalues --   -2.19532  -2.19449  -2.19327  -2.18663  -1.15809
 Alpha  occ. eigenvalues --   -1.15624  -1.15556  -1.14688  -1.14617  -1.14593
 Alpha  occ. eigenvalues --   -1.13823  -1.13796  -1.13749  -1.13192  -1.13187
 Alpha  occ. eigenvalues --   -1.13152  -1.13113  -1.13093  -1.13087  -1.13056
 Alpha  occ. eigenvalues --   -1.13000  -1.12952  -1.12323  -1.12289  -1.12272
 Alpha  occ. eigenvalues --   -0.17680  -0.14219  -0.12606  -0.09457
 Alpha virt. eigenvalues --   -0.06980  -0.06283  -0.04461  -0.03206  -0.02585
 Alpha virt. eigenvalues --   -0.02426  -0.02160  -0.01511  -0.01084  -0.00336
 Alpha virt. eigenvalues --   -0.00024  -0.00006   0.00300   0.00427   0.00648

  Beta  occ. eigenvalues --  -38.46111 -38.45115 -38.44247 -38.43629 -38.43539
  Beta  occ. eigenvalues --  -38.43406 -38.42759  -2.21982  -2.20988  -2.20079
  Beta  occ. eigenvalues --   -2.19398  -2.19355  -2.19328  -2.18580  -1.15808
  Beta  occ. eigenvalues --   -1.15626  -1.15554  -1.14680  -1.14608  -1.14584
  Beta  occ. eigenvalues --   -1.13800  -1.13759  -1.13696  -1.13101  -1.13094
  Beta  occ. eigenvalues --   -1.13078  -1.13066  -1.13040  -1.13031  -1.13002
  Beta  occ. eigenvalues --   -1.12980  -1.12929  -1.12276  -1.12231  -1.12211
  Beta  occ. eigenvalues --   -0.17474  -0.13621  -0.12015
  Beta virt. eigenvalues --   -0.06907  -0.06232  -0.05923  -0.04226  -0.02984
  Beta virt. eigenvalues --   -0.02359  -0.02103  -0.01794  -0.01144  -0.00812
  Beta virt. eigenvalues --   -0.00181  -0.00001   0.00113   0.00615   0.00689

 Mulliken charges and spin densities:
               1          2
     1  Na   0.759858  -0.006674
     2  Na   0.172281   0.291185
     3  Na  -0.097370   0.310752
     4  Na  -0.325925  -0.110058
     5  Na   0.201191   0.133739
     6  Na  -0.091330   0.258702
     7  Na  -0.618704   0.122354
 Sum of Mulliken charges =  -0.00000   1.00000

 Dipole moment (field-independent basis, Debye):
    X=              1.0707    Y=             -1.1950    Z=              0.5005  Tot=              1.6808
 Quadrupole moment (field-independent basis, Debye-Ang):
   XX=            -65.8645   YY=            -75.7048   ZZ=            -63.0212
   XY=            -11.4694   XZ=              1.2095   YZ=              3.1806

 Normal termination of Gaussian 16 at Tue Dec  5 23:57:06 2023.
