 Gaussian 16, Revision B.01,
 Gaussian 16:  ES64L-G16RevB.01 20-Dec-2017

 -------------------------
 #P B3LYP/6-311+g(d) force
 -------------------------

 -----
 DPGEN
 -----
 Symbolic Z-matrix:
 Charge =  0 Multiplicity = 2

                         Standard orientation:
 ---------------------------------------------------------------------
 Center     Atomic      Atomic             Coordinates (Angstroms)
 Number     Number       Type             X           Y           Z
 ---------------------------------------------------------------------
      1         11           0       -2.643932   -1.595265   -0.333665
      2         11           0        3.232118   -0.482971    0.008570
      3         11           0       -0.387446   -0.052108    1.776253
      4         11           0        1.191489    2.615220    0.112384
      5         11           0       -2.397828    1.596229    0.068259
      6         11           0        0.840259   -2.402322    0.115398
      7         11           0        0.165339    0.321217   -1.747199
 ---------------------------------------------------------------------

 SCF Done:  E(UB3LYP) =  -1136.13426967     A.U. after   21 cycles

 The electronic state is 2-A.
 Alpha  occ. eigenvalues --  -38.44387 -38.43819 -38.43763 -38.43248 -38.43241
 Alpha  occ. eigenvalues --  -38.43212 -38.42983  -2.20230  -2.19731  -2.19631
 Alpha  occ. eigenvalues --   -2.19251  -2.19199  -2.19106  -2.18920  -1.13928
 Alpha  occ. eigenvalues --   -1.13887  -1.13861  -1.13462  -1.13411  -1.13367
 Alpha  occ. eigenvalues --   -1.13286  -1.13280  -1.13259  -1.12960  -1.12927
 Alpha  occ. eigenvalues --   -1.12899  -1.12866  -1.12851  -1.12814  -1.12763
 Alpha  occ. eigenvalues --   -1.12736  -1.12720  -1.12600  -1.12571  -1.12542
 Alpha  occ. eigenvalues --   -0.19209  -0.13465  -0.12356  -0.10748
 Alpha virt. eigenvalues --   -0.05899  -0.05167  -0.04209  -0.03324  -0.02767
 Alpha virt. eigenvalues --   -0.02349  -0.01738  -0.01070  -0.00212  -0.00042
 Alpha virt. eigenvalues --    0.00029   0.00349   0.00790   0.00890   0.00953

  Beta  occ. eigenvalues --  -38.44388 -38.43809 -38.43754 -38.43236 -38.43166
  Beta  occ. eigenvalues --  -38.43138 -38.42972  -2.20234  -2.19717  -2.19618
  Beta  occ. eigenvalues --   -2.19103  -2.19099  -2.19063  -2.18906  -1.13933
  Beta  occ. eigenvalues --   -1.13871  -1.13866  -1.13453  -1.13374  -1.13355
  Beta  occ. eigenvalues --   -1.13275  -1.13255  -1.13250  -1.12883  -1.12850
  Beta  occ. eigenvalues --   -1.12799  -1.12776  -1.12762  -1.12732  -1.12720
  Beta  occ. eigenvalues --   -1.12711  -1.12676  -1.12585  -1.12540  -1.12522
  Beta  occ. eigenvalues --   -0.18466  -0.13224  -0.12087
  Beta virt. eigenvalues --   -0.06810  -0.05850  -0.05155  -0.04211  -0.02520
  Beta virt. eigenvalues --   -0.01972  -0.01650  -0.01300  -0.01012  -0.00259
  Beta virt. eigenvalues --   -0.00056   0.00136   0.00376   0.00845   0.00884

 Mulliken charges and spin densities:
               1          2
     1  Na   0.091135   0.008887
     2  Na  -0.019060  -0.096166
     3  Na  -0.389625   0.650228
     4  Na   0.140391  -0.153571
     5  Na   0.383910  -0.051880
     6  Na   0.292472  -0.032905
     7  Na  -0.499224   0.675407
 Sum of Mulliken charges =  -0.00000   1.00000

 Dipole moment (field-independent basis, Debye):
    X=              0.1052    Y=              0.1267    Z=             -0.0447  Tot=              0.1706
 Quadrupole moment (field-independent basis, Debye-Ang):
   XX=            -52.9088   YY=            -65.6713   ZZ=            -74.4085
   XY=              0.8829   XZ=              1.2061   YZ=              1.1379

 Normal termination of Gaussian 16 at Sun Dec  3 20:29:27 2023.
