 Gaussian 16, Revision B.01,
 Gaussian 16:  ES64L-G16RevB.01 20-Dec-2017

 -------------------------
 #P B3LYP/6-311+g(d) force
 -------------------------

 -----
 DPGEN
 -----
 Symbolic Z-matrix:
 Charge =  0 Multiplicity = 2

                         Standard orientation:
 ---------------------------------------------------------------------
 Center     Atomic      Atomic             Coordinates (Angstroms)
 Number     Number       Type             X           Y           Z
 ---------------------------------------------------------------------
      1         11           0       -1.787681    1.551406   -0.794222
      2         11           0        1.981122    1.164058    0.474877
      3         11           0        1.028551   -2.292018   -0.843727
      4         11           0       -1.688218   -1.784144    1.635124
      5         11           0       -3.840026   -1.222377   -0.507395
      6         11           0        4.144088   -1.331046   -0.172400
      7         11           0        0.162163    3.914121    0.207744
 ---------------------------------------------------------------------

 SCF Done:  E(UB3LYP) =  -1136.12286873     A.U. after   22 cycles

 The electronic state is 2-A.
 Alpha  occ. eigenvalues --  -38.45000 -38.44413 -38.44061 -38.43744 -38.43599
 Alpha  occ. eigenvalues --  -38.43598 -38.43529  -2.20794  -2.20247  -2.19899
 Alpha  occ. eigenvalues --   -2.19591  -2.19452  -2.19439  -2.19373  -1.14491
 Alpha  occ. eigenvalues --   -1.14463  -1.14408  -1.13948  -1.13941  -1.13856
 Alpha  occ. eigenvalues --   -1.13603  -1.13573  -1.13520  -1.13310  -1.13240
 Alpha  occ. eigenvalues --   -1.13227  -1.13108  -1.13102  -1.13089  -1.13087
 Alpha  occ. eigenvalues --   -1.13074  -1.13061  -1.13038  -1.13017  -1.12995
 Alpha  occ. eigenvalues --   -0.16995  -0.13852  -0.13172  -0.09670
 Alpha virt. eigenvalues --   -0.06631  -0.05466  -0.04970  -0.03271  -0.02838
 Alpha virt. eigenvalues --   -0.02438  -0.01744  -0.01468  -0.00995  -0.00778
 Alpha virt. eigenvalues --   -0.00174   0.00015   0.00308   0.00536   0.00670

  Beta  occ. eigenvalues --  -38.44988 -38.44405 -38.44030 -38.43700 -38.43596
  Beta  occ. eigenvalues --  -38.43560 -38.43487  -2.20776  -2.20233  -2.19845
  Beta  occ. eigenvalues --   -2.19511  -2.19434  -2.19385  -2.19293  -1.14482
  Beta  occ. eigenvalues --   -1.14449  -1.14373  -1.13942  -1.13925  -1.13837
  Beta  occ. eigenvalues --   -1.13571  -1.13538  -1.13457  -1.13259  -1.13186
  Beta  occ. eigenvalues --   -1.13162  -1.13101  -1.13084  -1.13070  -1.13058
  Beta  occ. eigenvalues --   -1.13032  -1.13004  -1.12981  -1.12961  -1.12947
  Beta  occ. eigenvalues --   -0.16561  -0.13346  -0.12917
  Beta virt. eigenvalues --   -0.06494  -0.06127  -0.05308  -0.04660  -0.02929
  Beta virt. eigenvalues --   -0.02494  -0.02189  -0.01649  -0.01158  -0.00868
  Beta virt. eigenvalues --   -0.00380   0.00201   0.00251   0.00459   0.00603

 Mulliken charges and spin densities:
               1          2
     1  Na  -0.829061   0.187800
     2  Na  -1.151176   0.077102
     3  Na  -0.395688   0.042349
     4  Na   0.148304   0.302539
     5  Na   0.305011   0.181430
     6  Na   0.874769   0.193747
     7  Na   1.047841   0.015033
 Sum of Mulliken charges =  -0.00000   1.00000

 Dipole moment (field-independent basis, Debye):
    X=              0.6333    Y=             -0.0748    Z=              0.1906  Tot=              0.6656
 Quadrupole moment (field-independent basis, Debye-Ang):
   XX=            -69.3947   YY=            -62.3763   ZZ=            -68.7200
   XY=              2.8389   XZ=             -0.0630   YZ=              4.0253

 Normal termination of Gaussian 16 at Wed Nov 29 00:05:35 2023.
