 Gaussian 16, Revision B.01,
 Gaussian 16:  ES64L-G16RevB.01 20-Dec-2017

 -------------------------
 #P B3LYP/6-311+g(d) force
 -------------------------

 -----
 DPGEN
 -----
 Symbolic Z-matrix:
 Charge =  0 Multiplicity = 2

                         Standard orientation:
 ---------------------------------------------------------------------
 Center     Atomic      Atomic             Coordinates (Angstroms)
 Number     Number       Type             X           Y           Z
 ---------------------------------------------------------------------
      1         11           0       -0.578114    1.170385    0.175276
      2         11           0        2.011841    3.745360    0.334348
      3         11           0        2.937319    0.708291   -0.512434
      4         11           0        4.218459   -2.620197   -0.210999
      5         11           0        0.904446   -1.851355    0.114010
      6         11           0       -3.589934   -1.303139    0.998259
      7         11           0       -5.904017    0.150654   -0.898459
 ---------------------------------------------------------------------

 SCF Done:  E(UB3LYP) =  -1136.12402826     A.U. after   19 cycles

 The electronic state is 2-A.
 Alpha  occ. eigenvalues --  -38.44418 -38.44240 -38.44213 -38.43980 -38.43971
 Alpha  occ. eigenvalues --  -38.43785 -38.43644  -2.20210  -2.20074  -2.19976
 Alpha  occ. eigenvalues --   -2.19854  -2.19845  -2.19594  -2.19458  -1.13854
 Alpha  occ. eigenvalues --   -1.13852  -1.13840  -1.13790  -1.13766  -1.13665
 Alpha  occ. eigenvalues --   -1.13650  -1.13638  -1.13614  -1.13599  -1.13556
 Alpha  occ. eigenvalues --   -1.13526  -1.13518  -1.13454  -1.13420  -1.13254
 Alpha  occ. eigenvalues --   -1.13253  -1.13208  -1.13125  -1.13115  -1.13075
 Alpha  occ. eigenvalues --   -0.16887  -0.13741  -0.12437  -0.10995
 Alpha virt. eigenvalues --   -0.05908  -0.05220  -0.04800  -0.03908  -0.02816
 Alpha virt. eigenvalues --   -0.02314  -0.01844  -0.01634  -0.01195  -0.00924
 Alpha virt. eigenvalues --   -0.00206   0.00041   0.00217   0.00238   0.00653

  Beta  occ. eigenvalues --  -38.44338 -38.44227 -38.44201 -38.43952 -38.43943
  Beta  occ. eigenvalues --  -38.43760 -38.43622  -2.20062  -2.20009  -2.20004
  Beta  occ. eigenvalues --   -2.19821  -2.19781  -2.19547  -2.19418  -1.13758
  Beta  occ. eigenvalues --   -1.13752  -1.13749  -1.13736  -1.13719  -1.13692
  Beta  occ. eigenvalues --   -1.13664  -1.13597  -1.13587  -1.13564  -1.13534
  Beta  occ. eigenvalues --   -1.13487  -1.13479  -1.13417  -1.13357  -1.13221
  Beta  occ. eigenvalues --   -1.13218  -1.13179  -1.13092  -1.13087  -1.13053
  Beta  occ. eigenvalues --   -0.16264  -0.13093  -0.12217
  Beta virt. eigenvalues --   -0.07585  -0.05520  -0.05015  -0.04354  -0.03710
  Beta virt. eigenvalues --   -0.02442  -0.02193  -0.01604  -0.01335  -0.01026
  Beta virt. eigenvalues --   -0.00515   0.00010   0.00225   0.00329   0.00406

 Mulliken charges and spin densities:
               1          2
     1  Na  -1.100047  -0.073160
     2  Na   0.780314   0.209489
     3  Na  -0.607772   0.274749
     4  Na   1.484884   0.159074
     5  Na  -0.732159   0.147097
     6  Na  -0.040234  -0.119244
     7  Na   0.215015   0.401994
 Sum of Mulliken charges =  -0.00000   1.00000

 Dipole moment (field-independent basis, Debye):
    X=              0.3924    Y=              0.0904    Z=              0.0447  Tot=              0.4051
 Quadrupole moment (field-independent basis, Debye-Ang):
   XX=            -63.7979   YY=            -61.6467   ZZ=            -70.2968
   XY=             -3.7101   XZ=              1.9708   YZ=             -1.6147

 Normal termination of Gaussian 16 at Tue Nov 28 20:54:34 2023.
