 Gaussian 16, Revision B.01,
 Gaussian 16:  ES64L-G16RevB.01 20-Dec-2017

 -------------------------
 #P B3LYP/6-311+g(d) force
 -------------------------

 -----
 DPGEN
 -----
 Symbolic Z-matrix:
 Charge =  0 Multiplicity = 2

                         Standard orientation:
 ---------------------------------------------------------------------
 Center     Atomic      Atomic             Coordinates (Angstroms)
 Number     Number       Type             X           Y           Z
 ---------------------------------------------------------------------
      1         11           0       -0.340448    1.658452    0.190540
      2         11           0        2.626095    3.525364    0.048070
      3         11           0        3.130274   -0.081042   -0.635646
      4         11           0        0.526599   -1.429321    1.423906
      5         11           0       -3.071584   -0.867951    0.424418
      6         11           0        2.681962   -3.149004   -0.677203
      7         11           0       -5.552899    0.343503   -0.774085
 ---------------------------------------------------------------------

 SCF Done:  E(UB3LYP) =  -1136.12487150     A.U. after   19 cycles

 The electronic state is 2-A.
 Alpha  occ. eigenvalues --  -38.44323 -38.44314 -38.44268 -38.44204 -38.43791
 Alpha  occ. eigenvalues --  -38.43626 -38.43458  -2.20184  -2.20133  -2.20104
 Alpha  occ. eigenvalues --   -2.20068  -2.19636  -2.19414  -2.19302  -1.13892
 Alpha  occ. eigenvalues --   -1.13855  -1.13830  -1.13819  -1.13785  -1.13781
 Alpha  occ. eigenvalues --   -1.13763  -1.13738  -1.13726  -1.13722  -1.13715
 Alpha  occ. eigenvalues --   -1.13692  -1.13299  -1.13281  -1.13257  -1.13080
 Alpha  occ. eigenvalues --   -1.13077  -1.13039  -1.12980  -1.12972  -1.12955
 Alpha  occ. eigenvalues --   -0.17072  -0.14025  -0.12395  -0.11218
 Alpha virt. eigenvalues --   -0.05583  -0.05293  -0.04988  -0.03821  -0.02449
 Alpha virt. eigenvalues --   -0.02376  -0.01930  -0.01712  -0.01382  -0.00616
 Alpha virt. eigenvalues --   -0.00306   0.00012   0.00434   0.00515   0.00558

  Beta  occ. eigenvalues --  -38.44293 -38.44271 -38.44182 -38.44173 -38.43772
  Beta  occ. eigenvalues --  -38.43615 -38.43454  -2.20097  -2.20091  -2.20011
  Beta  occ. eigenvalues --   -2.19945  -2.19603  -2.19393  -2.19305  -1.13837
  Beta  occ. eigenvalues --   -1.13809  -1.13794  -1.13778  -1.13725  -1.13718
  Beta  occ. eigenvalues --   -1.13689  -1.13681  -1.13677  -1.13643  -1.13617
  Beta  occ. eigenvalues --   -1.13613  -1.13267  -1.13255  -1.13241  -1.13066
  Beta  occ. eigenvalues --   -1.13060  -1.13027  -1.12987  -1.12982  -1.12890
  Beta  occ. eigenvalues --   -0.16433  -0.13214  -0.12250
  Beta virt. eigenvalues --   -0.07748  -0.05295  -0.05134  -0.04504  -0.03514
  Beta virt. eigenvalues --   -0.02251  -0.02003  -0.01687  -0.01462  -0.01091
  Beta virt. eigenvalues --   -0.00296  -0.00022   0.00143   0.00535   0.00590

 Mulliken charges and spin densities:
               1          2
     1  Na  -0.912185  -0.121596
     2  Na   0.662385   0.135011
     3  Na  -0.597108   0.311053
     4  Na  -0.276238   0.222768
     5  Na  -0.128478   0.191461
     6  Na   0.532324  -0.004669
     7  Na   0.719301   0.265973
 Sum of Mulliken charges =  -0.00000   1.00000

 Dipole moment (field-independent basis, Debye):
    X=              0.5116    Y=             -0.1828    Z=             -0.0395  Tot=              0.5447
 Quadrupole moment (field-independent basis, Debye-Ang):
   XX=            -65.7175   YY=            -61.7029   ZZ=            -69.6865
   XY=             -1.6574   XZ=              1.4690   YZ=             -0.0735

 Normal termination of Gaussian 16 at Wed Nov 29 01:18:29 2023.
