 Gaussian 16, Revision B.01,
 Gaussian 16:  ES64L-G16RevB.01 20-Dec-2017

 -------------------------
 #P B3LYP/6-311+g(d) force
 -------------------------

 -----
 DPGEN
 -----
 Symbolic Z-matrix:
 Charge =  0 Multiplicity = 2

                         Standard orientation:
 ---------------------------------------------------------------------
 Center     Atomic      Atomic             Coordinates (Angstroms)
 Number     Number       Type             X           Y           Z
 ---------------------------------------------------------------------
      1         11           0        2.765956    1.076142    0.011251
      2         11           0       -0.069766   -0.726875   -1.667816
      3         11           0        0.075457    3.198467   -0.018533
      4         11           0       -0.399474   -0.376820    1.990160
      5         11           0        2.772286   -1.966031   -0.051869
      6         11           0       -2.269797   -2.368109    0.059755
      7         11           0       -2.874662    1.163225   -0.322948
 ---------------------------------------------------------------------

 SCF Done:  E(UB3LYP) =  -1136.13202059     A.U. after   20 cycles

 The electronic state is 2-A.
 Alpha  occ. eigenvalues --  -38.44491 -38.44171 -38.44035 -38.43929 -38.43618
 Alpha  occ. eigenvalues --  -38.43551 -38.43158  -2.20303  -2.20008  -2.19885
 Alpha  occ. eigenvalues --   -2.19790  -2.19489  -2.19454  -2.18955  -1.13982
 Alpha  occ. eigenvalues --   -1.13970  -1.13929  -1.13746  -1.13661  -1.13643
 Alpha  occ. eigenvalues --   -1.13572  -1.13553  -1.13519  -1.13455  -1.13446
 Alpha  occ. eigenvalues --   -1.13414  -1.13162  -1.13125  -1.13114  -1.13109
 Alpha  occ. eigenvalues --   -1.13102  -1.13068  -1.12626  -1.12620  -1.12605
 Alpha  occ. eigenvalues --   -0.18210  -0.13504  -0.12173  -0.10470
 Alpha virt. eigenvalues --   -0.06075  -0.05574  -0.04693  -0.03403  -0.02609
 Alpha virt. eigenvalues --   -0.02454  -0.01793  -0.01295  -0.00740  -0.00429
 Alpha virt. eigenvalues --   -0.00020   0.00332   0.00715   0.00750   0.00852

  Beta  occ. eigenvalues --  -38.44480 -38.44171 -38.44027 -38.43928 -38.43524
  Beta  occ. eigenvalues --  -38.43490 -38.43161  -2.20286  -2.20010  -2.19876
  Beta  occ. eigenvalues --   -2.19789  -2.19343  -2.19315  -2.18962  -1.13962
  Beta  occ. eigenvalues --   -1.13945  -1.13922  -1.13750  -1.13653  -1.13637
  Beta  occ. eigenvalues --   -1.13567  -1.13521  -1.13508  -1.13451  -1.13434
  Beta  occ. eigenvalues --   -1.13415  -1.13066  -1.13027  -1.13023  -1.12992
  Beta  occ. eigenvalues --   -1.12984  -1.12983  -1.12631  -1.12613  -1.12610
  Beta  occ. eigenvalues --   -0.17516  -0.13295  -0.11992
  Beta virt. eigenvalues --   -0.06594  -0.06037  -0.05471  -0.04649  -0.02625
  Beta virt. eigenvalues --   -0.01963  -0.01707  -0.01411  -0.01213  -0.00799
  Beta virt. eigenvalues --   -0.00438   0.00155   0.00377   0.00737   0.00821

 Mulliken charges and spin densities:
               1          2
     1  Na  -0.215662   0.027124
     2  Na   0.080259   0.385565
     3  Na  -0.253413  -0.058858
     4  Na  -0.234375   0.646114
     5  Na   0.409355  -0.035580
     6  Na   0.236710  -0.027399
     7  Na  -0.022873   0.063035
 Sum of Mulliken charges =  -0.00000   1.00000

 Dipole moment (field-independent basis, Debye):
    X=             -0.2686    Y=             -0.5773    Z=             -0.0070  Tot=              0.6367
 Quadrupole moment (field-independent basis, Debye-Ang):
   XX=            -55.3605   YY=            -63.0059   ZZ=            -76.1510
   XY=             -0.3483   XZ=              0.8637   YZ=             -0.4359

 Normal termination of Gaussian 16 at Thu Dec  7 19:24:17 2023.
