 Gaussian 16, Revision B.01,
 Gaussian 16:  ES64L-G16RevB.01 20-Dec-2017

 -------------------------
 #P B3LYP/6-311+g(d) force
 -------------------------

 -----
 DPGEN
 -----
 Symbolic Z-matrix:
 Charge =  0 Multiplicity = 2

                         Standard orientation:
 ---------------------------------------------------------------------
 Center     Atomic      Atomic             Coordinates (Angstroms)
 Number     Number       Type             X           Y           Z
 ---------------------------------------------------------------------
      1         11           0        0.644173    2.422352   -0.901788
      2         11           0       -2.985462    1.710133    0.326718
      3         11           0        3.531438    0.930944    0.677957
      4         11           0       -0.060823   -0.589182   -1.704218
      5         11           0        2.755303   -2.244160   -0.224904
      6         11           0       -3.424504   -1.814524   -0.174900
      7         11           0       -0.460126   -0.415563    2.001136
 ---------------------------------------------------------------------

 SCF Done:  E(UB3LYP) =  -1136.11642296     A.U. after   27 cycles

 The electronic state is 2-A.
 Alpha  occ. eigenvalues --  -38.45433 -38.45076 -38.44951 -38.44775 -38.43932
 Alpha  occ. eigenvalues --  -38.43640 -38.42361  -2.21208  -2.20860  -2.20726
 Alpha  occ. eigenvalues --   -2.20532  -2.19718  -2.19524  -2.18200  -1.14895
 Alpha  occ. eigenvalues --   -1.14856  -1.14816  -1.14531  -1.14505  -1.14500
 Alpha  occ. eigenvalues --   -1.14414  -1.14379  -1.14357  -1.14211  -1.14199
 Alpha  occ. eigenvalues --   -1.14170  -1.13390  -1.13381  -1.13370  -1.13206
 Alpha  occ. eigenvalues --   -1.13164  -1.13133  -1.11907  -1.11851  -1.11825
 Alpha  occ. eigenvalues --   -0.17588  -0.13704  -0.11098  -0.10652
 Alpha virt. eigenvalues --   -0.07095  -0.06301  -0.03859  -0.03449  -0.02760
 Alpha virt. eigenvalues --   -0.02599  -0.02487  -0.01677  -0.00917  -0.00428
 Alpha virt. eigenvalues --   -0.00036   0.00146   0.00317   0.00465   0.00535

  Beta  occ. eigenvalues --  -38.45378 -38.45053 -38.44944 -38.44785 -38.43932
  Beta  occ. eigenvalues --  -38.43549 -38.42344  -2.21105  -2.20816  -2.20714
  Beta  occ. eigenvalues --   -2.20552  -2.19721  -2.19357  -2.18173  -1.14821
  Beta  occ. eigenvalues --   -1.14783  -1.14741  -1.14495  -1.14475  -1.14471
  Beta  occ. eigenvalues --   -1.14396  -1.14373  -1.14348  -1.14224  -1.14202
  Beta  occ. eigenvalues --   -1.14183  -1.13390  -1.13378  -1.13364  -1.13094
  Beta  occ. eigenvalues --   -1.13036  -1.13019  -1.11879  -1.11820  -1.11811
  Beta  occ. eigenvalues --   -0.16889  -0.13512  -0.10899
  Beta virt. eigenvalues --   -0.07015  -0.06753  -0.06236  -0.03573  -0.03061
  Beta virt. eigenvalues --   -0.02440  -0.02040  -0.01778  -0.01407  -0.00950
  Beta virt. eigenvalues --   -0.00235  -0.00011   0.00193   0.00456   0.00599

 Mulliken charges and spin densities:
               1          2
     1  Na  -0.083006  -0.067910
     2  Na   0.121953   0.053159
     3  Na  -0.052973   0.189390
     4  Na  -0.177833   0.548834
     5  Na   0.225501  -0.028329
     6  Na   0.158190  -0.088352
     7  Na  -0.191831   0.393207
 Sum of Mulliken charges =  -0.00000   1.00000

 Dipole moment (field-independent basis, Debye):
    X=             -0.6723    Y=             -0.1517    Z=              0.6155  Tot=              0.9241
 Quadrupole moment (field-independent basis, Debye-Ang):
   XX=            -49.4329   YY=            -71.1002   ZZ=            -73.9550
   XY=              0.6274   XZ=              1.6652   YZ=              1.5755

 Normal termination of Gaussian 16 at Thu Dec  7 09:35:13 2023.
