 Gaussian 16, Revision B.01,
 Gaussian 16:  ES64L-G16RevB.01 20-Dec-2017

 -------------------------
 #P B3LYP/6-311+g(d) force
 -------------------------

 -----
 DPGEN
 -----
 Symbolic Z-matrix:
 Charge =  0 Multiplicity = 2

                         Standard orientation:
 ---------------------------------------------------------------------
 Center     Atomic      Atomic             Coordinates (Angstroms)
 Number     Number       Type             X           Y           Z
 ---------------------------------------------------------------------
      1         11           0        0.085034   -0.081763   -1.623253
      2         11           0        1.469015   -2.641296   -0.039855
      3         11           0        0.740580    2.993448   -0.807292
      4         11           0        2.662653    0.412567    0.337298
      5         11           0       -2.139959   -2.032994   -0.635637
      6         11           0        0.019078    0.017640    2.237575
      7         11           0       -2.836402    1.332398    0.531163
 ---------------------------------------------------------------------

 SCF Done:  E(UB3LYP) =  -1136.13497476     A.U. after   20 cycles

 The electronic state is 2-A.
 Alpha  occ. eigenvalues --  -38.44340 -38.43860 -38.43634 -38.43522 -38.43389
 Alpha  occ. eigenvalues --  -38.43324 -38.43293  -2.20210  -2.19652  -2.19478
 Alpha  occ. eigenvalues --   -2.19355  -2.19334  -2.19251  -2.19216  -1.13874
 Alpha  occ. eigenvalues --   -1.13842  -1.13824  -1.13331  -1.13303  -1.13294
 Alpha  occ. eigenvalues --   -1.13231  -1.13130  -1.13089  -1.13082  -1.13047
 Alpha  occ. eigenvalues --   -1.13007  -1.12988  -1.12967  -1.12946  -1.12925
 Alpha  occ. eigenvalues --   -1.12912  -1.12896  -1.12882  -1.12863  -1.12804
 Alpha  occ. eigenvalues --   -0.18622  -0.12748  -0.12431  -0.11450
 Alpha virt. eigenvalues --   -0.05246  -0.04843  -0.04790  -0.03353  -0.03147
 Alpha virt. eigenvalues --   -0.02997  -0.01245  -0.01143  -0.00331  -0.00016
 Alpha virt. eigenvalues --    0.00057   0.00356   0.00860   0.00887   0.00923

  Beta  occ. eigenvalues --  -38.44240 -38.43851 -38.43623 -38.43503 -38.43389
  Beta  occ. eigenvalues --  -38.43284 -38.43265  -2.20025  -2.19637  -2.19459
  Beta  occ. eigenvalues --   -2.19322  -2.19253  -2.19227  -2.19203  -1.13751
  Beta  occ. eigenvalues --   -1.13716  -1.13687  -1.13306  -1.13292  -1.13287
  Beta  occ. eigenvalues --   -1.13201  -1.13113  -1.13074  -1.13042  -1.13010
  Beta  occ. eigenvalues --   -1.12987  -1.12959  -1.12921  -1.12907  -1.12901
  Beta  occ. eigenvalues --   -1.12893  -1.12871  -1.12837  -1.12832  -1.12791
  Beta  occ. eigenvalues --   -0.17892  -0.12487  -0.12139
  Beta virt. eigenvalues --   -0.07529  -0.05131  -0.04765  -0.04731  -0.02595
  Beta virt. eigenvalues --   -0.02446  -0.02008  -0.01146  -0.01038  -0.00274
  Beta virt. eigenvalues --   -0.00004   0.00108   0.00388   0.00886   0.00921

 Mulliken charges and spin densities:
               1          2
     1  Na  -0.189441   0.273732
     2  Na  -0.016736  -0.033484
     3  Na   0.143078   0.029923
     4  Na   0.417228   0.157929
     5  Na   0.115616  -0.026013
     6  Na  -0.424596   0.535446
     7  Na  -0.045148   0.062467
 Sum of Mulliken charges =  -0.00000   1.00000

 Dipole moment (field-independent basis, Debye):
    X=             -0.2107    Y=             -0.0122    Z=              0.3265  Tot=              0.3887
 Quadrupole moment (field-independent basis, Debye-Ang):
   XX=            -62.4515   YY=            -61.2555   ZZ=            -71.0413
   XY=             -0.8136   XZ=              0.2371   YZ=             -0.3062

 Normal termination of Gaussian 16 at Tue Dec  5 09:52:06 2023.
