 Gaussian 16, Revision B.01,
 Gaussian 16:  ES64L-G16RevB.01 20-Dec-2017

 -------------------------
 #P B3LYP/6-311+g(d) force
 -------------------------

 -----
 DPGEN
 -----
 Symbolic Z-matrix:
 Charge =  0 Multiplicity = 2

                         Standard orientation:
 ---------------------------------------------------------------------
 Center     Atomic      Atomic             Coordinates (Angstroms)
 Number     Number       Type             X           Y           Z
 ---------------------------------------------------------------------
      1         11           0        3.170146   -0.843397   -0.403850
      2         11           0        0.479082   -2.641770    0.492376
      3         11           0       -2.320022    2.010348   -0.366693
      4         11           0       -0.411053   -0.355778   -1.807274
      5         11           0       -0.068132    0.607021    1.814007
      6         11           0        2.138767    2.370621    0.075202
      7         11           0       -2.988788   -1.147045    0.196232
 ---------------------------------------------------------------------

 SCF Done:  E(UB3LYP) =  -1136.13405765     A.U. after   19 cycles

 The electronic state is 2-A.
 Alpha  occ. eigenvalues --  -38.44436 -38.44320 -38.43918 -38.43669 -38.43616
 Alpha  occ. eigenvalues --  -38.43301 -38.42861  -2.20285  -2.20139  -2.19777
 Alpha  occ. eigenvalues --   -2.19585  -2.19428  -2.19214  -2.18728  -1.13964
 Alpha  occ. eigenvalues --   -1.13949  -1.13927  -1.13812  -1.13793  -1.13786
 Alpha  occ. eigenvalues --   -1.13461  -1.13442  -1.13406  -1.13267  -1.13225
 Alpha  occ. eigenvalues --   -1.13199  -1.13119  -1.13085  -1.13071  -1.12888
 Alpha  occ. eigenvalues --   -1.12848  -1.12830  -1.12411  -1.12390  -1.12359
 Alpha  occ. eigenvalues --   -0.18515  -0.13530  -0.11957  -0.10666
 Alpha virt. eigenvalues --   -0.06044  -0.05628  -0.04155  -0.03430  -0.02803
 Alpha virt. eigenvalues --   -0.02383  -0.01853  -0.01186  -0.00533  -0.00199
 Alpha virt. eigenvalues --   -0.00033   0.00338   0.00698   0.00810   0.00860

  Beta  occ. eigenvalues --  -38.44430 -38.44314 -38.43907 -38.43617 -38.43602
  Beta  occ. eigenvalues --  -38.43223 -38.42848  -2.20279  -2.20128  -2.19759
  Beta  occ. eigenvalues --   -2.19464  -2.19430  -2.19072  -2.18708  -1.13958
  Beta  occ. eigenvalues --   -1.13940  -1.13905  -1.13796  -1.13786  -1.13779
  Beta  occ. eigenvalues --   -1.13446  -1.13416  -1.13387  -1.13184  -1.13141
  Beta  occ. eigenvalues --   -1.13111  -1.13107  -1.13078  -1.13075  -1.12794
  Beta  occ. eigenvalues --   -1.12748  -1.12724  -1.12401  -1.12363  -1.12336
  Beta  occ. eigenvalues --   -0.17792  -0.13300  -0.11735
  Beta virt. eigenvalues --   -0.06818  -0.05911  -0.05628  -0.04072  -0.02703
  Beta virt. eigenvalues --   -0.02092  -0.01745  -0.01404  -0.01111  -0.00546
  Beta virt. eigenvalues --   -0.00212   0.00114   0.00370   0.00778   0.00813

 Mulliken charges and spin densities:
               1          2
     1  Na  -0.014383   0.029415
     2  Na  -0.073659   0.052218
     3  Na   0.092725  -0.086425
     4  Na  -0.170560   0.498091
     5  Na  -0.140795   0.587733
     6  Na   0.029696  -0.116197
     7  Na   0.276976   0.035166
 Sum of Mulliken charges =  -0.00000   1.00000

 Dipole moment (field-independent basis, Debye):
    X=             -0.3036    Y=              0.0447    Z=             -0.1223  Tot=              0.3303
 Quadrupole moment (field-independent basis, Debye-Ang):
   XX=            -52.8009   YY=            -66.4877   ZZ=            -74.3264
   XY=              0.0853   XZ=             -1.4933   YZ=             -2.0510

 Normal termination of Gaussian 16 at Thu Dec  7 09:59:32 2023.
