 Gaussian 16, Revision B.01,
 Gaussian 16:  ES64L-G16RevB.01 20-Dec-2017

 -------------------------
 #P B3LYP/6-311+g(d) force
 -------------------------

 -----
 DPGEN
 -----
 Symbolic Z-matrix:
 Charge =  0 Multiplicity = 2

                         Standard orientation:
 ---------------------------------------------------------------------
 Center     Atomic      Atomic             Coordinates (Angstroms)
 Number     Number       Type             X           Y           Z
 ---------------------------------------------------------------------
      1         11           0       -4.354185   -1.591552    0.889286
      2         11           0       -1.029971   -2.793454   -0.748011
      3         11           0        2.027533   -1.804836   -0.321711
      4         11           0       -0.795413    3.350648   -0.678830
      5         11           0        5.802384   -0.203095    0.179800
      6         11           0       -4.352184    1.491901   -0.047483
      7         11           0        2.701835    1.550387    0.726947
 ---------------------------------------------------------------------

 SCF Done:  E(UB3LYP) =  -1136.10782036     A.U. after   23 cycles

 The electronic state is 2-A.
 Alpha  occ. eigenvalues --  -38.45369 -38.45248 -38.44745 -38.44454 -38.44417
 Alpha  occ. eigenvalues --  -38.44278 -38.43475  -2.21149  -2.21001  -2.20535
 Alpha  occ. eigenvalues --   -2.20216  -2.20158  -2.20087  -2.19257  -1.14801
 Alpha  occ. eigenvalues --   -1.14800  -1.14750  -1.14699  -1.14693  -1.14608
 Alpha  occ. eigenvalues --   -1.14210  -1.14196  -1.14160  -1.13896  -1.13882
 Alpha  occ. eigenvalues --   -1.13853  -1.13826  -1.13810  -1.13775  -1.13775
 Alpha  occ. eigenvalues --   -1.13767  -1.13700  -1.12931  -1.12927  -1.12893
 Alpha  occ. eigenvalues --   -0.15702  -0.14132  -0.12159  -0.11519
 Alpha virt. eigenvalues --   -0.06758  -0.06045  -0.04176  -0.03640  -0.03094
 Alpha virt. eigenvalues --   -0.02806  -0.02169  -0.01655  -0.01109  -0.01036
 Alpha virt. eigenvalues --   -0.00590  -0.00340  -0.00189   0.00379   0.00501

  Beta  occ. eigenvalues --  -38.45287 -38.45249 -38.44705 -38.44456 -38.44359
  Beta  occ. eigenvalues --  -38.44246 -38.43464  -2.21007  -2.20997  -2.20464
  Beta  occ. eigenvalues --   -2.20224  -2.20050  -2.20033  -2.19242  -1.14707
  Beta  occ. eigenvalues --   -1.14701  -1.14695  -1.14694  -1.14654  -1.14578
  Beta  occ. eigenvalues --   -1.14158  -1.14147  -1.14115  -1.13904  -1.13889
  Beta  occ. eigenvalues --   -1.13839  -1.13753  -1.13738  -1.13737  -1.13732
  Beta  occ. eigenvalues --   -1.13703  -1.13646  -1.12921  -1.12916  -1.12871
  Beta  occ. eigenvalues --   -0.15136  -0.13609  -0.11479
  Beta virt. eigenvalues --   -0.08278  -0.06663  -0.05547  -0.03856  -0.03458
  Beta virt. eigenvalues --   -0.02835  -0.02525  -0.01829  -0.01284  -0.00820
  Beta virt. eigenvalues --   -0.00770  -0.00487  -0.00118  -0.00013   0.00458

 Mulliken charges and spin densities:
               1          2
     1  Na   0.296030   0.129298
     2  Na  -0.323051  -0.468202
     3  Na  -0.364769   0.527739
     4  Na   0.071384   0.261309
     5  Na   0.994225   0.442572
     6  Na  -0.202458   0.021492
     7  Na  -0.471361   0.085792
 Sum of Mulliken charges =  -0.00000   1.00000

 Dipole moment (field-independent basis, Debye):
    X=              1.2995    Y=             -0.1521    Z=              0.3198  Tot=              1.3468
 Quadrupole moment (field-independent basis, Debye-Ang):
   XX=            -49.6899   YY=            -72.1133   ZZ=            -71.8611
   XY=              0.4275   XZ=             -0.8955   YZ=             -1.2357

 Normal termination of Gaussian 16 at Mon Dec  4 04:17:38 2023.
