 Gaussian 16, Revision B.01,
 Gaussian 16:  ES64L-G16RevB.01 20-Dec-2017

 -------------------------
 #P B3LYP/6-311+g(d) force
 -------------------------

 -----
 DPGEN
 -----
 Symbolic Z-matrix:
 Charge =  0 Multiplicity = 2

                         Standard orientation:
 ---------------------------------------------------------------------
 Center     Atomic      Atomic             Coordinates (Angstroms)
 Number     Number       Type             X           Y           Z
 ---------------------------------------------------------------------
      1         11           0       -1.159886    2.113866    0.203310
      2         11           0       -3.756088    0.115214    0.054586
      3         11           0       -0.585951   -1.784859    1.355384
      4         11           0       -0.960842   -1.234602   -1.387868
      5         11           0        2.250421    0.725675    1.659719
      6         11           0        2.401919   -1.855843   -0.711186
      7         11           0        1.810426    1.920548   -1.173946
 ---------------------------------------------------------------------

 SCF Done:  E(UB3LYP) =  -1136.12867308     A.U. after   19 cycles

 The electronic state is 2-A.
 Alpha  occ. eigenvalues --  -38.44743 -38.43897 -38.43848 -38.43795 -38.43610
 Alpha  occ. eigenvalues --  -38.43372 -38.43368  -2.20562  -2.19730  -2.19721
 Alpha  occ. eigenvalues --   -2.19695  -2.19554  -2.19243  -2.19226  -1.14235
 Alpha  occ. eigenvalues --   -1.14226  -1.14195  -1.13611  -1.13422  -1.13405
 Alpha  occ. eigenvalues --   -1.13389  -1.13376  -1.13367  -1.13340  -1.13330
 Alpha  occ. eigenvalues --   -1.13268  -1.13197  -1.13148  -1.13126  -1.12966
 Alpha  occ. eigenvalues --   -1.12906  -1.12896  -1.12886  -1.12870  -1.12824
 Alpha  occ. eigenvalues --   -0.18425  -0.13705  -0.12005  -0.10652
 Alpha virt. eigenvalues --   -0.06317  -0.05170  -0.04337  -0.03558  -0.02901
 Alpha virt. eigenvalues --   -0.02297  -0.02086  -0.00950  -0.00372  -0.00087
 Alpha virt. eigenvalues --    0.00110   0.00316   0.00455   0.00758   0.00866

  Beta  occ. eigenvalues --  -38.44745 -38.43881 -38.43798 -38.43762 -38.43574
  Beta  occ. eigenvalues --  -38.43366 -38.43345  -2.20565  -2.19703  -2.19636
  Beta  occ. eigenvalues --   -2.19628  -2.19489  -2.19218  -2.19202  -1.14235
  Beta  occ. eigenvalues --   -1.14224  -1.14197  -1.13565  -1.13387  -1.13366
  Beta  occ. eigenvalues --   -1.13346  -1.13336  -1.13308  -1.13287  -1.13271
  Beta  occ. eigenvalues --   -1.13228  -1.13155  -1.13092  -1.13075  -1.12948
  Beta  occ. eigenvalues --   -1.12889  -1.12873  -1.12860  -1.12836  -1.12808
  Beta  occ. eigenvalues --   -0.17755  -0.13528  -0.11816
  Beta virt. eigenvalues --   -0.06818  -0.06201  -0.05151  -0.03801  -0.03258
  Beta virt. eigenvalues --   -0.02264  -0.02011  -0.01351  -0.00905  -0.00097
  Beta virt. eigenvalues --    0.00010   0.00100   0.00370   0.00633   0.00847

 Mulliken charges and spin densities:
               1          2
     1  Na  -0.426138  -0.029529
     2  Na   0.737040  -0.068653
     3  Na  -0.302847   0.273213
     4  Na  -0.261104   0.280465
     5  Na  -0.045767   0.227530
     6  Na   0.268075   0.112410
     7  Na   0.030740   0.204564
 Sum of Mulliken charges =  -0.00000   1.00000

 Dipole moment (field-independent basis, Debye):
    X=             -0.6543    Y=             -0.2528    Z=              0.0246  Tot=              0.7019
 Quadrupole moment (field-independent basis, Debye-Ang):
   XX=            -50.4647   YY=            -72.9857   ZZ=            -70.4793
   XY=             -0.9223   XZ=             -1.3541   YZ=             -0.1357

 Normal termination of Gaussian 16 at Tue Dec  5 19:42:58 2023.
