 Gaussian 16, Revision B.01,
 Gaussian 16:  ES64L-G16RevB.01 20-Dec-2017

 -------------------------
 #P B3LYP/6-311+g(d) force
 -------------------------

 -----
 DPGEN
 -----
 Symbolic Z-matrix:
 Charge =  0 Multiplicity = 2

                         Standard orientation:
 ---------------------------------------------------------------------
 Center     Atomic      Atomic             Coordinates (Angstroms)
 Number     Number       Type             X           Y           Z
 ---------------------------------------------------------------------
      1         11           0        2.264515    1.640825    0.060093
      2         11           0       -3.219829   -0.379511   -0.412421
      3         11           0        0.007160    0.315507    2.064379
      4         11           0        0.065534   -0.158627   -1.735729
      5         11           0        2.559481   -1.826844   -0.392295
      6         11           0       -0.854968   -2.483447    0.576960
      7         11           0       -0.821893    2.892098   -0.160987
 ---------------------------------------------------------------------

 SCF Done:  E(UB3LYP) =  -1136.13860935     A.U. after   19 cycles

 The electronic state is 2-A.
 Alpha  occ. eigenvalues --  -38.43871 -38.43799 -38.43520 -38.43483 -38.43395
 Alpha  occ. eigenvalues --  -38.43392 -38.43317  -2.19716  -2.19684  -2.19420
 Alpha  occ. eigenvalues --   -2.19358  -2.19324  -2.19238  -2.19211  -1.13388
 Alpha  occ. eigenvalues --   -1.13366  -1.13359  -1.13347  -1.13334  -1.13324
 Alpha  occ. eigenvalues --   -1.13130  -1.13097  -1.13063  -1.13044  -1.13018
 Alpha  occ. eigenvalues --   -1.12993  -1.12986  -1.12972  -1.12945  -1.12901
 Alpha  occ. eigenvalues --   -1.12894  -1.12885  -1.12877  -1.12865  -1.12817
 Alpha  occ. eigenvalues --   -0.18785  -0.12888  -0.12493  -0.11145
 Alpha virt. eigenvalues --   -0.05364  -0.04978  -0.04655  -0.03319  -0.03036
 Alpha virt. eigenvalues --   -0.02803  -0.01396  -0.01100  -0.00201  -0.00118
 Alpha virt. eigenvalues --    0.00044   0.00362   0.00828   0.00886   0.00945

  Beta  occ. eigenvalues --  -38.43866 -38.43704 -38.43513 -38.43480 -38.43390
  Beta  occ. eigenvalues --  -38.43326 -38.43300  -2.19677  -2.19541  -2.19410
  Beta  occ. eigenvalues --   -2.19322  -2.19238  -2.19232  -2.19185  -1.13353
  Beta  occ. eigenvalues --   -1.13330  -1.13323  -1.13276  -1.13240  -1.13211
  Beta  occ. eigenvalues --   -1.13113  -1.13069  -1.13044  -1.12988  -1.12981
  Beta  occ. eigenvalues --   -1.12976  -1.12944  -1.12928  -1.12914  -1.12882
  Beta  occ. eigenvalues --   -1.12874  -1.12866  -1.12843  -1.12822  -1.12806
  Beta  occ. eigenvalues --   -0.18034  -0.12648  -0.12248
  Beta virt. eigenvalues --   -0.07201  -0.05320  -0.04946  -0.04585  -0.02514
  Beta virt. eigenvalues --   -0.02316  -0.01751  -0.01296  -0.01051  -0.00184
  Beta virt. eigenvalues --   -0.00106   0.00116   0.00382   0.00869   0.00899

 Mulliken charges and spin densities:
               1          2
     1  Na   0.296080  -0.004179
     2  Na  -0.034564  -0.076748
     3  Na  -0.266624   0.526777
     4  Na  -0.351557   0.598048
     5  Na   0.147039  -0.035585
     6  Na   0.223793   0.093520
     7  Na  -0.014168  -0.101833
 Sum of Mulliken charges =  -0.00000   1.00000

 Dipole moment (field-independent basis, Debye):
    X=             -0.1465    Y=              0.1608    Z=              0.0430  Tot=              0.2217
 Quadrupole moment (field-independent basis, Debye-Ang):
   XX=            -58.6969   YY=            -63.2735   ZZ=            -72.2618
   XY=             -1.1998   XZ=              0.5693   YZ=             -0.8877

 Normal termination of Gaussian 16 at Tue Dec  5 18:25:36 2023.
