 Gaussian 16, Revision B.01,
 Gaussian 16:  ES64L-G16RevB.01 20-Dec-2017

 -------------------------
 #P B3LYP/6-311+g(d) force
 -------------------------

 -----
 DPGEN
 -----
 Symbolic Z-matrix:
 Charge =  0 Multiplicity = 2

                         Standard orientation:
 ---------------------------------------------------------------------
 Center     Atomic      Atomic             Coordinates (Angstroms)
 Number     Number       Type             X           Y           Z
 ---------------------------------------------------------------------
      1         11           0       -2.548984   -1.159423    0.583236
      2         11           0       -5.765332   -0.549269   -0.447479
      3         11           0       -2.716402    2.259345   -0.172759
      4         11           0        0.431984    1.129897   -0.062648
      5         11           0        0.657096   -2.023015   -0.210072
      6         11           0        3.237641    0.415266    1.002135
      7         11           0        6.703997   -0.072799   -0.692414
 ---------------------------------------------------------------------

 SCF Done:  E(UB3LYP) =  -1136.10995900     A.U. after   24 cycles

 The electronic state is 2-A.
 Alpha  occ. eigenvalues --  -38.44916 -38.44556 -38.44335 -38.44301 -38.44293
 Alpha  occ. eigenvalues --  -38.44077 -38.44065  -2.20748  -2.20427  -2.20156
 Alpha  occ. eigenvalues --   -2.20125  -2.20016  -2.19981  -2.19896  -1.14420
 Alpha  occ. eigenvalues --   -1.14411  -1.14342  -1.14104  -1.14078  -1.14053
 Alpha  occ. eigenvalues --   -1.13852  -1.13831  -1.13802  -1.13779  -1.13762
 Alpha  occ. eigenvalues --   -1.13756  -1.13715  -1.13683  -1.13682  -1.13679
 Alpha  occ. eigenvalues --   -1.13648  -1.13641  -1.13566  -1.13542  -1.13466
 Alpha  occ. eigenvalues --   -0.17640  -0.14035  -0.12018  -0.11168
 Alpha virt. eigenvalues --   -0.07038  -0.05438  -0.04765  -0.03466  -0.03363
 Alpha virt. eigenvalues --   -0.02671  -0.01991  -0.01261  -0.01162  -0.00764
 Alpha virt. eigenvalues --   -0.00466  -0.00239  -0.00074   0.00194   0.00406

  Beta  occ. eigenvalues --  -38.44839 -38.44497 -38.44388 -38.44277 -38.44254
  Beta  occ. eigenvalues --  -38.44043 -38.44029  -2.20610  -2.20320  -2.20145
  Beta  occ. eigenvalues --   -2.20092  -2.20015  -2.19961  -2.19826  -1.14324
  Beta  occ. eigenvalues --   -1.14319  -1.14229  -1.14039  -1.14003  -1.13962
  Beta  occ. eigenvalues --   -1.13809  -1.13795  -1.13794  -1.13777  -1.13748
  Beta  occ. eigenvalues --   -1.13725  -1.13704  -1.13702  -1.13686  -1.13646
  Beta  occ. eigenvalues --   -1.13639  -1.13594  -1.13507  -1.13491  -1.13438
  Beta  occ. eigenvalues --   -0.16719  -0.13701  -0.11447
  Beta virt. eigenvalues --   -0.07797  -0.06899  -0.05003  -0.04342  -0.03170
  Beta virt. eigenvalues --   -0.02588  -0.02513  -0.01695  -0.01241  -0.00833
  Beta virt. eigenvalues --   -0.00626  -0.00165  -0.00149   0.00092   0.00352

 Mulliken charges and spin densities:
               1          2
     1  Na  -0.435531   0.178175
     2  Na   0.130824   0.304527
     3  Na   0.264221  -0.044670
     4  Na  -1.084364   0.694779
     5  Na   0.439543   0.230848
     6  Na   0.595375   0.099073
     7  Na   0.089933  -0.462732
 Sum of Mulliken charges =  -0.00000   1.00000

 Dipole moment (field-independent basis, Debye):
    X=             -1.5755    Y=             -0.2590    Z=             -0.3507  Tot=              1.6347
 Quadrupole moment (field-independent basis, Debye-Ang):
   XX=            -68.2946   YY=            -66.7756   ZZ=            -69.9971
   XY=             -4.6863   XZ=             -0.5271   YZ=              0.5753

 Normal termination of Gaussian 16 at Tue Nov 28 22:37:55 2023.
