 Gaussian 16, Revision B.01,
 Gaussian 16:  ES64L-G16RevB.01 20-Dec-2017

 -------------------------
 #P B3LYP/6-311+g(d) force
 -------------------------

 -----
 DPGEN
 -----
 Symbolic Z-matrix:
 Charge =  0 Multiplicity = 2

                         Standard orientation:
 ---------------------------------------------------------------------
 Center     Atomic      Atomic             Coordinates (Angstroms)
 Number     Number       Type             X           Y           Z
 ---------------------------------------------------------------------
      1         11           0       -1.480505    2.477518   -0.078100
      2         11           0       -0.063062    0.022682   -1.708606
      3         11           0        2.130140    2.530925   -0.221760
      4         11           0        2.968410   -1.767326    0.004870
      5         11           0        0.240431    0.203543    2.062486
      6         11           0       -0.460055   -2.813421   -0.159203
      7         11           0       -3.335360   -0.653921    0.100313
 ---------------------------------------------------------------------

 SCF Done:  E(UB3LYP) =  -1136.13553296     A.U. after   19 cycles

 The electronic state is 2-A.
 Alpha  occ. eigenvalues --  -38.44240 -38.44093 -38.43919 -38.43699 -38.43646
 Alpha  occ. eigenvalues --  -38.43559 -38.43372  -2.20004  -2.19879  -2.19710
 Alpha  occ. eigenvalues --   -2.19552  -2.19500  -2.19403  -2.19300  -1.13679
 Alpha  occ. eigenvalues --   -1.13659  -1.13651  -1.13554  -1.13535  -1.13524
 Alpha  occ. eigenvalues --   -1.13380  -1.13372  -1.13360  -1.13263  -1.13230
 Alpha  occ. eigenvalues --   -1.13167  -1.13160  -1.13130  -1.13123  -1.13117
 Alpha  occ. eigenvalues --   -1.13069  -1.13011  -1.12977  -1.12930  -1.12906
 Alpha  occ. eigenvalues --   -0.18135  -0.12654  -0.12453  -0.10505
 Alpha virt. eigenvalues --   -0.05747  -0.05583  -0.04776  -0.02999  -0.02898
 Alpha virt. eigenvalues --   -0.02496  -0.01674  -0.01477  -0.00551  -0.00497
 Alpha virt. eigenvalues --   -0.00038   0.00330   0.00721   0.00782   0.00867

  Beta  occ. eigenvalues --  -38.44242 -38.44090 -38.43920 -38.43691 -38.43552
  Beta  occ. eigenvalues --  -38.43552 -38.43305  -2.20010  -2.19876  -2.19713
  Beta  occ. eigenvalues --   -2.19541  -2.19394  -2.19326  -2.19177  -1.13670
  Beta  occ. eigenvalues --   -1.13663  -1.13656  -1.13538  -1.13530  -1.13523
  Beta  occ. eigenvalues --   -1.13379  -1.13363  -1.13362  -1.13251  -1.13193
  Beta  occ. eigenvalues --   -1.13156  -1.13113  -1.13055  -1.13043  -1.13010
  Beta  occ. eigenvalues --   -1.13000  -1.12992  -1.12895  -1.12844  -1.12818
  Beta  occ. eigenvalues --   -0.17404  -0.12429  -0.12284
  Beta virt. eigenvalues --   -0.06610  -0.05755  -0.05510  -0.04722  -0.02215
  Beta virt. eigenvalues --   -0.02199  -0.01596  -0.01452  -0.01405  -0.00608
  Beta virt. eigenvalues --   -0.00527   0.00112   0.00352   0.00765   0.00778

 Mulliken charges and spin densities:
               1          2
     1  Na   0.247646  -0.025913
     2  Na  -0.028613   0.555565
     3  Na   0.065124  -0.128672
     4  Na  -0.005705  -0.126209
     5  Na  -0.433199   0.822517
     6  Na   0.136378  -0.059875
     7  Na   0.018369  -0.037412
 Sum of Mulliken charges =  -0.00000   1.00000

 Dipole moment (field-independent basis, Debye):
    X=              0.2793    Y=              0.1092    Z=              0.0605  Tot=              0.3059
 Quadrupole moment (field-independent basis, Debye-Ang):
   XX=            -54.9778   YY=            -61.7035   ZZ=            -75.8700
   XY=              0.5734   XZ=             -0.7757   YZ=             -0.4833

 Normal termination of Gaussian 16 at Fri Dec  8 06:45:48 2023.
