 Gaussian 16, Revision B.01,
 Gaussian 16:  ES64L-G16RevB.01 20-Dec-2017

 -------------------------
 #P B3LYP/6-311+g(d) force
 -------------------------

 -----
 DPGEN
 -----
 Symbolic Z-matrix:
 Charge =  0 Multiplicity = 2

                         Standard orientation:
 ---------------------------------------------------------------------
 Center     Atomic      Atomic             Coordinates (Angstroms)
 Number     Number       Type             X           Y           Z
 ---------------------------------------------------------------------
      1         11           0        2.658489    1.826590   -0.105410
      2         11           0       -1.270447   -2.200746    0.098752
      3         11           0        2.211069   -1.961172   -0.036109
      4         11           0        0.906449   -0.207133   -1.746726
      5         11           0       -3.497763    0.379599   -0.800587
      6         11           0       -0.219547   -0.167467    2.303867
      7         11           0       -0.788249    2.330329    0.286214
 ---------------------------------------------------------------------

 SCF Done:  E(UB3LYP) =  -1136.12771194     A.U. after   20 cycles

 The electronic state is 2-A.
 Alpha  occ. eigenvalues --  -38.44353 -38.44256 -38.43987 -38.43826 -38.43753
 Alpha  occ. eigenvalues --  -38.43176 -38.43086  -2.20152  -2.20146  -2.19982
 Alpha  occ. eigenvalues --   -2.19730  -2.19593  -2.19065  -2.18951  -1.13875
 Alpha  occ. eigenvalues --   -1.13815  -1.13805  -1.13803  -1.13788  -1.13777
 Alpha  occ. eigenvalues --   -1.13760  -1.13622  -1.13604  -1.13363  -1.13334
 Alpha  occ. eigenvalues --   -1.13315  -1.13269  -1.13244  -1.13224  -1.12770
 Alpha  occ. eigenvalues --   -1.12744  -1.12667  -1.12657  -1.12627  -1.12557
 Alpha  occ. eigenvalues --   -0.18663  -0.13189  -0.12185  -0.11359
 Alpha virt. eigenvalues --   -0.05769  -0.05203  -0.04013  -0.03652  -0.03051
 Alpha virt. eigenvalues --   -0.02958  -0.01601  -0.01055  -0.00240   0.00001
 Alpha virt. eigenvalues --    0.00110   0.00296   0.00741   0.00876   0.00898

  Beta  occ. eigenvalues --  -38.44324 -38.44147 -38.43940 -38.43824 -38.43755
  Beta  occ. eigenvalues --  -38.43168 -38.43077  -2.20092  -2.19953  -2.19896
  Beta  occ. eigenvalues --   -2.19727  -2.19598  -2.19054  -2.18939  -1.13832
  Beta  occ. eigenvalues --   -1.13768  -1.13760  -1.13745  -1.13685  -1.13641
  Beta  occ. eigenvalues --   -1.13625  -1.13565  -1.13543  -1.13347  -1.13325
  Beta  occ. eigenvalues --   -1.13298  -1.13261  -1.13246  -1.13223  -1.12756
  Beta  occ. eigenvalues --   -1.12713  -1.12661  -1.12641  -1.12601  -1.12552
  Beta  occ. eigenvalues --   -0.17962  -0.12862  -0.11961
  Beta virt. eigenvalues --   -0.07537  -0.05524  -0.05162  -0.03937  -0.02975
  Beta virt. eigenvalues --   -0.02265  -0.02063  -0.01440  -0.01014  -0.00137
  Beta virt. eigenvalues --    0.00057   0.00114   0.00350   0.00880   0.00898

 Mulliken charges and spin densities:
               1          2
     1  Na   0.082532  -0.139256
     2  Na   0.217338   0.139965
     3  Na   0.373399  -0.141240
     4  Na  -0.284344   0.546926
     5  Na  -0.114147   0.066661
     6  Na  -0.325149   0.430417
     7  Na   0.050370   0.096527
 Sum of Mulliken charges =  -0.00000   1.00000

 Dipole moment (field-independent basis, Debye):
    X=              0.1214    Y=             -0.0213    Z=              0.1297  Tot=              0.1789
 Quadrupole moment (field-independent basis, Debye-Ang):
   XX=            -56.3652   YY=            -69.4933   ZZ=            -69.7933
   XY=              0.1747   XZ=              3.0971   YZ=             -0.4845

 Normal termination of Gaussian 16 at Tue Dec  5 19:13:40 2023.
