 Gaussian 16, Revision B.01,
 Gaussian 16:  ES64L-G16RevB.01 20-Dec-2017

 -------------------------
 #P B3LYP/6-311+g(d) force
 -------------------------

 -----
 DPGEN
 -----
 Symbolic Z-matrix:
 Charge =  0 Multiplicity = 2

                         Standard orientation:
 ---------------------------------------------------------------------
 Center     Atomic      Atomic             Coordinates (Angstroms)
 Number     Number       Type             X           Y           Z
 ---------------------------------------------------------------------
      1         11           0       -0.008576    0.606940    2.170733
      2         11           0        1.391610    3.445890   -0.263687
      3         11           0        3.246232    0.196921   -0.508908
      4         11           0       -2.133490   -1.498342    1.499491
      5         11           0       -2.345255    1.061690   -1.034879
      6         11           0        4.006401   -2.693376   -0.604363
      7         11           0       -4.156922   -1.119723   -1.258387
 ---------------------------------------------------------------------

 SCF Done:  E(UB3LYP) =  -1136.10949878     A.U. after   22 cycles

 The electronic state is 2-A.
 Alpha  occ. eigenvalues --  -38.45667 -38.45262 -38.44755 -38.44723 -38.44408
 Alpha  occ. eigenvalues --  -38.42788 -38.42466  -2.21536  -2.21148  -2.20607
 Alpha  occ. eigenvalues --   -2.20587  -2.20177  -2.18622  -2.18277  -1.15251
 Alpha  occ. eigenvalues --   -1.15197  -1.15172  -1.14861  -1.14794  -1.14747
 Alpha  occ. eigenvalues --   -1.14290  -1.14275  -1.14239  -1.14230  -1.14213
 Alpha  occ. eigenvalues --   -1.14187  -1.13841  -1.13834  -1.13789  -1.12339
 Alpha  occ. eigenvalues --   -1.12296  -1.12271  -1.11922  -1.11921  -1.11913
 Alpha  occ. eigenvalues --   -0.17419  -0.13974  -0.12328  -0.11176
 Alpha virt. eigenvalues --   -0.06582  -0.05123  -0.04658  -0.03914  -0.03497
 Alpha virt. eigenvalues --   -0.02271  -0.02059  -0.01413  -0.00957  -0.00860
 Alpha virt. eigenvalues --   -0.00330   0.00031   0.00135   0.00410   0.00492

  Beta  occ. eigenvalues --  -38.45629 -38.45189 -38.44702 -38.44697 -38.44364
  Beta  occ. eigenvalues --  -38.42785 -38.42465  -2.21467  -2.21018  -2.20561
  Beta  occ. eigenvalues --   -2.20497  -2.20094  -2.18617  -2.18277  -1.15199
  Beta  occ. eigenvalues --   -1.15152  -1.15114  -1.14757  -1.14709  -1.14649
  Beta  occ. eigenvalues --   -1.14243  -1.14208  -1.14200  -1.14187  -1.14184
  Beta  occ. eigenvalues --   -1.14096  -1.13783  -1.13777  -1.13739  -1.12329
  Beta  occ. eigenvalues --   -1.12293  -1.12271  -1.11922  -1.11920  -1.11912
  Beta  occ. eigenvalues --   -0.16684  -0.13660  -0.11094
  Beta virt. eigenvalues --   -0.08264  -0.06292  -0.04703  -0.04467  -0.03686
  Beta virt. eigenvalues --   -0.02643  -0.02114  -0.01782  -0.01129  -0.00826
  Beta virt. eigenvalues --   -0.00656  -0.00098   0.00150   0.00262   0.00528

 Mulliken charges and spin densities:
               1          2
     1  Na  -0.025985   0.192042
     2  Na   0.414063   0.249310
     3  Na  -0.995615   0.018433
     4  Na  -0.239156   0.241038
     5  Na  -0.897985   0.371893
     6  Na   0.596835   0.020023
     7  Na   1.147842  -0.092740
 Sum of Mulliken charges =  -0.00000   1.00000

 Dipole moment (field-independent basis, Debye):
    X=             -3.4295    Y=              0.3135    Z=              0.3092  Tot=              3.4577
 Quadrupole moment (field-independent basis, Debye-Ang):
   XX=            -71.9045   YY=            -61.2044   ZZ=            -69.6405
   XY=              9.1143   XZ=              3.2238   YZ=             -3.1776

 Normal termination of Gaussian 16 at Sun Dec  3 19:45:55 2023.
