 Gaussian 16, Revision B.01,
 Gaussian 16:  ES64L-G16RevB.01 20-Dec-2017

 -------------------------
 #P B3LYP/6-311+g(d) force
 -------------------------

 -----
 DPGEN
 -----
 Symbolic Z-matrix:
 Charge =  0 Multiplicity = 2

                         Standard orientation:
 ---------------------------------------------------------------------
 Center     Atomic      Atomic             Coordinates (Angstroms)
 Number     Number       Type             X           Y           Z
 ---------------------------------------------------------------------
      1         11           0        1.150856    3.465647   -0.577776
      2         11           0       -3.010827   -2.646242   -0.556102
      3         11           0        3.837212    1.369150    0.219517
      4         11           0       -2.319355    2.853023   -0.237212
      5         11           0        3.591827   -2.154472    0.606237
      6         11           0       -3.779807    0.307073    1.129604
      7         11           0        0.530093   -3.194179   -0.584268
 ---------------------------------------------------------------------

 SCF Done:  E(UB3LYP) =  -1136.10987565     A.U. after   24 cycles

 The electronic state is 2-A.
 Alpha  occ. eigenvalues --  -38.45409 -38.45312 -38.44870 -38.44501 -38.44039
 Alpha  occ. eigenvalues --  -38.44018 -38.43650  -2.21171  -2.21071  -2.20673
 Alpha  occ. eigenvalues --   -2.20298  -2.19836  -2.19802  -2.19460  -1.14854
 Alpha  occ. eigenvalues --   -1.14838  -1.14802  -1.14759  -1.14748  -1.14697
 Alpha  occ. eigenvalues --   -1.14352  -1.14338  -1.14313  -1.13967  -1.13962
 Alpha  occ. eigenvalues --   -1.13933  -1.13496  -1.13484  -1.13472  -1.13471
 Alpha  occ. eigenvalues --   -1.13464  -1.13434  -1.13111  -1.13107  -1.13097
 Alpha  occ. eigenvalues --   -0.15651  -0.14044  -0.13490  -0.10722
 Alpha virt. eigenvalues --   -0.07871  -0.04726  -0.04431  -0.03604  -0.03579
 Alpha virt. eigenvalues --   -0.02300  -0.02040  -0.01902  -0.01319  -0.01000
 Alpha virt. eigenvalues --   -0.00622  -0.00087   0.00109   0.00344   0.00737

  Beta  occ. eigenvalues --  -38.45387 -38.45287 -38.44846 -38.44480 -38.43992
  Beta  occ. eigenvalues --  -38.43989 -38.43597  -2.21136  -2.21032  -2.20632
  Beta  occ. eigenvalues --   -2.20264  -2.19752  -2.19749  -2.19362  -1.14834
  Beta  occ. eigenvalues --   -1.14818  -1.14743  -1.14738  -1.14728  -1.14625
  Beta  occ. eigenvalues --   -1.14316  -1.14314  -1.14270  -1.13944  -1.13941
  Beta  occ. eigenvalues --   -1.13895  -1.13440  -1.13436  -1.13430  -1.13429
  Beta  occ. eigenvalues --   -1.13406  -1.13392  -1.13045  -1.13040  -1.13034
  Beta  occ. eigenvalues --   -0.15137  -0.13331  -0.12756
  Beta virt. eigenvalues --   -0.08125  -0.07498  -0.04251  -0.03939  -0.03362
  Beta virt. eigenvalues --   -0.03316  -0.02027  -0.01891  -0.01701  -0.01148
  Beta virt. eigenvalues --   -0.00688  -0.00416   0.00152   0.00276   0.00315

 Mulliken charges and spin densities:
               1          2
     1  Na   0.437127   0.124949
     2  Na   0.132297   0.165216
     3  Na  -0.143010   0.109187
     4  Na  -0.313755   0.122832
     5  Na   0.505276   0.227435
     6  Na  -0.160349   0.080943
     7  Na  -0.457586   0.169438
 Sum of Mulliken charges =  -0.00000   1.00000

 Dipole moment (field-independent basis, Debye):
    X=             -0.1669    Y=              0.0444    Z=              0.1402  Tot=              0.2225
 Quadrupole moment (field-independent basis, Debye-Ang):
   XX=            -60.0925   YY=            -69.9067   ZZ=            -70.6610
   XY=              1.2329   XZ=              0.0243   YZ=             -0.5831

 Normal termination of Gaussian 16 at Sun Dec  3 16:37:53 2023.
