 Gaussian 16, Revision B.01,
 Gaussian 16:  ES64L-G16RevB.01 20-Dec-2017

 -------------------------
 #P B3LYP/6-311+g(d) force
 -------------------------

 -----
 DPGEN
 -----
 Symbolic Z-matrix:
 Charge =  0 Multiplicity = 2

                         Standard orientation:
 ---------------------------------------------------------------------
 Center     Atomic      Atomic             Coordinates (Angstroms)
 Number     Number       Type             X           Y           Z
 ---------------------------------------------------------------------
      1         11           0       -1.014387   -1.702154    0.888528
      2         11           0        1.576153    0.813763    1.988754
      3         11           0        1.007992    3.248176   -0.540732
      4         11           0       -2.308752    1.297239   -0.452972
      5         11           0       -4.447458   -0.810640   -0.309138
      6         11           0        2.751469    0.117594   -0.869415
      7         11           0        2.434983   -2.963978   -0.705026
 ---------------------------------------------------------------------

 SCF Done:  E(UB3LYP) =  -1136.12159333     A.U. after   21 cycles

 The electronic state is 2-A.
 Alpha  occ. eigenvalues --  -38.44761 -38.44498 -38.44458 -38.44176 -38.43830
 Alpha  occ. eigenvalues --  -38.43498 -38.43468  -2.20590  -2.20347  -2.20297
 Alpha  occ. eigenvalues --   -2.19980  -2.19723  -2.19303  -2.19282  -1.14319
 Alpha  occ. eigenvalues --   -1.14237  -1.14215  -1.14048  -1.13998  -1.13978
 Alpha  occ. eigenvalues --   -1.13965  -1.13942  -1.13895  -1.13680  -1.13652
 Alpha  occ. eigenvalues --   -1.13568  -1.13419  -1.13387  -1.13356  -1.12976
 Alpha  occ. eigenvalues --   -1.12961  -1.12949  -1.12939  -1.12934  -1.12902
 Alpha  occ. eigenvalues --   -0.17292  -0.14139  -0.12174  -0.10392
 Alpha virt. eigenvalues --   -0.06613  -0.05508  -0.04755  -0.03408  -0.02817
 Alpha virt. eigenvalues --   -0.02400  -0.01918  -0.01327  -0.01117  -0.00766
 Alpha virt. eigenvalues --   -0.00253   0.00229   0.00250   0.00627   0.00685

  Beta  occ. eigenvalues --  -38.44748 -38.44449 -38.44438 -38.44134 -38.43796
  Beta  occ. eigenvalues --  -38.43489 -38.43442  -2.20566  -2.20283  -2.20237
  Beta  occ. eigenvalues --   -2.19904  -2.19663  -2.19287  -2.19237  -1.14301
  Beta  occ. eigenvalues --   -1.14221  -1.14197  -1.13973  -1.13970  -1.13941
  Beta  occ. eigenvalues --   -1.13917  -1.13885  -1.13859  -1.13630  -1.13586
  Beta  occ. eigenvalues --   -1.13519  -1.13371  -1.13349  -1.13301  -1.12959
  Beta  occ. eigenvalues --   -1.12949  -1.12930  -1.12909  -1.12904  -1.12868
  Beta  occ. eigenvalues --   -0.16718  -0.13839  -0.11893
  Beta virt. eigenvalues --   -0.06806  -0.06447  -0.05135  -0.04579  -0.03030
  Beta virt. eigenvalues --   -0.02391  -0.02248  -0.01288  -0.01167  -0.00998
  Beta virt. eigenvalues --   -0.00497   0.00063   0.00307   0.00415   0.00677

 Mulliken charges and spin densities:
               1          2
     1  Na  -0.777186   0.255810
     2  Na   0.088676   0.269658
     3  Na   0.143817   0.131417
     4  Na  -0.889996   0.046202
     5  Na   1.304825   0.018388
     6  Na  -0.262460   0.365529
     7  Na   0.392324  -0.087004
 Sum of Mulliken charges =  -0.00000   1.00000

 Dipole moment (field-independent basis, Debye):
    X=             -1.4420    Y=             -0.1416    Z=              0.3747  Tot=              1.4966
 Quadrupole moment (field-independent basis, Debye-Ang):
   XX=            -59.0167   YY=            -64.2339   ZZ=            -72.7855
   XY=              5.6169   XZ=              3.0347   YZ=             -0.1103

 Normal termination of Gaussian 16 at Wed Nov 29 02:29:42 2023.
