 Gaussian 16, Revision B.01,
 Gaussian 16:  ES64L-G16RevB.01 20-Dec-2017

 -------------------------
 #P B3LYP/6-311+g(d) force
 -------------------------

 -----
 DPGEN
 -----
 Symbolic Z-matrix:
 Charge =  0 Multiplicity = 2

                         Standard orientation:
 ---------------------------------------------------------------------
 Center     Atomic      Atomic             Coordinates (Angstroms)
 Number     Number       Type             X           Y           Z
 ---------------------------------------------------------------------
      1         11           0       -0.659549    0.257827   -1.520669
      2         11           0       -2.256321    2.323602   -0.103854
      3         11           0        1.939801    2.258529   -0.193326
      4         11           0       -2.746582   -1.601199    0.302491
      5         11           0        0.506662   -2.581837   -0.602172
      6         11           0        3.109944   -0.661906    0.016342
      7         11           0        0.106044    0.004983    2.101188
 ---------------------------------------------------------------------

 SCF Done:  E(UB3LYP) =  -1136.13258660     A.U. after   19 cycles

 The electronic state is 2-A.
 Alpha  occ. eigenvalues --  -38.44280 -38.43984 -38.43942 -38.43885 -38.43768
 Alpha  occ. eigenvalues --  -38.43099 -38.43046  -2.20105  -2.19814  -2.19800
 Alpha  occ. eigenvalues --   -2.19721  -2.19636  -2.19109  -2.18934  -1.13782
 Alpha  occ. eigenvalues --   -1.13768  -1.13739  -1.13563  -1.13526  -1.13464
 Alpha  occ. eigenvalues --   -1.13456  -1.13455  -1.13430  -1.13389  -1.13374
 Alpha  occ. eigenvalues --   -1.13330  -1.13301  -1.13262  -1.13249  -1.12802
 Alpha  occ. eigenvalues --   -1.12770  -1.12723  -1.12607  -1.12582  -1.12556
 Alpha  occ. eigenvalues --   -0.18610  -0.13263  -0.12268  -0.10740
 Alpha virt. eigenvalues --   -0.05813  -0.05583  -0.04262  -0.03340  -0.02783
 Alpha virt. eigenvalues --   -0.02573  -0.01629  -0.01299  -0.00413  -0.00213
 Alpha virt. eigenvalues --   -0.00004   0.00338   0.00770   0.00809   0.00920

  Beta  occ. eigenvalues --  -38.44274 -38.43981 -38.43940 -38.43882 -38.43671
  Beta  occ. eigenvalues --  -38.43045 -38.43029  -2.20096  -2.19811  -2.19800
  Beta  occ. eigenvalues --   -2.19718  -2.19455  -2.19010  -2.18907  -1.13773
  Beta  occ. eigenvalues --   -1.13745  -1.13735  -1.13553  -1.13530  -1.13466
  Beta  occ. eigenvalues --   -1.13442  -1.13432  -1.13429  -1.13377  -1.13362
  Beta  occ. eigenvalues --   -1.13330  -1.13182  -1.13138  -1.13118  -1.12738
  Beta  occ. eigenvalues --   -1.12697  -1.12655  -1.12579  -1.12549  -1.12534
  Beta  occ. eigenvalues --   -0.17896  -0.13067  -0.12020
  Beta virt. eigenvalues --   -0.06823  -0.05782  -0.05497  -0.04244  -0.02568
  Beta virt. eigenvalues --   -0.02068  -0.01527  -0.01499  -0.01227  -0.00457
  Beta virt. eigenvalues --   -0.00217   0.00135   0.00374   0.00800   0.00851

 Mulliken charges and spin densities:
               1          2
     1  Na  -0.153285   0.247857
     2  Na   0.110975  -0.069041
     3  Na   0.138461  -0.052345
     4  Na   0.113595   0.058527
     5  Na   0.244605   0.063487
     6  Na   0.056188   0.026004
     7  Na  -0.510539   0.725510
 Sum of Mulliken charges =  -0.00000   1.00000

 Dipole moment (field-independent basis, Debye):
    X=             -0.2970    Y=              0.1486    Z=              0.3310  Tot=              0.4688
 Quadrupole moment (field-independent basis, Debye-Ang):
   XX=            -54.7277   YY=            -64.2193   ZZ=            -74.6266
   XY=              0.4589   XZ=             -1.6729   YZ=              0.2841

 Normal termination of Gaussian 16 at Fri Dec  8 00:17:52 2023.
