 Gaussian 16, Revision B.01,
 Gaussian 16:  ES64L-G16RevB.01 20-Dec-2017

 -------------------------
 #P B3LYP/6-311+g(d) force
 -------------------------

 -----
 DPGEN
 -----
 Symbolic Z-matrix:
 Charge =  0 Multiplicity = 2

                         Standard orientation:
 ---------------------------------------------------------------------
 Center     Atomic      Atomic             Coordinates (Angstroms)
 Number     Number       Type             X           Y           Z
 ---------------------------------------------------------------------
      1         11           0        3.334292   -1.032684    0.176937
      2         11           0        1.691375    2.165804   -0.196596
      3         11           0        0.179046   -0.041855   -1.874778
      4         11           0       -3.265342   -0.515914   -0.007834
      5         11           0        0.105812   -0.153111    1.908513
      6         11           0       -0.553159   -2.674346   -0.168939
      7         11           0       -1.492024    2.252107    0.162697
 ---------------------------------------------------------------------

 SCF Done:  E(UB3LYP) =  -1136.13440954     A.U. after   20 cycles

 The electronic state is 2-A.
 Alpha  occ. eigenvalues --  -38.44636 -38.44385 -38.43630 -38.43498 -38.43247
 Alpha  occ. eigenvalues --  -38.43221 -38.42863  -2.20406  -2.20207  -2.19552
 Alpha  occ. eigenvalues --   -2.19450  -2.19133  -2.19113  -2.18779  -1.14080
 Alpha  occ. eigenvalues --   -1.14065  -1.14043  -1.13881  -1.13869  -1.13847
 Alpha  occ. eigenvalues --   -1.13239  -1.13202  -1.13159  -1.13140  -1.13126
 Alpha  occ. eigenvalues --   -1.13054  -1.12824  -1.12801  -1.12793  -1.12786
 Alpha  occ. eigenvalues --   -1.12756  -1.12717  -1.12454  -1.12434  -1.12417
 Alpha  occ. eigenvalues --   -0.18823  -0.13120  -0.12249  -0.10902
 Alpha virt. eigenvalues --   -0.06280  -0.04855  -0.04211  -0.03259  -0.02875
 Alpha virt. eigenvalues --   -0.02663  -0.02022  -0.00980  -0.00245  -0.00089
 Alpha virt. eigenvalues --   -0.00016   0.00317   0.00802   0.00814   0.00887

  Beta  occ. eigenvalues --  -38.44635 -38.44385 -38.43548 -38.43413 -38.43238
  Beta  occ. eigenvalues --  -38.43212 -38.42855  -2.20407  -2.20209  -2.19403
  Beta  occ. eigenvalues --   -2.19295  -2.19120  -2.19101  -2.18769  -1.14069
  Beta  occ. eigenvalues --   -1.14064  -1.14045  -1.13886  -1.13854  -1.13849
  Beta  occ. eigenvalues --   -1.13142  -1.13096  -1.13049  -1.13039  -1.13018
  Beta  occ. eigenvalues --   -1.12946  -1.12811  -1.12787  -1.12761  -1.12748
  Beta  occ. eigenvalues --   -1.12740  -1.12713  -1.12450  -1.12421  -1.12390
  Beta  occ. eigenvalues --   -0.18062  -0.12911  -0.11974
  Beta virt. eigenvalues --   -0.06974  -0.06232  -0.04853  -0.04198  -0.02506
  Beta virt. eigenvalues --   -0.02052  -0.01935  -0.01578  -0.00929  -0.00288
  Beta virt. eigenvalues --   -0.00087   0.00080   0.00326   0.00837   0.00892

 Mulliken charges and spin densities:
               1          2
     1  Na   0.059817  -0.120869
     2  Na   0.315872   0.002321
     3  Na  -0.309825   0.600660
     4  Na   0.054933  -0.059105
     5  Na  -0.471914   0.751162
     6  Na   0.154936  -0.156002
     7  Na   0.196182  -0.018167
 Sum of Mulliken charges =  -0.00000   1.00000

 Dipole moment (field-independent basis, Debye):
    X=              0.2159    Y=             -0.3664    Z=              0.0650  Tot=              0.4302
 Quadrupole moment (field-independent basis, Debye-Ang):
   XX=            -51.9728   YY=            -67.4918   ZZ=            -73.5617
   XY=             -0.5090   XZ=              0.2386   YZ=              0.0476

 Normal termination of Gaussian 16 at Fri Dec  8 03:08:39 2023.
