 Gaussian 16, Revision B.01,
 Gaussian 16:  ES64L-G16RevB.01 20-Dec-2017

 -------------------------
 #P B3LYP/6-311+g(d) force
 -------------------------

 -----
 DPGEN
 -----
 Symbolic Z-matrix:
 Charge =  0 Multiplicity = 2

                         Standard orientation:
 ---------------------------------------------------------------------
 Center     Atomic      Atomic             Coordinates (Angstroms)
 Number     Number       Type             X           Y           Z
 ---------------------------------------------------------------------
      1         11           0       -2.785238   -0.391462   -0.034642
      2         11           0        0.105870   -0.593949   -1.538394
      3         11           0        1.986829    2.598898    0.001413
      4         11           0        3.157102   -1.496609   -0.312011
      5         11           0       -1.726935    2.463954   -0.530646
      6         11           0        0.188454    0.357974    2.124702
      7         11           0       -0.926081   -2.938805    0.289579
 ---------------------------------------------------------------------

 SCF Done:  E(UB3LYP) =  -1136.13026796     A.U. after   19 cycles

 The electronic state is 2-A.
 Alpha  occ. eigenvalues --  -38.44409 -38.44350 -38.43945 -38.43798 -38.43509
 Alpha  occ. eigenvalues --  -38.43349 -38.43278  -2.20177  -2.20112  -2.19808
 Alpha  occ. eigenvalues --   -2.19647  -2.19362  -2.19285  -2.19232  -1.13859
 Alpha  occ. eigenvalues --   -1.13836  -1.13814  -1.13793  -1.13763  -1.13750
 Alpha  occ. eigenvalues --   -1.13522  -1.13461  -1.13443  -1.13311  -1.13277
 Alpha  occ. eigenvalues --   -1.13262  -1.13123  -1.13024  -1.12992  -1.12980
 Alpha  occ. eigenvalues --   -1.12925  -1.12906  -1.12891  -1.12869  -1.12838
 Alpha  occ. eigenvalues --   -0.18340  -0.12775  -0.12546  -0.10643
 Alpha virt. eigenvalues --   -0.06106  -0.05238  -0.04665  -0.03192  -0.02909
 Alpha virt. eigenvalues --   -0.02452  -0.01577  -0.01460  -0.00573  -0.00379
 Alpha virt. eigenvalues --   -0.00034   0.00328   0.00724   0.00808   0.00853

  Beta  occ. eigenvalues --  -38.44409 -38.44343 -38.43937 -38.43703 -38.43494
  Beta  occ. eigenvalues --  -38.43341 -38.43230  -2.20179  -2.20101  -2.19797
  Beta  occ. eigenvalues --   -2.19470  -2.19337  -2.19274  -2.19145  -1.13843
  Beta  occ. eigenvalues --   -1.13839  -1.13819  -1.13774  -1.13757  -1.13744
  Beta  occ. eigenvalues --   -1.13516  -1.13444  -1.13425  -1.13194  -1.13158
  Beta  occ. eigenvalues --   -1.13131  -1.13108  -1.12999  -1.12966  -1.12963
  Beta  occ. eigenvalues --   -1.12897  -1.12870  -1.12849  -1.12812  -1.12775
  Beta  occ. eigenvalues --   -0.17640  -0.12568  -0.12274
  Beta virt. eigenvalues --   -0.06827  -0.06028  -0.05090  -0.04652  -0.02419
  Beta virt. eigenvalues --   -0.02243  -0.01579  -0.01403  -0.01329  -0.00581
  Beta virt. eigenvalues --   -0.00423   0.00128   0.00377   0.00738   0.00881

 Mulliken charges and spin densities:
               1          2
     1  Na   0.302528   0.155498
     2  Na  -0.166303   0.255248
     3  Na   0.013776  -0.055196
     4  Na  -0.033341  -0.084208
     5  Na   0.038622   0.082106
     6  Na  -0.445676   0.597487
     7  Na   0.290393   0.049065
 Sum of Mulliken charges =  -0.00000   1.00000

 Dipole moment (field-independent basis, Debye):
    X=              0.6103    Y=             -0.0580    Z=              0.1962  Tot=              0.6437
 Quadrupole moment (field-independent basis, Debye-Ang):
   XX=            -59.5620   YY=            -59.3664   ZZ=            -74.7591
   XY=              0.9024   XZ=             -0.1390   YZ=             -2.3512

 Normal termination of Gaussian 16 at Tue Dec  5 23:28:10 2023.
