 Gaussian 16, Revision B.01,
 Gaussian 16:  ES64L-G16RevB.01 20-Dec-2017

 -------------------------
 #P B3LYP/6-311+g(d) force
 -------------------------

 -----
 DPGEN
 -----
 Symbolic Z-matrix:
 Charge =  0 Multiplicity = 2

                         Standard orientation:
 ---------------------------------------------------------------------
 Center     Atomic      Atomic             Coordinates (Angstroms)
 Number     Number       Type             X           Y           Z
 ---------------------------------------------------------------------
      1         11           0       -1.679130    3.073238    0.006324
      2         11           0        1.394709    3.370253    0.218864
      3         11           0       -3.048336   -2.321134   -0.791562
      4         11           0        4.285571    0.731785   -0.132593
      5         11           0        3.396784   -2.120992   -0.422049
      6         11           0       -0.186615   -3.502034    0.996143
      7         11           0       -4.162982    0.768884    0.124872
 ---------------------------------------------------------------------

 SCF Done:  E(UB3LYP) =  -1136.10743607     A.U. after   21 cycles

 The electronic state is 2-A.
 Alpha  occ. eigenvalues --  -38.45066 -38.44880 -38.44551 -38.44505 -38.44242
 Alpha  occ. eigenvalues --  -38.44225 -38.44153  -2.20822  -2.20679  -2.20368
 Alpha  occ. eigenvalues --   -2.20280  -2.20056  -2.20037  -2.19974  -1.14508
 Alpha  occ. eigenvalues --   -1.14497  -1.14471  -1.14412  -1.14338  -1.14317
 Alpha  occ. eigenvalues --   -1.14015  -1.14009  -1.13993  -1.13932  -1.13921
 Alpha  occ. eigenvalues --   -1.13902  -1.13828  -1.13727  -1.13719  -1.13680
 Alpha  occ. eigenvalues --   -1.13665  -1.13635  -1.13619  -1.13607  -1.13589
 Alpha  occ. eigenvalues --   -0.15591  -0.14096  -0.13471  -0.10960
 Alpha virt. eigenvalues --   -0.07559  -0.04965  -0.04122  -0.03629  -0.03379
 Alpha virt. eigenvalues --   -0.02707  -0.02348  -0.01812  -0.01353  -0.00660
 Alpha virt. eigenvalues --   -0.00256  -0.00135  -0.00032   0.00456   0.00522

  Beta  occ. eigenvalues --  -38.45074 -38.44862 -38.44520 -38.44431 -38.44237
  Beta  occ. eigenvalues --  -38.44174 -38.44089  -2.20843  -2.20651  -2.20315
  Beta  occ. eigenvalues --   -2.20142  -2.20053  -2.19945  -2.19853  -1.14527
  Beta  occ. eigenvalues --   -1.14515  -1.14447  -1.14375  -1.14322  -1.14288
  Beta  occ. eigenvalues --   -1.13980  -1.13975  -1.13944  -1.13838  -1.13829
  Beta  occ. eigenvalues --   -1.13810  -1.13776  -1.13728  -1.13712  -1.13621
  Beta  occ. eigenvalues --   -1.13608  -1.13569  -1.13536  -1.13529  -1.13520
  Beta  occ. eigenvalues --   -0.15044  -0.13431  -0.12618
  Beta virt. eigenvalues --   -0.07871  -0.07674  -0.04549  -0.03570  -0.03400
  Beta virt. eigenvalues --   -0.03045  -0.02536  -0.02054  -0.01746  -0.01170
  Beta virt. eigenvalues --   -0.00364   0.00005   0.00100   0.00172   0.00413

 Mulliken charges and spin densities:
               1          2
     1  Na   0.018209  -0.055223
     2  Na   0.313801   0.213274
     3  Na  -0.119712  -0.036710
     4  Na   0.349654   0.143078
     5  Na  -0.286302   0.043162
     6  Na  -0.168209   0.364666
     7  Na  -0.107441   0.327753
 Sum of Mulliken charges =  -0.00000   1.00000

 Dipole moment (field-independent basis, Debye):
    X=              0.2735    Y=             -0.4287    Z=             -0.0853  Tot=              0.5156
 Quadrupole moment (field-independent basis, Debye-Ang):
   XX=            -62.3890   YY=            -67.4474   ZZ=            -71.3568
   XY=              2.1233   XZ=              1.2554   YZ=              1.4565

 Normal termination of Gaussian 16 at Sun Dec  3 18:37:27 2023.
