 Gaussian 16, Revision B.01,
 Gaussian 16:  ES64L-G16RevB.01 20-Dec-2017

 -------------------------
 #P B3LYP/6-311+g(d) force
 -------------------------

 -----
 DPGEN
 -----
 Symbolic Z-matrix:
 Charge =  0 Multiplicity = 2

                         Standard orientation:
 ---------------------------------------------------------------------
 Center     Atomic      Atomic             Coordinates (Angstroms)
 Number     Number       Type             X           Y           Z
 ---------------------------------------------------------------------
      1         11           0        4.000709    1.533474    0.260652
      2         11           0       -4.448070    0.249442    0.976970
      3         11           0       -2.234792    2.924124   -0.501365
      4         11           0        0.422982   -2.849341   -0.852688
      5         11           0        1.171052    3.065170   -0.274949
      6         11           0        4.009119   -2.201201    0.578383
      7         11           0       -2.921000   -2.721667   -0.187003
 ---------------------------------------------------------------------

 SCF Done:  E(UB3LYP) =  -1136.10533416     A.U. after   35 cycles

 The electronic state is 2-A.
 Alpha  occ. eigenvalues --  -38.45545 -38.45361 -38.44776 -38.44517 -38.44496
 Alpha  occ. eigenvalues --  -38.44455 -38.43593  -2.21308  -2.21102  -2.20543
 Alpha  occ. eigenvalues --   -2.20298  -2.20265  -2.20239  -2.19404  -1.14989
 Alpha  occ. eigenvalues --   -1.14988  -1.14939  -1.14791  -1.14784  -1.14736
 Alpha  occ. eigenvalues --   -1.14215  -1.14212  -1.14166  -1.13974  -1.13962
 Alpha  occ. eigenvalues --   -1.13944  -1.13926  -1.13905  -1.13897  -1.13894
 Alpha  occ. eigenvalues --   -1.13873  -1.13866  -1.13060  -1.13057  -1.13052
 Alpha  occ. eigenvalues --   -0.15498  -0.13938  -0.13246  -0.10726
 Alpha virt. eigenvalues --   -0.08125  -0.04878  -0.04590  -0.03581  -0.03549
 Alpha virt. eigenvalues --   -0.02365  -0.02067  -0.01939  -0.01307  -0.01165
 Alpha virt. eigenvalues --   -0.00705  -0.00078   0.00025   0.00193   0.00616

  Beta  occ. eigenvalues --  -38.45539 -38.45371 -38.44732 -38.44499 -38.44439
  Beta  occ. eigenvalues --  -38.44395 -38.43558  -2.21302  -2.21124  -2.20465
  Beta  occ. eigenvalues --   -2.20271  -2.20158  -2.20128  -2.19338  -1.14989
  Beta  occ. eigenvalues --   -1.14982  -1.14909  -1.14809  -1.14801  -1.14726
  Beta  occ. eigenvalues --   -1.14166  -1.14162  -1.14090  -1.13960  -1.13947
  Beta  occ. eigenvalues --   -1.13891  -1.13854  -1.13836  -1.13821  -1.13818
  Beta  occ. eigenvalues --   -1.13802  -1.13791  -1.13017  -1.13014  -1.13010
  Beta  occ. eigenvalues --   -0.15009  -0.13259  -0.12562
  Beta virt. eigenvalues --   -0.08296  -0.07564  -0.04289  -0.04124  -0.03385
  Beta virt. eigenvalues --   -0.03320  -0.02156  -0.01924  -0.01766  -0.01004
  Beta virt. eigenvalues --   -0.00883  -0.00521   0.00063   0.00227   0.00276

 Mulliken charges and spin densities:
               1          2
     1  Na  -0.152966   0.067241
     2  Na   0.089600   0.320360
     3  Na   0.070521   0.003283
     4  Na  -0.447465   0.197353
     5  Na   0.078803   0.116044
     6  Na   0.221417   0.292189
     7  Na   0.140089   0.003529
 Sum of Mulliken charges =  -0.00000   1.00000

 Dipole moment (field-independent basis, Debye):
    X=              0.0685    Y=              0.0434    Z=              0.0527  Tot=              0.0967
 Quadrupole moment (field-independent basis, Debye-Ang):
   XX=            -59.2077   YY=            -68.0159   ZZ=            -72.5219
   XY=              1.6736   XZ=              0.0110   YZ=             -1.2040

 Normal termination of Gaussian 16 at Sun Dec  3 17:55:01 2023.
