 Gaussian 16, Revision B.01,
 Gaussian 16:  ES64L-G16RevB.01 20-Dec-2017

 -------------------------
 #P B3LYP/6-311+g(d) force
 -------------------------

 -----
 DPGEN
 -----
 Symbolic Z-matrix:
 Charge =  0 Multiplicity = 2

                         Standard orientation:
 ---------------------------------------------------------------------
 Center     Atomic      Atomic             Coordinates (Angstroms)
 Number     Number       Type             X           Y           Z
 ---------------------------------------------------------------------
      1         11           0        1.456065   -2.182372    0.072603
      2         11           0       -4.794825   -0.700468    0.175621
      3         11           0       -0.377792    1.188699    1.228753
      4         11           0       -3.161484    1.726226   -0.724391
      5         11           0       -1.262904   -1.531286   -0.347348
      6         11           0        3.125249    1.971933   -0.266764
      7         11           0        5.015693   -0.472732   -0.138474
 ---------------------------------------------------------------------

 SCF Done:  E(UB3LYP) =  -1136.11256350     A.U. after   22 cycles

 The electronic state is 2-A.
 Alpha  occ. eigenvalues --  -38.44704 -38.44587 -38.44581 -38.44221 -38.43864
 Alpha  occ. eigenvalues --  -38.43313 -38.42990  -2.20567  -2.20436  -2.20422
 Alpha  occ. eigenvalues --   -2.20013  -2.19682  -2.19186  -2.18941  -1.14242
 Alpha  occ. eigenvalues --   -1.14212  -1.14199  -1.14175  -1.14104  -1.14088
 Alpha  occ. eigenvalues --   -1.14060  -1.14055  -1.13978  -1.13707  -1.13687
 Alpha  occ. eigenvalues --   -1.13665  -1.13330  -1.13323  -1.13312  -1.13017
 Alpha  occ. eigenvalues --   -1.12833  -1.12801  -1.12598  -1.12596  -1.12499
 Alpha  occ. eigenvalues --   -0.17370  -0.14381  -0.11503  -0.11305
 Alpha virt. eigenvalues --   -0.06462  -0.05433  -0.04909  -0.03276  -0.02929
 Alpha virt. eigenvalues --   -0.02855  -0.01536  -0.01338  -0.00938  -0.00873
 Alpha virt. eigenvalues --   -0.00151   0.00009   0.00203   0.00461   0.00676

  Beta  occ. eigenvalues --  -38.44615 -38.44588 -38.44530 -38.44225 -38.43835
  Beta  occ. eigenvalues --  -38.43295 -38.42978  -2.20441  -2.20403  -2.20327
  Beta  occ. eigenvalues --   -2.20023  -2.19627  -2.19153  -2.18921  -1.14171
  Beta  occ. eigenvalues --   -1.14141  -1.14110  -1.14099  -1.14074  -1.14045
  Beta  occ. eigenvalues --   -1.13993  -1.13991  -1.13935  -1.13703  -1.13694
  Beta  occ. eigenvalues --   -1.13664  -1.13292  -1.13284  -1.13280  -1.12993
  Beta  occ. eigenvalues --   -1.12810  -1.12777  -1.12585  -1.12570  -1.12483
  Beta  occ. eigenvalues --   -0.16709  -0.14021  -0.11204
  Beta virt. eigenvalues --   -0.07869  -0.05844  -0.05134  -0.04560  -0.03018
  Beta virt. eigenvalues --   -0.02779  -0.02159  -0.01350  -0.01006  -0.00762
  Beta virt. eigenvalues --   -0.00641   0.00005   0.00114   0.00391   0.00499

 Mulliken charges and spin densities:
               1          2
     1  Na  -0.442159   0.340865
     2  Na   0.796766   0.107863
     3  Na  -0.539392   0.621393
     4  Na   0.377062  -0.068829
     5  Na  -0.313241  -0.028192
     6  Na  -0.009829  -0.041293
     7  Na   0.130793   0.068193
 Sum of Mulliken charges =  -0.00000   1.00000

 Dipole moment (field-independent basis, Debye):
    X=             -0.9198    Y=              0.1946    Z=              0.2026  Tot=              0.9618
 Quadrupole moment (field-independent basis, Debye-Ang):
   XX=            -64.4102   YY=            -67.9018   ZZ=            -69.2158
   XY=             -2.9245   XZ=             -0.7175   YZ=             -2.1826

 Normal termination of Gaussian 16 at Thu Dec  7 16:17:27 2023.
