 Gaussian 16, Revision B.01,
 Gaussian 16:  ES64L-G16RevB.01 20-Dec-2017

 -------------------------
 #P B3LYP/6-311+g(d) force
 -------------------------

 -----
 DPGEN
 -----
 Symbolic Z-matrix:
 Charge =  0 Multiplicity = 2

                         Standard orientation:
 ---------------------------------------------------------------------
 Center     Atomic      Atomic             Coordinates (Angstroms)
 Number     Number       Type             X           Y           Z
 ---------------------------------------------------------------------
      1         11           0        0.495436    2.886795    0.712656
      2         11           0        2.171420   -0.429033    1.974841
      3         11           0        2.254223    0.752574   -1.561031
      4         11           0        2.588744   -2.254119   -0.601218
      5         11           0       -0.665200   -1.043485   -0.274379
      6         11           0       -4.191223   -2.066353    0.269310
      7         11           0       -2.653400    2.153621   -0.520179
 ---------------------------------------------------------------------

 SCF Done:  E(UB3LYP) =  -1136.11947411     A.U. after   23 cycles

 The electronic state is 2-A.
 Alpha  occ. eigenvalues --  -38.45282 -38.44444 -38.44356 -38.44280 -38.43925
 Alpha  occ. eigenvalues --  -38.43842 -38.43265  -2.21028  -2.20250  -2.20169
 Alpha  occ. eigenvalues --   -2.20162  -2.19755  -2.19725  -2.19076  -1.14717
 Alpha  occ. eigenvalues --   -1.14697  -1.14643  -1.13957  -1.13918  -1.13903
 Alpha  occ. eigenvalues --   -1.13847  -1.13839  -1.13826  -1.13799  -1.13797
 Alpha  occ. eigenvalues --   -1.13758  -1.13474  -1.13433  -1.13383  -1.13360
 Alpha  occ. eigenvalues --   -1.13346  -1.13341  -1.12750  -1.12739  -1.12718
 Alpha  occ. eigenvalues --   -0.17961  -0.13382  -0.11799  -0.10645
 Alpha virt. eigenvalues --   -0.06861  -0.06072  -0.04542  -0.03147  -0.02673
 Alpha virt. eigenvalues --   -0.02396  -0.02155  -0.01635  -0.01022  -0.00552
 Alpha virt. eigenvalues --   -0.00272   0.00138   0.00177   0.00535   0.00595

  Beta  occ. eigenvalues --  -38.45286 -38.44457 -38.44336 -38.44213 -38.43915
  Beta  occ. eigenvalues --  -38.43749 -38.43256  -2.21035  -2.20220  -2.20193
  Beta  occ. eigenvalues --   -2.20041  -2.19739  -2.19553  -2.19060  -1.14720
  Beta  occ. eigenvalues --   -1.14701  -1.14651  -1.13929  -1.13888  -1.13864
  Beta  occ. eigenvalues --   -1.13856  -1.13850  -1.13815  -1.13743  -1.13712
  Beta  occ. eigenvalues --   -1.13670  -1.13436  -1.13424  -1.13356  -1.13258
  Beta  occ. eigenvalues --   -1.13237  -1.13220  -1.12737  -1.12729  -1.12696
  Beta  occ. eigenvalues --   -0.17219  -0.13272  -0.11722
  Beta virt. eigenvalues --   -0.06811  -0.06497  -0.05868  -0.04396  -0.02685
  Beta virt. eigenvalues --   -0.02368  -0.01935  -0.01694  -0.01258  -0.00991
  Beta virt. eigenvalues --   -0.00320   0.00002   0.00255   0.00267   0.00562

 Mulliken charges and spin densities:
               1          2
     1  Na   0.203511   0.108627
     2  Na  -0.314724   0.357592
     3  Na   0.582624   0.249099
     4  Na   1.531367   0.136171
     5  Na  -1.935260   0.295612
     6  Na  -0.039383  -0.082915
     7  Na  -0.028134  -0.064186
 Sum of Mulliken charges =  -0.00000   1.00000

 Dipole moment (field-independent basis, Debye):
    X=             -0.2217    Y=              0.0818    Z=             -0.2232  Tot=              0.3250
 Quadrupole moment (field-independent basis, Debye-Ang):
   XX=            -54.7303   YY=            -64.0993   ZZ=            -74.9100
   XY=             -4.1552   XZ=             -0.5833   YZ=             -0.4871

 Normal termination of Gaussian 16 at Tue Dec  5 19:09:02 2023.
