 Gaussian 16, Revision B.01,
 Gaussian 16:  ES64L-G16RevB.01 20-Dec-2017

 -------------------------
 #P B3LYP/6-311+g(d) force
 -------------------------

 -----
 DPGEN
 -----
 Symbolic Z-matrix:
 Charge =  0 Multiplicity = 2

                         Standard orientation:
 ---------------------------------------------------------------------
 Center     Atomic      Atomic             Coordinates (Angstroms)
 Number     Number       Type             X           Y           Z
 ---------------------------------------------------------------------
      1         11           0       -3.752856    0.920807    0.514826
      2         11           0       -2.519387   -2.412989   -0.598483
      3         11           0        0.237733   -0.335544    1.110282
      4         11           0        0.972416   -2.447833   -0.549023
      5         11           0        2.304222    1.866645   -1.031680
      6         11           0       -0.967816    2.863435   -0.214570
      7         11           0        3.725689   -0.454521    0.768647
 ---------------------------------------------------------------------

 SCF Done:  E(UB3LYP) =  -1136.12024718     A.U. after   23 cycles

 The electronic state is 2-A.
 Alpha  occ. eigenvalues --  -38.45217 -38.44609 -38.44337 -38.44042 -38.43574
 Alpha  occ. eigenvalues --  -38.43370 -38.43335  -2.21134  -2.20392  -2.20177
 Alpha  occ. eigenvalues --   -2.19943  -2.19450  -2.19187  -2.19153  -1.14955
 Alpha  occ. eigenvalues --   -1.14787  -1.14716  -1.14076  -1.14044  -1.14031
 Alpha  occ. eigenvalues --   -1.13853  -1.13829  -1.13821  -1.13679  -1.13585
 Alpha  occ. eigenvalues --   -1.13504  -1.13108  -1.13096  -1.13064  -1.12872
 Alpha  occ. eigenvalues --   -1.12862  -1.12838  -1.12811  -1.12787  -1.12764
 Alpha  occ. eigenvalues --   -0.17738  -0.13887  -0.12830  -0.09776
 Alpha virt. eigenvalues --   -0.06943  -0.05567  -0.04548  -0.03401  -0.02868
 Alpha virt. eigenvalues --   -0.02569  -0.01769  -0.01123  -0.00798  -0.00516
 Alpha virt. eigenvalues --   -0.00413   0.00078   0.00521   0.00573   0.00652

  Beta  occ. eigenvalues --  -38.45221 -38.44601 -38.44308 -38.44024 -38.43512
  Beta  occ. eigenvalues --  -38.43359 -38.43269  -2.21140  -2.20381  -2.20127
  Beta  occ. eigenvalues --   -2.19915  -2.19334  -2.19172  -2.19027  -1.14959
  Beta  occ. eigenvalues --   -1.14786  -1.14724  -1.14072  -1.14039  -1.13997
  Beta  occ. eigenvalues --   -1.13818  -1.13800  -1.13757  -1.13665  -1.13565
  Beta  occ. eigenvalues --   -1.13460  -1.13028  -1.13018  -1.12989  -1.12868
  Beta  occ. eigenvalues --   -1.12855  -1.12783  -1.12725  -1.12704  -1.12690
  Beta  occ. eigenvalues --   -0.17388  -0.13296  -0.12236
  Beta virt. eigenvalues --   -0.06893  -0.06476  -0.05492  -0.04137  -0.03055
  Beta virt. eigenvalues --   -0.02420  -0.02210  -0.01442  -0.00960  -0.00608
  Beta virt. eigenvalues --   -0.00429  -0.00043   0.00268   0.00657   0.00693

 Mulliken charges and spin densities:
               1          2
     1  Na   0.288201   0.453754
     2  Na  -0.050712   0.008872
     3  Na  -0.739191   0.064782
     4  Na  -0.134752   0.019750
     5  Na  -0.167001   0.057697
     6  Na  -0.145496   0.021214
     7  Na   0.948951   0.373931
 Sum of Mulliken charges =  -0.00000   1.00000

 Dipole moment (field-independent basis, Debye):
    X=              0.5467    Y=             -0.6862    Z=             -0.7453  Tot=              1.1511
 Quadrupole moment (field-independent basis, Debye-Ang):
   XX=            -64.3726   YY=            -68.7171   ZZ=            -68.5494
   XY=              4.7311   XZ=             -0.7942   YZ=              1.3387

 Normal termination of Gaussian 16 at Tue Dec  5 09:53:08 2023.
