 Gaussian 16, Revision B.01,
 Gaussian 16:  ES64L-G16RevB.01 20-Dec-2017

 -------------------------
 #P B3LYP/6-311+g(d) force
 -------------------------

 -----
 DPGEN
 -----
 Symbolic Z-matrix:
 Charge =  0 Multiplicity = 2

                         Standard orientation:
 ---------------------------------------------------------------------
 Center     Atomic      Atomic             Coordinates (Angstroms)
 Number     Number       Type             X           Y           Z
 ---------------------------------------------------------------------
      1         11           0        3.118442    1.263982    0.584073
      2         11           0        1.085953   -1.402543    2.259746
      3         11           0       -3.295903    1.317793    0.694424
      4         11           0       -0.444534    3.072817   -1.013123
      5         11           0       -3.016632   -2.591793   -0.796403
      6         11           0       -0.398856   -0.111194   -0.078472
      7         11           0        2.951530   -1.549063   -1.650244
 ---------------------------------------------------------------------

 SCF Done:  E(UB3LYP) =  -1136.11199194     A.U. after   22 cycles

 The electronic state is 2-A.
 Alpha  occ. eigenvalues --  -38.45231 -38.45157 -38.44484 -38.44242 -38.44046
 Alpha  occ. eigenvalues --  -38.43268 -38.43031  -2.20993  -2.20920  -2.20274
 Alpha  occ. eigenvalues --   -2.19982  -2.19892  -2.19057  -2.18998  -1.14690
 Alpha  occ. eigenvalues --   -1.14658  -1.14601  -1.14597  -1.14581  -1.14563
 Alpha  occ. eigenvalues --   -1.13930  -1.13913  -1.13882  -1.13658  -1.13639
 Alpha  occ. eigenvalues --   -1.13610  -1.13606  -1.13510  -1.13480  -1.12781
 Alpha  occ. eigenvalues --   -1.12736  -1.12720  -1.12680  -1.12640  -1.12598
 Alpha  occ. eigenvalues --   -0.17107  -0.13362  -0.11364  -0.10540
 Alpha virt. eigenvalues --   -0.06584  -0.06170  -0.04524  -0.03213  -0.02535
 Alpha virt. eigenvalues --   -0.02297  -0.02066  -0.01634  -0.00925  -0.00668
 Alpha virt. eigenvalues --   -0.00145   0.00095   0.00211   0.00355   0.00534

  Beta  occ. eigenvalues --  -38.45238 -38.45159 -38.44398 -38.44229 -38.43956
  Beta  occ. eigenvalues --  -38.43268 -38.43019  -2.21006  -2.20928  -2.20114
  Beta  occ. eigenvalues --   -2.19957  -2.19727  -2.19057  -2.18981  -1.14697
  Beta  occ. eigenvalues --   -1.14665  -1.14611  -1.14591  -1.14574  -1.14569
  Beta  occ. eigenvalues --   -1.13819  -1.13799  -1.13777  -1.13640  -1.13622
  Beta  occ. eigenvalues --   -1.13595  -1.13493  -1.13392  -1.13370  -1.12772
  Beta  occ. eigenvalues --   -1.12718  -1.12689  -1.12682  -1.12639  -1.12592
  Beta  occ. eigenvalues --   -0.16576  -0.13047  -0.11184
  Beta virt. eigenvalues --   -0.06854  -0.06149  -0.06112  -0.04242  -0.02861
  Beta virt. eigenvalues --   -0.02261  -0.02066  -0.01596  -0.01295  -0.00682
  Beta virt. eigenvalues --   -0.00412   0.00042   0.00209   0.00291   0.00425

 Mulliken charges and spin densities:
               1          2
     1  Na   0.348937   0.146050
     2  Na   0.505047   0.163347
     3  Na   0.651010  -0.095268
     4  Na   0.472124  -0.138852
     5  Na   0.293843   0.035673
     6  Na  -2.667813   0.545340
     7  Na   0.396852   0.343709
 Sum of Mulliken charges =  -0.00000   1.00000

 Dipole moment (field-independent basis, Debye):
    X=             -0.1406    Y=              0.3873    Z=              0.6852  Tot=              0.7995
 Quadrupole moment (field-independent basis, Debye-Ang):
   XX=            -55.3976   YY=            -67.1655   ZZ=            -70.7086
   XY=              1.1983   XZ=              0.0984   YZ=              2.3747

 Normal termination of Gaussian 16 at Sat Dec  9 07:15:02 2023.
