 Gaussian 16, Revision B.01,
 Gaussian 16:  ES64L-G16RevB.01 20-Dec-2017

 -------------------------
 #P B3LYP/6-311+g(d) force
 -------------------------

 -----
 DPGEN
 -----
 Symbolic Z-matrix:
 Charge =  0 Multiplicity = 2

                         Standard orientation:
 ---------------------------------------------------------------------
 Center     Atomic      Atomic             Coordinates (Angstroms)
 Number     Number       Type             X           Y           Z
 ---------------------------------------------------------------------
      1         11           0       -0.647709   -2.790568   -0.056800
      2         11           0       -2.378388   -0.318674   -2.415006
      3         11           0        2.310374   -1.942542    0.346434
      4         11           0       -3.017329    1.530456    0.047762
      5         11           0       -0.958917   -0.412869    2.719397
      6         11           0        3.665996    0.798552   -1.201034
      7         11           0        1.025972    3.135645    0.559248
 ---------------------------------------------------------------------

 SCF Done:  E(UB3LYP) =  -1136.11159989     A.U. after   22 cycles

 The electronic state is 2-A.
 Alpha  occ. eigenvalues --  -38.45356 -38.44919 -38.44721 -38.44305 -38.44152
 Alpha  occ. eigenvalues --  -38.43889 -38.43673  -2.21139  -2.20621  -2.20538
 Alpha  occ. eigenvalues --   -2.20090  -2.19915  -2.19707  -2.19496  -1.14792
 Alpha  occ. eigenvalues --   -1.14773  -1.14745  -1.14310  -1.14289  -1.14249
 Alpha  occ. eigenvalues --   -1.14206  -1.14176  -1.14161  -1.13771  -1.13748
 Alpha  occ. eigenvalues --   -1.13734  -1.13587  -1.13585  -1.13542  -1.13427
 Alpha  occ. eigenvalues --   -1.13371  -1.13349  -1.13164  -1.13149  -1.13126
 Alpha  occ. eigenvalues --   -0.16606  -0.13153  -0.11898  -0.11698
 Alpha virt. eigenvalues --   -0.06501  -0.05653  -0.04623  -0.03764  -0.03464
 Alpha virt. eigenvalues --   -0.02951  -0.01338  -0.01061  -0.00744  -0.00615
 Alpha virt. eigenvalues --   -0.00487  -0.00229   0.00186   0.00430   0.00529

  Beta  occ. eigenvalues --  -38.45252 -38.44918 -38.44647 -38.44309 -38.44136
  Beta  occ. eigenvalues --  -38.43888 -38.43672  -2.20946  -2.20620  -2.20399
  Beta  occ. eigenvalues --   -2.20102  -2.19885  -2.19705  -2.19497  -1.14662
  Beta  occ. eigenvalues --   -1.14645  -1.14606  -1.14307  -1.14289  -1.14247
  Beta  occ. eigenvalues --   -1.14119  -1.14081  -1.14065  -1.13768  -1.13759
  Beta  occ. eigenvalues --   -1.13722  -1.13567  -1.13563  -1.13524  -1.13430
  Beta  occ. eigenvalues --   -1.13364  -1.13343  -1.13163  -1.13142  -1.13119
  Beta  occ. eigenvalues --   -0.15917  -0.12729  -0.11852
  Beta virt. eigenvalues --   -0.08069  -0.06229  -0.05294  -0.04053  -0.03460
  Beta virt. eigenvalues --   -0.02805  -0.02646  -0.01304  -0.00837  -0.00741
  Beta virt. eigenvalues --   -0.00451  -0.00218   0.00084   0.00399   0.00560

 Mulliken charges and spin densities:
               1          2
     1  Na   0.107288   0.059980
     2  Na   0.080702   0.444467
     3  Na  -0.161131   0.003150
     4  Na  -0.044138  -0.164684
     5  Na  -0.030530   0.647175
     6  Na   0.130102   0.037705
     7  Na  -0.082294  -0.027794
 Sum of Mulliken charges =  -0.00000   1.00000

 Dipole moment (field-independent basis, Debye):
    X=             -0.3859    Y=              0.1467    Z=              0.0020  Tot=              0.4129
 Quadrupole moment (field-independent basis, Debye-Ang):
   XX=            -66.9541   YY=            -70.1053   ZZ=            -64.3823
   XY=             -0.7414   XZ=             -1.9665   YZ=              1.6913

 Normal termination of Gaussian 16 at Sun Dec  3 13:26:25 2023.
