 Gaussian 16, Revision B.01,
 Gaussian 16:  ES64L-G16RevB.01 20-Dec-2017

 -------------------------
 #P B3LYP/6-311+g(d) force
 -------------------------

 -----
 DPGEN
 -----
 Symbolic Z-matrix:
 Charge =  0 Multiplicity = 2

                         Standard orientation:
 ---------------------------------------------------------------------
 Center     Atomic      Atomic             Coordinates (Angstroms)
 Number     Number       Type             X           Y           Z
 ---------------------------------------------------------------------
      1         11           0        1.261644   -2.624303   -0.610901
      2         11           0       -2.088868    2.001732   -0.290772
      3         11           0        1.298866    2.542947   -0.098392
      4         11           0        3.398202   -0.010954    0.248888
      5         11           0       -0.431153   -0.222742   -1.593628
      6         11           0       -3.136829   -1.277399    0.188330
      7         11           0       -0.301862   -0.409281    2.156476
 ---------------------------------------------------------------------

 SCF Done:  E(UB3LYP) =  -1136.13088998     A.U. after   20 cycles

 The electronic state is 2-A.
 Alpha  occ. eigenvalues --  -38.44592 -38.44565 -38.44201 -38.43573 -38.43389
 Alpha  occ. eigenvalues --  -38.43323 -38.42938  -2.20392  -2.20384  -2.20039
 Alpha  occ. eigenvalues --   -2.19463  -2.19318  -2.19235  -2.18781  -1.14064
 Alpha  occ. eigenvalues --   -1.14057  -1.14053  -1.14042  -1.14032  -1.14032
 Alpha  occ. eigenvalues --   -1.13701  -1.13672  -1.13653  -1.13235  -1.13116
 Alpha  occ. eigenvalues --   -1.13077  -1.13052  -1.12966  -1.12927  -1.12876
 Alpha  occ. eigenvalues --   -1.12862  -1.12848  -1.12459  -1.12445  -1.12427
 Alpha  occ. eigenvalues --   -0.18436  -0.13375  -0.12040  -0.10899
 Alpha virt. eigenvalues --   -0.06341  -0.05188  -0.04262  -0.03369  -0.02840
 Alpha virt. eigenvalues --   -0.02633  -0.01968  -0.01074  -0.00506  -0.00153
 Alpha virt. eigenvalues --   -0.00067   0.00305   0.00660   0.00746   0.00815

  Beta  occ. eigenvalues --  -38.44592 -38.44560 -38.44108 -38.43562 -38.43371
  Beta  occ. eigenvalues --  -38.43258 -38.42938  -2.20393  -2.20379  -2.19866
  Beta  occ. eigenvalues --   -2.19447  -2.19208  -2.19197  -2.18783  -1.14067
  Beta  occ. eigenvalues --   -1.14047  -1.14044  -1.14034  -1.14032  -1.14019
  Beta  occ. eigenvalues --   -1.13585  -1.13554  -1.13526  -1.13203  -1.13092
  Beta  occ. eigenvalues --   -1.13066  -1.12994  -1.12890  -1.12854  -1.12843
  Beta  occ. eigenvalues --   -1.12831  -1.12800  -1.12460  -1.12443  -1.12418
  Beta  occ. eigenvalues --   -0.17735  -0.13186  -0.11766
  Beta virt. eigenvalues --   -0.07015  -0.06192  -0.05185  -0.04164  -0.02695
  Beta virt. eigenvalues --   -0.02049  -0.01854  -0.01632  -0.01016  -0.00514
  Beta virt. eigenvalues --   -0.00173   0.00094   0.00344   0.00788   0.00821

 Mulliken charges and spin densities:
               1          2
     1  Na   0.183245   0.005698
     2  Na   0.283338   0.093382
     3  Na  -0.125439   0.004297
     4  Na  -0.036671   0.008495
     5  Na  -0.042245   0.182517
     6  Na   0.258191   0.037131
     7  Na  -0.520419   0.668479
 Sum of Mulliken charges =  -0.00000   1.00000

 Dipole moment (field-independent basis, Debye):
    X=             -0.2687    Y=             -0.3479    Z=              0.3692  Tot=              0.5740
 Quadrupole moment (field-independent basis, Debye-Ang):
   XX=            -52.0873   YY=            -67.9014   ZZ=            -74.0299
   XY=              0.5542   XZ=              0.6099   YZ=              0.1654

 Normal termination of Gaussian 16 at Thu Dec  7 03:09:31 2023.
