 Gaussian 16, Revision B.01,
 Gaussian 16:  ES64L-G16RevB.01 20-Dec-2017

 -------------------------
 #P B3LYP/6-311+g(d) force
 -------------------------

 -----
 DPGEN
 -----
 Symbolic Z-matrix:
 Charge =  0 Multiplicity = 2

                         Standard orientation:
 ---------------------------------------------------------------------
 Center     Atomic      Atomic             Coordinates (Angstroms)
 Number     Number       Type             X           Y           Z
 ---------------------------------------------------------------------
      1         11           0        2.414201    0.833481    1.596564
      2         11           0       -1.655970   -2.282727   -1.292466
      3         11           0       -2.239341    1.835415   -0.030501
      4         11           0        3.874288   -2.117418    0.524847
      5         11           0       -4.435835   -1.070277    1.298863
      6         11           0        0.727452    3.251130   -0.720551
      7         11           0        1.315205   -0.449605   -1.376756
 ---------------------------------------------------------------------

 SCF Done:  E(UB3LYP) =  -1136.12063853     A.U. after   20 cycles

 The electronic state is 2-A.
 Alpha  occ. eigenvalues --  -38.45032 -38.44718 -38.44346 -38.44088 -38.43984
 Alpha  occ. eigenvalues --  -38.43964 -38.43206  -2.20842  -2.20481  -2.20132
 Alpha  occ. eigenvalues --   -2.19859  -2.19824  -2.19750  -2.19023  -1.14530
 Alpha  occ. eigenvalues --   -1.14515  -1.14437  -1.14184  -1.14160  -1.14089
 Alpha  occ. eigenvalues --   -1.13801  -1.13789  -1.13762  -1.13552  -1.13533
 Alpha  occ. eigenvalues --   -1.13515  -1.13479  -1.13454  -1.13440  -1.13413
 Alpha  occ. eigenvalues --   -1.13400  -1.13363  -1.12690  -1.12687  -1.12666
 Alpha  occ. eigenvalues --   -0.16753  -0.13469  -0.12126  -0.10811
 Alpha virt. eigenvalues --   -0.06395  -0.05469  -0.04865  -0.03547  -0.02926
 Alpha virt. eigenvalues --   -0.02296  -0.01929  -0.01482  -0.01090  -0.00532
 Alpha virt. eigenvalues --   -0.00385   0.00031   0.00245   0.00422   0.00564

  Beta  occ. eigenvalues --  -38.45005 -38.44711 -38.44334 -38.44045 -38.43928
  Beta  occ. eigenvalues --  -38.43912 -38.43206  -2.20792  -2.20469  -2.20111
  Beta  occ. eigenvalues --   -2.19785  -2.19732  -2.19644  -2.19023  -1.14496
  Beta  occ. eigenvalues --   -1.14484  -1.14395  -1.14175  -1.14148  -1.14074
  Beta  occ. eigenvalues --   -1.13787  -1.13769  -1.13748  -1.13493  -1.13483
  Beta  occ. eigenvalues --   -1.13459  -1.13409  -1.13388  -1.13359  -1.13340
  Beta  occ. eigenvalues --   -1.13323  -1.13297  -1.12689  -1.12684  -1.12666
  Beta  occ. eigenvalues --   -0.16253  -0.12978  -0.11811
  Beta virt. eigenvalues --   -0.07260  -0.06299  -0.05022  -0.04653  -0.03299
  Beta virt. eigenvalues --   -0.02453  -0.01999  -0.01572  -0.01360  -0.00932
  Beta virt. eigenvalues --   -0.00261  -0.00117   0.00206   0.00342   0.00504

 Mulliken charges and spin densities:
               1          2
     1  Na  -0.093559   0.197576
     2  Na  -0.053269   0.124628
     3  Na  -0.452783   0.142960
     4  Na   0.305605   0.075339
     5  Na   0.295100   0.275894
     6  Na   0.324266  -0.009575
     7  Na  -0.325360   0.193178
 Sum of Mulliken charges =  -0.00000   1.00000

 Dipole moment (field-independent basis, Debye):
    X=              1.1715    Y=             -0.1382    Z=              0.5094  Tot=              1.2849
 Quadrupole moment (field-independent basis, Debye-Ang):
   XX=            -64.2551   YY=            -64.3041   ZZ=            -68.5990
   XY=             -0.9437   XZ=             -0.7399   YZ=             -0.8331

 Normal termination of Gaussian 16 at Mon Dec  4 01:50:28 2023.
