 Gaussian 16, Revision B.01,
 Gaussian 16:  ES64L-G16RevB.01 20-Dec-2017

 -------------------------
 #P B3LYP/6-311+g(d) force
 -------------------------

 -----
 DPGEN
 -----
 Symbolic Z-matrix:
 Charge =  0 Multiplicity = 2

                         Standard orientation:
 ---------------------------------------------------------------------
 Center     Atomic      Atomic             Coordinates (Angstroms)
 Number     Number       Type             X           Y           Z
 ---------------------------------------------------------------------
      1         11           0        1.081762    0.140922    2.227067
      2         11           0       -2.676370    0.327026    0.563508
      3         11           0        2.885073   -2.683531    0.163353
      4         11           0        0.417747    2.728024   -0.522274
      5         11           0       -5.268997   -0.690970   -0.126928
      6         11           0        3.389276    1.135577   -0.443664
      7         11           0        0.171509   -0.957047   -1.861062
 ---------------------------------------------------------------------

 SCF Done:  E(UB3LYP) =  -1136.10860192     A.U. after   27 cycles

 The electronic state is 2-A.
 Alpha  occ. eigenvalues --  -38.46261 -38.45166 -38.44858 -38.44820 -38.43916
 Alpha  occ. eigenvalues --  -38.42963 -38.42895  -2.22037  -2.20977  -2.20646
 Alpha  occ. eigenvalues --   -2.20627  -2.19760  -2.18782  -2.18666  -1.15730
 Alpha  occ. eigenvalues --   -1.15705  -1.15655  -1.14710  -1.14610  -1.14607
 Alpha  occ. eigenvalues --   -1.14324  -1.14303  -1.14282  -1.14263  -1.14248
 Alpha  occ. eigenvalues --   -1.14226  -1.13439  -1.13413  -1.13400  -1.12454
 Alpha  occ. eigenvalues --   -1.12441  -1.12433  -1.12348  -1.12328  -1.12314
 Alpha  occ. eigenvalues --   -0.17353  -0.13668  -0.11228  -0.10906
 Alpha virt. eigenvalues --   -0.08057  -0.04906  -0.04197  -0.03430  -0.03121
 Alpha virt. eigenvalues --   -0.02863  -0.02494  -0.01529  -0.01150  -0.00694
 Alpha virt. eigenvalues --   -0.00625   0.00050   0.00141   0.00616   0.00673

  Beta  occ. eigenvalues --  -38.46269 -38.45160 -38.44774 -38.44730 -38.43911
  Beta  occ. eigenvalues --  -38.42955 -38.42901  -2.22055  -2.20966  -2.20490
  Beta  occ. eigenvalues --   -2.20461  -2.19753  -2.18769  -2.18679  -1.15721
  Beta  occ. eigenvalues --   -1.15715  -1.15677  -1.14704  -1.14602  -1.14598
  Beta  occ. eigenvalues --   -1.14217  -1.14187  -1.14173  -1.14151  -1.14136
  Beta  occ. eigenvalues --   -1.14106  -1.13433  -1.13403  -1.13387  -1.12451
  Beta  occ. eigenvalues --   -1.12432  -1.12405  -1.12359  -1.12324  -1.12322
  Beta  occ. eigenvalues --   -0.16610  -0.13560  -0.11135
  Beta virt. eigenvalues --   -0.07806  -0.06995  -0.04693  -0.04078  -0.03063
  Beta virt. eigenvalues --   -0.02919  -0.02118  -0.01804  -0.01407  -0.00851
  Beta virt. eigenvalues --   -0.00670  -0.00464   0.00107   0.00327   0.00662

 Mulliken charges and spin densities:
               1          2
     1  Na  -0.040697   0.415586
     2  Na  -0.373102   0.075489
     3  Na   0.084093  -0.027216
     4  Na   0.211044   0.067357
     5  Na   0.072078   0.016919
     6  Na   0.305343   0.054797
     7  Na  -0.258758   0.397068
 Sum of Mulliken charges =  -0.00000   1.00000

 Dipole moment (field-independent basis, Debye):
    X=             -0.1839    Y=              0.3541    Z=             -0.4459  Tot=              0.5984
 Quadrupole moment (field-independent basis, Debye-Ang):
   XX=            -47.9601   YY=            -73.7186   ZZ=            -72.9695
   XY=              6.9447   XZ=              0.0592   YZ=             -0.8192

 Normal termination of Gaussian 16 at Sun Dec  3 13:17:37 2023.
