 Gaussian 16, Revision B.01,
 Gaussian 16:  ES64L-G16RevB.01 20-Dec-2017

 -------------------------
 #P B3LYP/6-311+g(d) force
 -------------------------

 -----
 DPGEN
 -----
 Symbolic Z-matrix:
 Charge =  0 Multiplicity = 2

                         Standard orientation:
 ---------------------------------------------------------------------
 Center     Atomic      Atomic             Coordinates (Angstroms)
 Number     Number       Type             X           Y           Z
 ---------------------------------------------------------------------
      1         11           0        0.012146   -1.269906   -1.094194
      2         11           0       -2.602053   -1.412114    1.350117
      3         11           0       -3.300673   -0.031080   -1.320090
      4         11           0       -1.010546    2.000686    0.853967
      5         11           0        1.562217    0.547298    1.778357
      6         11           0        1.643461    1.561876   -1.485881
      7         11           0        3.695448   -1.396760   -0.082275
 ---------------------------------------------------------------------

 SCF Done:  E(UB3LYP) =  -1136.12384403     A.U. after   23 cycles

 The electronic state is 2-A.
 Alpha  occ. eigenvalues --  -38.44962 -38.44641 -38.44205 -38.43996 -38.43726
 Alpha  occ. eigenvalues --  -38.43461 -38.42073  -2.20803  -2.20490  -2.20077
 Alpha  occ. eigenvalues --   -2.19862  -2.19524  -2.19379  -2.17965  -1.14502
 Alpha  occ. eigenvalues --   -1.14455  -1.14440  -1.14155  -1.14125  -1.14106
 Alpha  occ. eigenvalues --   -1.13789  -1.13722  -1.13670  -1.13574  -1.13545
 Alpha  occ. eigenvalues --   -1.13450  -1.13207  -1.13188  -1.13150  -1.13073
 Alpha  occ. eigenvalues --   -1.13025  -1.12993  -1.11672  -1.11624  -1.11589
 Alpha  occ. eigenvalues --   -0.18356  -0.14143  -0.11086  -0.10910
 Alpha virt. eigenvalues --   -0.06569  -0.05557  -0.04643  -0.03002  -0.02670
 Alpha virt. eigenvalues --   -0.02544  -0.02148  -0.01055  -0.00818  -0.00327
 Alpha virt. eigenvalues --    0.00180   0.00209   0.00385   0.00535   0.00731

  Beta  occ. eigenvalues --  -38.44951 -38.44610 -38.44151 -38.43969 -38.43718
  Beta  occ. eigenvalues --  -38.43420 -38.42066  -2.20785  -2.20431  -2.19979
  Beta  occ. eigenvalues --   -2.19818  -2.19510  -2.19304  -2.17956  -1.14484
  Beta  occ. eigenvalues --   -1.14436  -1.14427  -1.14114  -1.14089  -1.14058
  Beta  occ. eigenvalues --   -1.13716  -1.13649  -1.13604  -1.13526  -1.13494
  Beta  occ. eigenvalues --   -1.13426  -1.13190  -1.13177  -1.13142  -1.13022
  Beta  occ. eigenvalues --   -1.12968  -1.12938  -1.11661  -1.11606  -1.11574
  Beta  occ. eigenvalues --   -0.17651  -0.13936  -0.10767
  Beta virt. eigenvalues --   -0.07363  -0.06318  -0.04923  -0.04453  -0.02886
  Beta virt. eigenvalues --   -0.02377  -0.01875  -0.01738  -0.00747  -0.00495
  Beta virt. eigenvalues --   -0.00163   0.00236   0.00335   0.00407   0.00625

 Mulliken charges and spin densities:
               1          2
     1  Na  -0.431029   0.465095
     2  Na  -0.151599  -0.044608
     3  Na   0.577571  -0.004295
     4  Na   0.272842   0.362436
     5  Na  -0.312033   0.254538
     6  Na  -0.123531   0.015368
     7  Na   0.167778  -0.048534
 Sum of Mulliken charges =  -0.00000   1.00000

 Dipole moment (field-independent basis, Debye):
    X=             -0.7382    Y=              0.0642    Z=             -0.3499  Tot=              0.8194
 Quadrupole moment (field-independent basis, Debye-Ang):
   XX=            -52.7610   YY=            -74.8720   ZZ=            -67.6056
   XY=              0.0835   XZ=              0.5007   YZ=             -6.4637

 Normal termination of Gaussian 16 at Thu Dec  7 21:31:25 2023.
