 Gaussian 16, Revision B.01,
 Gaussian 16:  ES64L-G16RevB.01 20-Dec-2017

 -------------------------
 #P B3LYP/6-311+g(d) force
 -------------------------

 -----
 DPGEN
 -----
 Symbolic Z-matrix:
 Charge =  0 Multiplicity = 2

                         Standard orientation:
 ---------------------------------------------------------------------
 Center     Atomic      Atomic             Coordinates (Angstroms)
 Number     Number       Type             X           Y           Z
 ---------------------------------------------------------------------
      1         11           0       -1.587597    1.281745    2.090647
      2         11           0        2.959984    1.828954   -0.655112
      3         11           0       -1.821731   -1.586704   -1.917406
      4         11           0       -4.266238   -0.808432    0.591730
      5         11           0        4.220812   -1.615472    0.649491
      6         11           0        1.257847   -1.095038    0.479417
      7         11           0       -0.763077    1.994947   -1.238767
 ---------------------------------------------------------------------

 SCF Done:  E(UB3LYP) =  -1136.11191186     A.U. after   28 cycles

 The electronic state is 2-A.
 Alpha  occ. eigenvalues --  -38.45383 -38.44922 -38.44616 -38.44487 -38.44135
 Alpha  occ. eigenvalues --  -38.43562 -38.43246  -2.21145  -2.20669  -2.20425
 Alpha  occ. eigenvalues --   -2.20342  -2.19944  -2.19391  -2.19055  -1.14834
 Alpha  occ. eigenvalues --   -1.14808  -1.14751  -1.14354  -1.14330  -1.14318
 Alpha  occ. eigenvalues --   -1.14098  -1.14062  -1.14034  -1.14026  -1.14013
 Alpha  occ. eigenvalues --   -1.13982  -1.13603  -1.13585  -1.13556  -1.13069
 Alpha  occ. eigenvalues --   -1.13038  -1.13019  -1.12734  -1.12726  -1.12686
 Alpha  occ. eigenvalues --   -0.17105  -0.13902  -0.11370  -0.10975
 Alpha virt. eigenvalues --   -0.07227  -0.05592  -0.04232  -0.03669  -0.03098
 Alpha virt. eigenvalues --   -0.02617  -0.02162  -0.01562  -0.00925  -0.00530
 Alpha virt. eigenvalues --   -0.00332  -0.00137   0.00254   0.00457   0.00570

  Beta  occ. eigenvalues --  -38.45368 -38.44934 -38.44536 -38.44476 -38.44056
  Beta  occ. eigenvalues --  -38.43558 -38.43235  -2.21117  -2.20693  -2.20324
  Beta  occ. eigenvalues --   -2.20276  -2.19796  -2.19383  -2.19037  -1.14813
  Beta  occ. eigenvalues --   -1.14790  -1.14730  -1.14373  -1.14338  -1.14322
  Beta  occ. eigenvalues --   -1.14020  -1.13995  -1.13990  -1.13971  -1.13966
  Beta  occ. eigenvalues --   -1.13920  -1.13502  -1.13481  -1.13460  -1.13062
  Beta  occ. eigenvalues --   -1.13032  -1.13014  -1.12719  -1.12700  -1.12671
  Beta  occ. eigenvalues --   -0.16506  -0.13627  -0.10896
  Beta virt. eigenvalues --   -0.07466  -0.07076  -0.05388  -0.03626  -0.03153
  Beta virt. eigenvalues --   -0.02911  -0.02371  -0.01625  -0.01434  -0.00571
  Beta virt. eigenvalues --   -0.00533  -0.00198   0.00078   0.00324   0.00570

 Mulliken charges and spin densities:
               1          2
     1  Na   0.585312   0.495406
     2  Na   0.287166  -0.081002
     3  Na   0.693968   0.253071
     4  Na  -0.066308  -0.148270
     5  Na   0.464097   0.025033
     6  Na  -1.605653   0.176566
     7  Na  -0.358582   0.279196
 Sum of Mulliken charges =  -0.00000   1.00000

 Dipole moment (field-independent basis, Debye):
    X=              0.4827    Y=              0.6202    Z=             -0.0212  Tot=              0.7862
 Quadrupole moment (field-independent basis, Debye-Ang):
   XX=            -52.9549   YY=            -74.2057   ZZ=            -70.0833
   XY=              3.1633   XZ=             -1.6161   YZ=             -0.3425

 Normal termination of Gaussian 16 at Mon Dec  4 00:27:53 2023.
