 Gaussian 16, Revision B.01,
 Gaussian 16:  ES64L-G16RevB.01 20-Dec-2017

 -------------------------
 #P B3LYP/6-311+g(d) force
 -------------------------

 -----
 DPGEN
 -----
 Symbolic Z-matrix:
 Charge =  0 Multiplicity = 2

                         Standard orientation:
 ---------------------------------------------------------------------
 Center     Atomic      Atomic             Coordinates (Angstroms)
 Number     Number       Type             X           Y           Z
 ---------------------------------------------------------------------
      1         11           0        0.849188   -2.413687   -0.157299
      2         11           0        0.357504   -0.235053   -1.840249
      3         11           0       -2.715921   -1.729019    0.359339
      4         11           0       -2.444400    1.542753   -0.283889
      5         11           0        0.729675    2.690910   -0.182262
      6         11           0        0.255227    0.435726    1.857678
      7         11           0        2.968728   -0.291629    0.246683
 ---------------------------------------------------------------------

 SCF Done:  E(UB3LYP) =  -1136.13079014     A.U. after   20 cycles

 The electronic state is 2-A.
 Alpha  occ. eigenvalues --  -38.43943 -38.43756 -38.43691 -38.43687 -38.43558
 Alpha  occ. eigenvalues --  -38.43385 -38.43117  -2.19872  -2.19701  -2.19612
 Alpha  occ. eigenvalues --   -2.19529  -2.19494  -2.19357  -2.19026  -1.13624
 Alpha  occ. eigenvalues --   -1.13551  -1.13517  -1.13507  -1.13337  -1.13298
 Alpha  occ. eigenvalues --   -1.13289  -1.13270  -1.13266  -1.13217  -1.13176
 Alpha  occ. eigenvalues --   -1.13160  -1.13143  -1.13139  -1.13132  -1.12992
 Alpha  occ. eigenvalues --   -1.12984  -1.12939  -1.12705  -1.12688  -1.12641
 Alpha  occ. eigenvalues --   -0.19252  -0.13269  -0.12519  -0.11110
 Alpha virt. eigenvalues --   -0.05490  -0.05079  -0.04456  -0.03377  -0.03062
 Alpha virt. eigenvalues --   -0.02608  -0.01424  -0.00941  -0.00098  -0.00052
 Alpha virt. eigenvalues --    0.00039   0.00355   0.00866   0.00931   0.00945

  Beta  occ. eigenvalues --  -38.43931 -38.43752 -38.43684 -38.43606 -38.43481
  Beta  occ. eigenvalues --  -38.43373 -38.43108  -2.19857  -2.19608  -2.19548
  Beta  occ. eigenvalues --   -2.19491  -2.19388  -2.19340  -2.19015  -1.13605
  Beta  occ. eigenvalues --   -1.13504  -1.13490  -1.13442  -1.13295  -1.13270
  Beta  occ. eigenvalues --   -1.13261  -1.13223  -1.13173  -1.13149  -1.13141
  Beta  occ. eigenvalues --   -1.13134  -1.13128  -1.13078  -1.13031  -1.12972
  Beta  occ. eigenvalues --   -1.12939  -1.12914  -1.12696  -1.12652  -1.12633
  Beta  occ. eigenvalues --   -0.18492  -0.13015  -0.12258
  Beta virt. eigenvalues --   -0.07154  -0.05435  -0.05044  -0.04430  -0.02563
  Beta virt. eigenvalues --   -0.02269  -0.01580  -0.01336  -0.00879  -0.00101
  Beta virt. eigenvalues --   -0.00072   0.00127   0.00380   0.00906   0.00933

 Mulliken charges and spin densities:
               1          2
     1  Na   0.303142   0.069959
     2  Na  -0.297455   0.477947
     3  Na  -0.132663  -0.062989
     4  Na  -0.026101  -0.040769
     5  Na   0.196284  -0.114654
     6  Na  -0.444440   0.711245
     7  Na   0.401233  -0.040739
 Sum of Mulliken charges =  -0.00000   1.00000

 Dipole moment (field-independent basis, Debye):
    X=              0.0043    Y=              0.1362    Z=              0.1003  Tot=              0.1692
 Quadrupole moment (field-independent basis, Debye-Ang):
   XX=            -57.4243   YY=            -65.1010   ZZ=            -72.4384
   XY=              0.3387   XZ=              0.2404   YZ=             -1.7839

 Normal termination of Gaussian 16 at Tue Dec  5 17:26:04 2023.
