 Gaussian 16, Revision B.01,
 Gaussian 16:  ES64L-G16RevB.01 20-Dec-2017

 -------------------------
 #P B3LYP/6-311+g(d) force
 -------------------------

 -----
 DPGEN
 -----
 Symbolic Z-matrix:
 Charge =  0 Multiplicity = 2

                         Standard orientation:
 ---------------------------------------------------------------------
 Center     Atomic      Atomic             Coordinates (Angstroms)
 Number     Number       Type             X           Y           Z
 ---------------------------------------------------------------------
      1         11           0        2.082554    2.394061   -0.064029
      2         11           0        0.204973    0.478841    2.202573
      3         11           0       -0.013352   -0.312442   -1.759239
      4         11           0       -0.219051   -2.636637    0.689961
      5         11           0       -3.362500   -0.668509   -0.268241
      6         11           0        2.868460   -1.524082   -0.528927
      7         11           0       -1.561083    2.268768   -0.272098
 ---------------------------------------------------------------------

 SCF Done:  E(UB3LYP) =  -1136.13705143     A.U. after   19 cycles

 The electronic state is 2-A.
 Alpha  occ. eigenvalues --  -38.43991 -38.43930 -38.43904 -38.43645 -38.43639
 Alpha  occ. eigenvalues --  -38.43448 -38.43361  -2.19857  -2.19726  -2.19716
 Alpha  occ. eigenvalues --   -2.19569  -2.19441  -2.19309  -2.19215  -1.13516
 Alpha  occ. eigenvalues --   -1.13492  -1.13475  -1.13408  -1.13397  -1.13387
 Alpha  occ. eigenvalues --   -1.13372  -1.13368  -1.13354  -1.13257  -1.13223
 Alpha  occ. eigenvalues --   -1.13180  -1.13119  -1.13098  -1.13082  -1.12998
 Alpha  occ. eigenvalues --   -1.12986  -1.12910  -1.12901  -1.12879  -1.12828
 Alpha  occ. eigenvalues --   -0.18274  -0.12724  -0.12307  -0.11163
 Alpha virt. eigenvalues --   -0.05566  -0.05252  -0.04469  -0.03248  -0.03135
 Alpha virt. eigenvalues --   -0.02894  -0.01619  -0.01160  -0.00294  -0.00182
 Alpha virt. eigenvalues --   -0.00043   0.00335   0.00737   0.00851   0.00908

  Beta  occ. eigenvalues --  -38.43931 -38.43894 -38.43893 -38.43639 -38.43587
  Beta  occ. eigenvalues --  -38.43440 -38.43341  -2.19729  -2.19700  -2.19678
  Beta  occ. eigenvalues --   -2.19463  -2.19443  -2.19298  -2.19181  -1.13400
  Beta  occ. eigenvalues --   -1.13397  -1.13384  -1.13380  -1.13373  -1.13371
  Beta  occ. eigenvalues --   -1.13351  -1.13345  -1.13342  -1.13188  -1.13152
  Beta  occ. eigenvalues --   -1.13109  -1.13105  -1.13094  -1.13079  -1.12983
  Beta  occ. eigenvalues --   -1.12963  -1.12902  -1.12877  -1.12833  -1.12808
  Beta  occ. eigenvalues --   -0.17535  -0.12484  -0.12117
  Beta virt. eigenvalues --   -0.07226  -0.05481  -0.05242  -0.04325  -0.02508
  Beta virt. eigenvalues --   -0.02460  -0.01867  -0.01523  -0.01121  -0.00219
  Beta virt. eigenvalues --   -0.00211   0.00067   0.00365   0.00826   0.00844

 Mulliken charges and spin densities:
               1          2
     1  Na   0.069677  -0.076801
     2  Na  -0.309663   0.567311
     3  Na  -0.181589   0.485223
     4  Na   0.073871   0.138678
     5  Na   0.070127  -0.058830
     6  Na   0.124960  -0.024590
     7  Na   0.152617  -0.030991
 Sum of Mulliken charges =  -0.00000   1.00000

 Dipole moment (field-independent basis, Debye):
    X=              0.1004    Y=              0.0081    Z=              0.0469  Tot=              0.1112
 Quadrupole moment (field-independent basis, Debye-Ang):
   XX=            -56.6605   YY=            -65.7289   ZZ=            -71.9175
   XY=              0.8758   XZ=             -0.7803   YZ=             -1.2368

 Normal termination of Gaussian 16 at Tue Dec  5 17:28:58 2023.
