 Gaussian 16, Revision B.01,
 Gaussian 16:  ES64L-G16RevB.01 20-Dec-2017

 -------------------------
 #P B3LYP/6-311+g(d) force
 -------------------------

 -----
 DPGEN
 -----
 Symbolic Z-matrix:
 Charge =  0 Multiplicity = 2

                         Standard orientation:
 ---------------------------------------------------------------------
 Center     Atomic      Atomic             Coordinates (Angstroms)
 Number     Number       Type             X           Y           Z
 ---------------------------------------------------------------------
      1         11           0       -5.509394    1.419579    1.191501
      2         11           0        0.785941    3.672845   -1.394094
      3         11           0        4.221255   -0.731198    1.375489
      4         11           0        3.337403    2.472735    0.231837
      5         11           0        2.322573   -3.096723   -0.341283
      6         11           0       -1.385373   -2.990141   -0.896096
      7         11           0       -3.772405   -0.747096   -0.167354
 ---------------------------------------------------------------------

 SCF Done:  E(UB3LYP) =  -1136.10482626     A.U. after   20 cycles

 The electronic state is 2-A.
 Alpha  occ. eigenvalues --  -38.44919 -38.44793 -38.44768 -38.44737 -38.44504
 Alpha  occ. eigenvalues --  -38.44050 -38.43812  -2.20704  -2.20609  -2.20565
 Alpha  occ. eigenvalues --   -2.20470  -2.20301  -2.19830  -2.19627  -1.14348
 Alpha  occ. eigenvalues --   -1.14345  -1.14337  -1.14266  -1.14238  -1.14237
 Alpha  occ. eigenvalues --   -1.14219  -1.14212  -1.14202  -1.14162  -1.14149
 Alpha  occ. eigenvalues --   -1.14112  -1.13955  -1.13953  -1.13918  -1.13509
 Alpha  occ. eigenvalues --   -1.13505  -1.13486  -1.13306  -1.13294  -1.13292
 Alpha  occ. eigenvalues --   -0.15211  -0.14240  -0.12814  -0.11646
 Alpha virt. eigenvalues --   -0.07322  -0.05327  -0.03754  -0.03513  -0.03379
 Alpha virt. eigenvalues --   -0.02619  -0.02228  -0.01684  -0.01492  -0.01188
 Alpha virt. eigenvalues --   -0.01080  -0.00566  -0.00300   0.00454   0.00493

  Beta  occ. eigenvalues --  -38.44855 -38.44770 -38.44717 -38.44704 -38.44431
  Beta  occ. eigenvalues --  -38.44063 -38.43817  -2.20585  -2.20535  -2.20469
  Beta  occ. eigenvalues --   -2.20447  -2.20165  -2.19860  -2.19645  -1.14267
  Beta  occ. eigenvalues --   -1.14265  -1.14256  -1.14211  -1.14202  -1.14174
  Beta  occ. eigenvalues --   -1.14158  -1.14143  -1.14142  -1.14137  -1.14131
  Beta  occ. eigenvalues --   -1.14097  -1.13864  -1.13860  -1.13835  -1.13534
  Beta  occ. eigenvalues --   -1.13527  -1.13473  -1.13314  -1.13312  -1.13260
  Beta  occ. eigenvalues --   -0.14700  -0.13511  -0.12181
  Beta virt. eigenvalues --   -0.08584  -0.06985  -0.04870  -0.03469  -0.03279
  Beta virt. eigenvalues --   -0.03085  -0.02485  -0.02037  -0.01454  -0.01170
  Beta virt. eigenvalues --   -0.00958  -0.00738  -0.00215  -0.00104   0.00480

 Mulliken charges and spin densities:
               1          2
     1  Na   0.861477   0.221774
     2  Na   0.118146   0.305322
     3  Na   0.343533   0.288092
     4  Na  -0.193957  -0.090323
     5  Na  -0.378875  -0.154216
     6  Na   0.419952   0.306149
     7  Na  -1.170276   0.123202
 Sum of Mulliken charges =  -0.00000   1.00000

 Dipole moment (field-independent basis, Debye):
    X=             -0.0501    Y=              0.6462    Z=              0.1280  Tot=              0.6607
 Quadrupole moment (field-independent basis, Debye-Ang):
   XX=            -62.5581   YY=            -66.2634   ZZ=            -69.1375
   XY=             -8.1430   XZ=              1.4870   YZ=              1.4481

 Normal termination of Gaussian 16 at Mon Dec  4 04:33:00 2023.
