 Gaussian 16, Revision B.01,
 Gaussian 16:  ES64L-G16RevB.01 20-Dec-2017

 -------------------------
 #P B3LYP/6-311+g(d) force
 -------------------------

 -----
 DPGEN
 -----
 Symbolic Z-matrix:
 Charge =  0 Multiplicity = 2

                         Standard orientation:
 ---------------------------------------------------------------------
 Center     Atomic      Atomic             Coordinates (Angstroms)
 Number     Number       Type             X           Y           Z
 ---------------------------------------------------------------------
      1         11           0       -0.802832    0.429713    1.348700
      2         11           0        2.176931    1.332282    0.554444
      3         11           0        0.668889   -2.691058   -0.270161
      4         11           0       -3.380927    0.945603   -0.479617
      5         11           0       -3.156956   -2.476545   -0.074108
      6         11           0        5.009710   -0.743985   -0.426213
      7         11           0       -0.514814    3.203990   -0.653045
 ---------------------------------------------------------------------

 SCF Done:  E(UB3LYP) =  -1136.12088093     A.U. after   21 cycles

 The electronic state is 2-A.
 Alpha  occ. eigenvalues --  -38.44620 -38.44474 -38.44413 -38.44397 -38.43860
 Alpha  occ. eigenvalues --  -38.43733 -38.43594  -2.20391  -2.20363  -2.20225
 Alpha  occ. eigenvalues --   -2.20174  -2.19652  -2.19571  -2.19453  -1.14097
 Alpha  occ. eigenvalues --   -1.14088  -1.14051  -1.14027  -1.13990  -1.13974
 Alpha  occ. eigenvalues --   -1.13904  -1.13873  -1.13864  -1.13860  -1.13831
 Alpha  occ. eigenvalues --   -1.13810  -1.13294  -1.13294  -1.13279  -1.13261
 Alpha  occ. eigenvalues --   -1.13252  -1.13176  -1.13140  -1.13112  -1.13051
 Alpha  occ. eigenvalues --   -0.17273  -0.13489  -0.12628  -0.10429
 Alpha virt. eigenvalues --   -0.06493  -0.06055  -0.04464  -0.03569  -0.02610
 Alpha virt. eigenvalues --   -0.02317  -0.02059  -0.01439  -0.01137  -0.00858
 Alpha virt. eigenvalues --   -0.00288   0.00084   0.00445   0.00498   0.00585

  Beta  occ. eigenvalues --  -38.44598 -38.44447 -38.44416 -38.44395 -38.43752
  Beta  occ. eigenvalues --  -38.43727 -38.43549  -2.20345  -2.20324  -2.20232
  Beta  occ. eigenvalues --   -2.20172  -2.19566  -2.19449  -2.19369  -1.14061
  Beta  occ. eigenvalues --   -1.14044  -1.14025  -1.13995  -1.13961  -1.13948
  Beta  occ. eigenvalues --   -1.13910  -1.13874  -1.13861  -1.13860  -1.13829
  Beta  occ. eigenvalues --   -1.13793  -1.13270  -1.13245  -1.13169  -1.13155
  Beta  occ. eigenvalues --   -1.13146  -1.13118  -1.13086  -1.13055  -1.12991
  Beta  occ. eigenvalues --   -0.16873  -0.12844  -0.12156
  Beta virt. eigenvalues --   -0.06993  -0.06332  -0.05992  -0.04083  -0.03105
  Beta virt. eigenvalues --   -0.02389  -0.02025  -0.01755  -0.01201  -0.00823
  Beta virt. eigenvalues --   -0.00719  -0.00037   0.00334   0.00485   0.00636

 Mulliken charges and spin densities:
               1          2
     1  Na   0.559169   0.085466
     2  Na  -0.567949  -0.032559
     3  Na  -0.264880   0.011171
     4  Na  -0.108457   0.344996
     5  Na   0.142145   0.009998
     6  Na   0.212091   0.632261
     7  Na   0.027881  -0.051335
 Sum of Mulliken charges =  -0.00000   1.00000

 Dipole moment (field-independent basis, Debye):
    X=             -1.2451    Y=              0.0702    Z=             -0.3355  Tot=              1.2914
 Quadrupole moment (field-independent basis, Debye-Ang):
   XX=            -74.2319   YY=            -59.7896   ZZ=            -68.7767
   XY=              2.6695   XZ=             -0.3230   YZ=             -0.5248

 Normal termination of Gaussian 16 at Tue Nov 28 22:10:14 2023.
