 Gaussian 16, Revision B.01,
 Gaussian 16:  ES64L-G16RevB.01 20-Dec-2017

 -------------------------
 #P B3LYP/6-311+g(d) force
 -------------------------

 -----
 DPGEN
 -----
 Symbolic Z-matrix:
 Charge =  0 Multiplicity = 2

                         Standard orientation:
 ---------------------------------------------------------------------
 Center     Atomic      Atomic             Coordinates (Angstroms)
 Number     Number       Type             X           Y           Z
 ---------------------------------------------------------------------
      1         11           0        3.233513   -0.034269    0.112355
      2         11           0        0.817790    2.834506   -0.455477
      3         11           0       -0.180607   -0.125234   -1.623604
      4         11           0        0.382410    0.050779    2.061131
      5         11           0       -2.572276   -1.660620    0.165626
      6         11           0       -2.529824    1.662272    0.125916
      7         11           0        0.848994   -2.727434   -0.385948
 ---------------------------------------------------------------------

 SCF Done:  E(UB3LYP) =  -1136.13859831     A.U. after   18 cycles

 The electronic state is 2-A.
 Alpha  occ. eigenvalues --  -38.44174 -38.43737 -38.43657 -38.43657 -38.43400
 Alpha  occ. eigenvalues --  -38.43365 -38.43112  -2.19984  -2.19611  -2.19509
 Alpha  occ. eigenvalues --   -2.19506  -2.19238  -2.19234  -2.19114  -1.13665
 Alpha  occ. eigenvalues --   -1.13639  -1.13626  -1.13280  -1.13240  -1.13236
 Alpha  occ. eigenvalues --   -1.13225  -1.13179  -1.13174  -1.13163  -1.13157
 Alpha  occ. eigenvalues --   -1.13111  -1.13011  -1.12935  -1.12891  -1.12888
 Alpha  occ. eigenvalues --   -1.12858  -1.12846  -1.12776  -1.12725  -1.12719
 Alpha  occ. eigenvalues --   -0.18630  -0.12990  -0.12462  -0.10788
 Alpha virt. eigenvalues --   -0.05672  -0.05061  -0.04694  -0.03239  -0.02911
 Alpha virt. eigenvalues --   -0.02567  -0.01550  -0.01088  -0.00382  -0.00287
 Alpha virt. eigenvalues --   -0.00009   0.00361   0.00806   0.00890   0.00900

  Beta  occ. eigenvalues --  -38.44172 -38.43654 -38.43653 -38.43647 -38.43388
  Beta  occ. eigenvalues --  -38.43354 -38.43046  -2.19982  -2.19505  -2.19502
  Beta  occ. eigenvalues --   -2.19445  -2.19220  -2.19216  -2.18994  -1.13648
  Beta  occ. eigenvalues --   -1.13631  -1.13629  -1.13231  -1.13175  -1.13164
  Beta  occ. eigenvalues --   -1.13159  -1.13153  -1.13148  -1.13123  -1.13107
  Beta  occ. eigenvalues --   -1.13106  -1.12978  -1.12912  -1.12869  -1.12860
  Beta  occ. eigenvalues --   -1.12848  -1.12837  -1.12698  -1.12646  -1.12636
  Beta  occ. eigenvalues --   -0.17914  -0.12765  -0.12193
  Beta virt. eigenvalues --   -0.06900  -0.05596  -0.05079  -0.04634  -0.02459
  Beta virt. eigenvalues --   -0.02154  -0.01538  -0.01435  -0.01015  -0.00417
  Beta virt. eigenvalues --   -0.00336   0.00127   0.00385   0.00845   0.00882

 Mulliken charges and spin densities:
               1          2
     1  Na   0.142618  -0.045914
     2  Na   0.082979  -0.048379
     3  Na  -0.151082   0.414247
     4  Na  -0.495189   0.749458
     5  Na   0.096029  -0.004169
     6  Na   0.078297  -0.016169
     7  Na   0.246348  -0.049074
 Sum of Mulliken charges =  -0.00000   1.00000

 Dipole moment (field-independent basis, Debye):
    X=              0.1921    Y=              0.0139    Z=              0.2286  Tot=              0.2989
 Quadrupole moment (field-independent basis, Debye-Ang):
   XX=            -56.1976   YY=            -62.9979   ZZ=            -74.1690
   XY=              0.2232   XZ=             -1.3189   YZ=             -0.4297

 Normal termination of Gaussian 16 at Thu Dec  7 15:40:09 2023.
