 Gaussian 16, Revision B.01,
 Gaussian 16:  ES64L-G16RevB.01 20-Dec-2017

 -------------------------
 #P B3LYP/6-311+g(d) force
 -------------------------

 -----
 DPGEN
 -----
 Symbolic Z-matrix:
 Charge =  0 Multiplicity = 2

                         Standard orientation:
 ---------------------------------------------------------------------
 Center     Atomic      Atomic             Coordinates (Angstroms)
 Number     Number       Type             X           Y           Z
 ---------------------------------------------------------------------
      1         11           0        1.596678   -2.550290    0.017518
      2         11           0        3.092974    0.321368    0.084902
      3         11           0       -2.524387   -2.084119   -0.088386
      4         11           0       -2.867800    1.599550   -0.094728
      5         11           0       -0.244404   -0.056417    2.006162
      6         11           0        0.126610   -0.170181   -1.851587
      7         11           0        0.820328    2.940088   -0.073881
 ---------------------------------------------------------------------

 SCF Done:  E(UB3LYP) =  -1136.13702931     A.U. after   19 cycles

 The electronic state is 2-A.
 Alpha  occ. eigenvalues --  -38.44379 -38.44132 -38.43938 -38.43663 -38.43516
 Alpha  occ. eigenvalues --  -38.43492 -38.43307  -2.20154  -2.19915  -2.19791
 Alpha  occ. eigenvalues --   -2.19525  -2.19413  -2.19343  -2.19117  -1.13834
 Alpha  occ. eigenvalues --   -1.13812  -1.13793  -1.13593  -1.13574  -1.13555
 Alpha  occ. eigenvalues --   -1.13468  -1.13455  -1.13442  -1.13198  -1.13153
 Alpha  occ. eigenvalues --   -1.13146  -1.13104  -1.13063  -1.13034  -1.13004
 Alpha  occ. eigenvalues --   -1.12992  -1.12975  -1.12789  -1.12784  -1.12757
 Alpha  occ. eigenvalues --   -0.18207  -0.13036  -0.12153  -0.10616
 Alpha virt. eigenvalues --   -0.05776  -0.05585  -0.04643  -0.03274  -0.02785
 Alpha virt. eigenvalues --   -0.02591  -0.01598  -0.01299  -0.00582  -0.00527
 Alpha virt. eigenvalues --   -0.00034   0.00368   0.00732   0.00796   0.00878

  Beta  occ. eigenvalues --  -38.44378 -38.44130 -38.43935 -38.43576 -38.43487
  Beta  occ. eigenvalues --  -38.43441 -38.43305  -2.20155  -2.19915  -2.19787
  Beta  occ. eigenvalues --   -2.19364  -2.19338  -2.19274  -2.19116  -1.13817
  Beta  occ. eigenvalues --   -1.13814  -1.13797  -1.13575  -1.13572  -1.13558
  Beta  occ. eigenvalues --   -1.13469  -1.13444  -1.13426  -1.13092  -1.13045
  Beta  occ. eigenvalues --   -1.13035  -1.13030  -1.12990  -1.12981  -1.12971
  Beta  occ. eigenvalues --   -1.12933  -1.12926  -1.12786  -1.12767  -1.12759
  Beta  occ. eigenvalues --   -0.17466  -0.12845  -0.11941
  Beta virt. eigenvalues --   -0.06733  -0.05789  -0.05508  -0.04595  -0.02489
  Beta virt. eigenvalues --   -0.02041  -0.01572  -0.01478  -0.01231  -0.00652
  Beta virt. eigenvalues --   -0.00574   0.00113   0.00389   0.00785   0.00815

 Mulliken charges and spin densities:
               1          2
     1  Na   0.232769  -0.091141
     2  Na   0.156245  -0.003278
     3  Na   0.074505  -0.146472
     4  Na  -0.000806  -0.125293
     5  Na  -0.286393   0.775110
     6  Na  -0.148976   0.708465
     7  Na  -0.027343  -0.117392
 Sum of Mulliken charges =  -0.00000   1.00000

 Dipole moment (field-independent basis, Debye):
    X=             -0.3870    Y=             -0.0869    Z=              0.0219  Tot=              0.3973
 Quadrupole moment (field-independent basis, Debye-Ang):
   XX=            -55.8223   YY=            -62.6896   ZZ=            -75.0000
   XY=             -0.1444   XZ=              0.8571   YZ=             -0.2466

 Normal termination of Gaussian 16 at Thu Dec  7 11:58:17 2023.
