 Gaussian 16, Revision B.01,
 Gaussian 16:  ES64L-G16RevB.01 20-Dec-2017

 -------------------------
 #P B3LYP/6-311+g(d) force
 -------------------------

 -----
 DPGEN
 -----
 Symbolic Z-matrix:
 Charge =  0 Multiplicity = 2

                         Standard orientation:
 ---------------------------------------------------------------------
 Center     Atomic      Atomic             Coordinates (Angstroms)
 Number     Number       Type             X           Y           Z
 ---------------------------------------------------------------------
      1         11           0       -1.275236   -1.459527   -1.336440
      2         11           0        2.465967   -1.280984   -1.306755
      3         11           0        3.576535    1.743589    0.389982
      4         11           0        1.677805   -1.153057    1.603882
      5         11           0        0.147313    1.484266   -0.532129
      6         11           0       -3.888534    1.200690   -0.595292
      7         11           0       -2.703849   -0.534976    1.776752
 ---------------------------------------------------------------------

 SCF Done:  E(UB3LYP) =  -1136.11673009     A.U. after   31 cycles

 The electronic state is 2-A.
 Alpha  occ. eigenvalues --  -38.44764 -38.44649 -38.44551 -38.44521 -38.44453
 Alpha  occ. eigenvalues --  -38.43314 -38.43054  -2.20580  -2.20491  -2.20388
 Alpha  occ. eigenvalues --   -2.20382  -2.20314  -2.19176  -2.18871  -1.14292
 Alpha  occ. eigenvalues --   -1.14237  -1.14215  -1.14191  -1.14151  -1.14130
 Alpha  occ. eigenvalues --   -1.14100  -1.14088  -1.14077  -1.14042  -1.13990
 Alpha  occ. eigenvalues --   -1.13985  -1.13978  -1.13925  -1.13896  -1.12883
 Alpha  occ. eigenvalues --   -1.12842  -1.12768  -1.12545  -1.12529  -1.12512
 Alpha  occ. eigenvalues --   -0.18128  -0.14677  -0.10888  -0.10588
 Alpha virt. eigenvalues --   -0.06931  -0.05827  -0.05184  -0.03041  -0.02805
 Alpha virt. eigenvalues --   -0.02287  -0.02089  -0.01426  -0.00974  -0.00492
 Alpha virt. eigenvalues --    0.00006   0.00126   0.00185   0.00368   0.00455

  Beta  occ. eigenvalues --  -38.44744 -38.44592 -38.44530 -38.44529 -38.44409
  Beta  occ. eigenvalues --  -38.43276 -38.43052  -2.20544  -2.20402  -2.20385
  Beta  occ. eigenvalues --   -2.20350  -2.20232  -2.19110  -2.18868  -1.14253
  Beta  occ. eigenvalues --   -1.14215  -1.14186  -1.14181  -1.14082  -1.14069
  Beta  occ. eigenvalues --   -1.14058  -1.14054  -1.14022  -1.14013  -1.13991
  Beta  occ. eigenvalues --   -1.13964  -1.13933  -1.13886  -1.13831  -1.12833
  Beta  occ. eigenvalues --   -1.12774  -1.12728  -1.12543  -1.12524  -1.12512
  Beta  occ. eigenvalues --   -0.17477  -0.14375  -0.10522
  Beta virt. eigenvalues --   -0.07198  -0.06726  -0.05399  -0.04664  -0.02807
  Beta virt. eigenvalues --   -0.02704  -0.01793  -0.01549  -0.01230  -0.00530
  Beta virt. eigenvalues --   -0.00251   0.00102   0.00166   0.00286   0.00461

 Mulliken charges and spin densities:
               1          2
     1  Na  -0.122693   0.191397
     2  Na   0.480365   0.042758
     3  Na   0.519434   0.067166
     4  Na  -0.294591   0.250845
     5  Na  -1.145429  -0.051925
     6  Na   0.610292   0.180578
     7  Na  -0.047377   0.319181
 Sum of Mulliken charges =  -0.00000   1.00000

 Dipole moment (field-independent basis, Debye):
    X=             -0.6501    Y=             -0.3994    Z=             -0.3641  Tot=              0.8454
 Quadrupole moment (field-independent basis, Debye-Ang):
   XX=            -52.6906   YY=            -76.7607   ZZ=            -68.2900
   XY=             -3.8842   XZ=              0.2242   YZ=             -0.7377

 Normal termination of Gaussian 16 at Thu Dec  7 15:33:06 2023.
