 Gaussian 16, Revision B.01,
 Gaussian 16:  ES64L-G16RevB.01 20-Dec-2017

 -------------------------
 #P B3LYP/6-311+g(d) force
 -------------------------

 -----
 DPGEN
 -----
 Symbolic Z-matrix:
 Charge =  0 Multiplicity = 2

                         Standard orientation:
 ---------------------------------------------------------------------
 Center     Atomic      Atomic             Coordinates (Angstroms)
 Number     Number       Type             X           Y           Z
 ---------------------------------------------------------------------
      1         11           0       -0.882853    2.045202   -0.002740
      2         11           0        5.624894   -0.104177    0.331712
      3         11           0        2.549524    1.601616   -0.597855
      4         11           0        2.950738   -1.885731   -0.110228
      5         11           0       -0.515364   -1.189101   -0.158156
      6         11           0       -3.559482    0.143604    1.232108
      7         11           0       -6.167458   -0.611414   -0.694840
 ---------------------------------------------------------------------

 SCF Done:  E(UB3LYP) =  -1136.11964268     A.U. after   21 cycles

 The electronic state is 2-A.
 Alpha  occ. eigenvalues --  -38.44702 -38.44151 -38.44138 -38.44118 -38.44105
 Alpha  occ. eigenvalues --  -38.43891 -38.43833  -2.20525  -2.19981  -2.19968
 Alpha  occ. eigenvalues --   -2.19967  -2.19881  -2.19722  -2.19687  -1.14219
 Alpha  occ. eigenvalues --   -1.14198  -1.14120  -1.13681  -1.13656  -1.13654
 Alpha  occ. eigenvalues --   -1.13643  -1.13621  -1.13616  -1.13614  -1.13597
 Alpha  occ. eigenvalues --   -1.13556  -1.13555  -1.13546  -1.13536  -1.13414
 Alpha  occ. eigenvalues --   -1.13388  -1.13355  -1.13339  -1.13330  -1.13300
 Alpha  occ. eigenvalues --   -0.17105  -0.14390  -0.11587  -0.11239
 Alpha virt. eigenvalues --   -0.07039  -0.05219  -0.04423  -0.03882  -0.03049
 Alpha virt. eigenvalues --   -0.02314  -0.02105  -0.01738  -0.00820  -0.00548
 Alpha virt. eigenvalues --   -0.00279   0.00025   0.00097   0.00309   0.00613

  Beta  occ. eigenvalues --  -38.44651 -38.44168 -38.44129 -38.44067 -38.44047
  Beta  occ. eigenvalues --  -38.43881 -38.43809  -2.20433  -2.19939  -2.19926
  Beta  occ. eigenvalues --   -2.19889  -2.19862  -2.19701  -2.19643  -1.14158
  Beta  occ. eigenvalues --   -1.14132  -1.14040  -1.13631  -1.13602  -1.13597
  Beta  occ. eigenvalues --   -1.13596  -1.13595  -1.13587  -1.13581  -1.13575
  Beta  occ. eigenvalues --   -1.13570  -1.13550  -1.13515  -1.13460  -1.13392
  Beta  occ. eigenvalues --   -1.13371  -1.13335  -1.13321  -1.13302  -1.13268
  Beta  occ. eigenvalues --   -0.16389  -0.14262  -0.11491
  Beta virt. eigenvalues --   -0.07252  -0.06847  -0.04592  -0.04269  -0.03707
  Beta virt. eigenvalues --   -0.02420  -0.02035  -0.01717  -0.01674  -0.00573
  Beta virt. eigenvalues --   -0.00394  -0.00131   0.00144   0.00332   0.00492

 Mulliken charges and spin densities:
               1          2
     1  Na  -0.073856   0.299080
     2  Na   0.448627   0.104959
     3  Na  -0.110286   0.126148
     4  Na  -0.305468   0.004380
     5  Na  -0.268736   0.473264
     6  Na   0.130651   0.170208
     7  Na   0.179068  -0.178038
 Sum of Mulliken charges =  -0.00000   1.00000

 Dipole moment (field-independent basis, Debye):
    X=              1.0233    Y=              0.2280    Z=             -0.1541  Tot=              1.0597
 Quadrupole moment (field-independent basis, Debye-Ang):
   XX=            -59.9492   YY=            -69.6840   ZZ=            -68.8094
   XY=             -0.1148   XZ=              4.7130   YZ=              0.8138

 Normal termination of Gaussian 16 at Wed Nov 29 04:08:18 2023.
