 Gaussian 16, Revision B.01,
 Gaussian 16:  ES64L-G16RevB.01 20-Dec-2017

 -------------------------
 #P B3LYP/6-311+g(d) force
 -------------------------

 -----
 DPGEN
 -----
 Symbolic Z-matrix:
 Charge =  0 Multiplicity = 2

                         Standard orientation:
 ---------------------------------------------------------------------
 Center     Atomic      Atomic             Coordinates (Angstroms)
 Number     Number       Type             X           Y           Z
 ---------------------------------------------------------------------
      1         11           0       -3.564924   -0.028171   -0.728103
      2         11           0       -1.184384    1.946332    0.776400
      3         11           0        2.211328    1.709636   -0.427066
      4         11           0       -1.542518   -1.994555    0.713961
      5         11           0        3.274677   -1.362458   -0.656445
      6         11           0        1.056806   -0.197876    1.987992
      7         11           0       -0.250986   -0.072907   -1.666740
 ---------------------------------------------------------------------

 SCF Done:  E(UB3LYP) =  -1136.12591778     A.U. after   25 cycles

 The electronic state is 2-A.
 Alpha  occ. eigenvalues --  -38.44793 -38.44363 -38.43994 -38.43902 -38.43566
 Alpha  occ. eigenvalues --  -38.43445 -38.42306  -2.20655  -2.20303  -2.19838
 Alpha  occ. eigenvalues --   -2.19808  -2.19486  -2.19335  -2.18217  -1.14327
 Alpha  occ. eigenvalues --   -1.14309  -1.14292  -1.14010  -1.13954  -1.13917
 Alpha  occ. eigenvalues --   -1.13526  -1.13503  -1.13482  -1.13471  -1.13451
 Alpha  occ. eigenvalues --   -1.13427  -1.13179  -1.13150  -1.13076  -1.13020
 Alpha  occ. eigenvalues --   -1.12983  -1.12967  -1.11915  -1.11888  -1.11833
 Alpha  occ. eigenvalues --   -0.18976  -0.14179  -0.11616  -0.10957
 Alpha virt. eigenvalues --   -0.06591  -0.04990  -0.04478  -0.03150  -0.02732
 Alpha virt. eigenvalues --   -0.02523  -0.02287  -0.00884  -0.00630  -0.00031
 Alpha virt. eigenvalues --    0.00222   0.00323   0.00415   0.00788   0.00849

  Beta  occ. eigenvalues --  -38.44779 -38.44318 -38.43991 -38.43814 -38.43551
  Beta  occ. eigenvalues --  -38.43416 -38.42294  -2.20631  -2.20221  -2.19804
  Beta  occ. eigenvalues --   -2.19679  -2.19460  -2.19285  -2.18200  -1.14309
  Beta  occ. eigenvalues --   -1.14287  -1.14277  -1.13951  -1.13896  -1.13852
  Beta  occ. eigenvalues --   -1.13493  -1.13457  -1.13446  -1.13414  -1.13371
  Beta  occ. eigenvalues --   -1.13322  -1.13152  -1.13128  -1.13053  -1.12989
  Beta  occ. eigenvalues --   -1.12940  -1.12914  -1.11907  -1.11842  -1.11827
  Beta  occ. eigenvalues --   -0.18216  -0.13953  -0.10741
  Beta virt. eigenvalues --   -0.07604  -0.06400  -0.04966  -0.03866  -0.02856
  Beta virt. eigenvalues --   -0.02258  -0.01877  -0.01756  -0.00844  -0.00305
  Beta virt. eigenvalues --    0.00026   0.00250   0.00317   0.00571   0.00818

 Mulliken charges and spin densities:
               1          2
     1  Na   0.685889   0.068724
     2  Na  -0.415930   0.074482
     3  Na   0.287422   0.135755
     4  Na  -0.383601   0.080596
     5  Na  -0.090778  -0.065343
     6  Na   0.222631   0.375299
     7  Na  -0.305634   0.330487
 Sum of Mulliken charges =  -0.00000   1.00000

 Dipole moment (field-independent basis, Debye):
    X=             -0.3413    Y=              0.1123    Z=             -0.2778  Tot=              0.4541
 Quadrupole moment (field-independent basis, Debye-Ang):
   XX=            -50.2801   YY=            -75.6193   ZZ=            -68.6071
   XY=             -0.7723   XZ=              0.7245   YZ=             -1.4120

 Normal termination of Gaussian 16 at Tue Dec  5 19:52:52 2023.
