 Gaussian 16, Revision B.01,
 Gaussian 16:  ES64L-G16RevB.01 20-Dec-2017

 -------------------------
 #P B3LYP/6-311+g(d) force
 -------------------------

 -----
 DPGEN
 -----
 Symbolic Z-matrix:
 Charge =  0 Multiplicity = 2

                         Standard orientation:
 ---------------------------------------------------------------------
 Center     Atomic      Atomic             Coordinates (Angstroms)
 Number     Number       Type             X           Y           Z
 ---------------------------------------------------------------------
      1         11           0        1.162035    0.710522    2.166688
      2         11           0       -1.232762   -2.037558    0.378199
      3         11           0        2.643754   -2.504797   -0.000094
      4         11           0        0.381549    3.352443    0.497886
      5         11           0       -1.668252    1.139432   -1.754994
      6         11           0        2.834034    0.170644   -1.506207
      7         11           0       -4.120359   -0.830686    0.218522
 ---------------------------------------------------------------------

 SCF Done:  E(UB3LYP) =  -1136.12081143     A.U. after   20 cycles

 The electronic state is 2-A.
 Alpha  occ. eigenvalues --  -38.44705 -38.44635 -38.44627 -38.44111 -38.44098
 Alpha  occ. eigenvalues --  -38.43663 -38.43251  -2.20517  -2.20427  -2.20412
 Alpha  occ. eigenvalues --   -2.19931  -2.19923  -2.19477  -2.19049  -1.14189
 Alpha  occ. eigenvalues --   -1.14175  -1.14136  -1.14120  -1.14097  -1.14085
 Alpha  occ. eigenvalues --   -1.14076  -1.14060  -1.14007  -1.13610  -1.13605
 Alpha  occ. eigenvalues --   -1.13583  -1.13571  -1.13544  -1.13538  -1.13163
 Alpha  occ. eigenvalues --   -1.13136  -1.13114  -1.12729  -1.12711  -1.12692
 Alpha  occ. eigenvalues --   -0.16954  -0.13488  -0.12164  -0.10809
 Alpha virt. eigenvalues --   -0.06402  -0.05267  -0.04945  -0.03355  -0.03121
 Alpha virt. eigenvalues --   -0.02763  -0.02112  -0.01220  -0.00707  -0.00483
 Alpha virt. eigenvalues --   -0.00084   0.00152   0.00281   0.00549   0.00680

  Beta  occ. eigenvalues --  -38.44655 -38.44635 -38.44583 -38.44091 -38.44022
  Beta  occ. eigenvalues --  -38.43666 -38.43254  -2.20441  -2.20424  -2.20314
  Beta  occ. eigenvalues --   -2.19893  -2.19781  -2.19486  -2.19057  -1.14129
  Beta  occ. eigenvalues --   -1.14125  -1.14107  -1.14095  -1.14070  -1.14070
  Beta  occ. eigenvalues --   -1.14030  -1.14003  -1.13942  -1.13580  -1.13574
  Beta  occ. eigenvalues --   -1.13518  -1.13488  -1.13474  -1.13441  -1.13159
  Beta  occ. eigenvalues --   -1.13144  -1.13110  -1.12725  -1.12719  -1.12687
  Beta  occ. eigenvalues --   -0.16344  -0.13256  -0.11917
  Beta virt. eigenvalues --   -0.07291  -0.06059  -0.04963  -0.04651  -0.03043
  Beta virt. eigenvalues --   -0.02596  -0.02161  -0.01866  -0.01109  -0.00636
  Beta virt. eigenvalues --   -0.00258   0.00099   0.00302   0.00395   0.00703

 Mulliken charges and spin densities:
               1          2
     1  Na   0.022963   0.427470
     2  Na  -0.734118   0.129890
     3  Na   0.359412   0.008009
     4  Na   0.012547  -0.123633
     5  Na  -0.026813   0.403425
     6  Na  -0.189954   0.237304
     7  Na   0.555963  -0.082466
 Sum of Mulliken charges =  -0.00000   1.00000

 Dipole moment (field-independent basis, Debye):
    X=             -0.8514    Y=             -0.1427    Z=             -0.0690  Tot=              0.8660
 Quadrupole moment (field-independent basis, Debye-Ang):
   XX=            -57.4583   YY=            -68.2967   ZZ=            -71.3811
   XY=             -0.3106   XZ=             -0.9355   YZ=             -2.8470

 Normal termination of Gaussian 16 at Sun Dec  3 19:10:24 2023.
