 Gaussian 16, Revision B.01,
 Gaussian 16:  ES64L-G16RevB.01 20-Dec-2017

 -------------------------
 #P B3LYP/6-311+g(d) force
 -------------------------

 -----
 DPGEN
 -----
 Symbolic Z-matrix:
 Charge =  0 Multiplicity = 2

                         Standard orientation:
 ---------------------------------------------------------------------
 Center     Atomic      Atomic             Coordinates (Angstroms)
 Number     Number       Type             X           Y           Z
 ---------------------------------------------------------------------
      1         11           0        2.074513    2.348247   -0.673987
      2         11           0       -0.392999    4.068773    0.121907
      3         11           0       -3.975568   -1.378410    0.543466
      4         11           0       -1.528368   -2.551611   -0.576295
      5         11           0       -2.219081    1.505616    0.074392
      6         11           0        1.813561   -3.135139   -0.303410
      7         11           0        4.227943   -0.857476    0.813926
 ---------------------------------------------------------------------

 SCF Done:  E(UB3LYP) =  -1136.11407540     A.U. after   22 cycles

 The electronic state is 2-A.
 Alpha  occ. eigenvalues --  -38.45898 -38.45328 -38.44108 -38.44061 -38.43888
 Alpha  occ. eigenvalues --  -38.43533 -38.43501  -2.21668  -2.21145  -2.19981
 Alpha  occ. eigenvalues --   -2.19935  -2.19764  -2.19313  -2.19307  -1.15361
 Alpha  occ. eigenvalues --   -1.15337  -1.15294  -1.14840  -1.14828  -1.14771
 Alpha  occ. eigenvalues --   -1.13714  -1.13659  -1.13622  -1.13610  -1.13595
 Alpha  occ. eigenvalues --   -1.13587  -1.13395  -1.13390  -1.13352  -1.12983
 Alpha  occ. eigenvalues --   -1.12979  -1.12976  -1.12972  -1.12950  -1.12910
 Alpha  occ. eigenvalues --   -0.16467  -0.14267  -0.13322  -0.10234
 Alpha virt. eigenvalues --   -0.07238  -0.05332  -0.04043  -0.03949  -0.02901
 Alpha virt. eigenvalues --   -0.02275  -0.02198  -0.01958  -0.01594  -0.00685
 Alpha virt. eigenvalues --   -0.00107   0.00181   0.00326   0.00495   0.00637

  Beta  occ. eigenvalues --  -38.45884 -38.45312 -38.44090 -38.44020 -38.43860
  Beta  occ. eigenvalues --  -38.43490 -38.43464  -2.21645  -2.21119  -2.19948
  Beta  occ. eigenvalues --   -2.19867  -2.19711  -2.19245  -2.19230  -1.15349
  Beta  occ. eigenvalues --   -1.15325  -1.15255  -1.14826  -1.14815  -1.14727
  Beta  occ. eigenvalues --   -1.13652  -1.13635  -1.13602  -1.13587  -1.13553
  Beta  occ. eigenvalues --   -1.13541  -1.13356  -1.13345  -1.13304  -1.12945
  Beta  occ. eigenvalues --   -1.12938  -1.12921  -1.12917  -1.12888  -1.12844
  Beta  occ. eigenvalues --   -0.16110  -0.13809  -0.12686
  Beta virt. eigenvalues --   -0.07252  -0.06642  -0.05176  -0.03913  -0.03436
  Beta virt. eigenvalues --   -0.02479  -0.02159  -0.01989  -0.01619  -0.01427
  Beta virt. eigenvalues --   -0.00318   0.00109   0.00413   0.00482   0.00511

 Mulliken charges and spin densities:
               1          2
     1  Na  -0.417709   0.113010
     2  Na   0.647968   0.155322
     3  Na   1.621295   0.136253
     4  Na  -0.370897   0.210958
     5  Na  -1.149245   0.096773
     6  Na  -0.455535   0.013129
     7  Na   0.124123   0.274555
 Sum of Mulliken charges =  -0.00000   1.00000

 Dipole moment (field-independent basis, Debye):
    X=             -1.1810    Y=              1.8240    Z=              0.0531  Tot=              2.1736
 Quadrupole moment (field-independent basis, Debye-Ang):
   XX=            -66.4206   YY=            -62.6259   ZZ=            -71.3901
   XY=              2.1658   XZ=             -1.7634   YZ=             -1.2775

 Normal termination of Gaussian 16 at Mon Dec  4 04:57:59 2023.
