 Gaussian 16, Revision B.01,
 Gaussian 16:  ES64L-G16RevB.01 20-Dec-2017

 -------------------------
 #P B3LYP/6-311+g(d) force
 -------------------------

 -----
 DPGEN
 -----
 Symbolic Z-matrix:
 Charge =  0 Multiplicity = 2

                         Standard orientation:
 ---------------------------------------------------------------------
 Center     Atomic      Atomic             Coordinates (Angstroms)
 Number     Number       Type             X           Y           Z
 ---------------------------------------------------------------------
      1         11           0       -0.124023   -0.356820    2.147532
      2         11           0       -2.957251   -1.323759    0.058884
      3         11           0        0.413688    0.561215   -1.483243
      4         11           0        3.049801   -0.777596    0.143701
      5         11           0        0.636684   -2.863359   -0.689223
      6         11           0       -2.728593    1.832966   -0.306056
      7         11           0        1.709694    2.927352    0.128405
 ---------------------------------------------------------------------

 SCF Done:  E(UB3LYP) =  -1136.13154552     A.U. after   19 cycles

 The electronic state is 2-A.
 Alpha  occ. eigenvalues --  -38.44434 -38.44318 -38.44078 -38.43768 -38.43767
 Alpha  occ. eigenvalues --  -38.43291 -38.43205  -2.20271  -2.20124  -2.19895
 Alpha  occ. eigenvalues --   -2.19609  -2.19567  -2.19145  -2.19130  -1.13955
 Alpha  occ. eigenvalues --   -1.13936  -1.13901  -1.13815  -1.13789  -1.13767
 Alpha  occ. eigenvalues --   -1.13561  -1.13546  -1.13538  -1.13275  -1.13269
 Alpha  occ. eigenvalues --   -1.13234  -1.13228  -1.13219  -1.13203  -1.12837
 Alpha  occ. eigenvalues --   -1.12817  -1.12785  -1.12781  -1.12769  -1.12760
 Alpha  occ. eigenvalues --   -0.18070  -0.13240  -0.12130  -0.10510
 Alpha virt. eigenvalues --   -0.05977  -0.05524  -0.04703  -0.03278  -0.02798
 Alpha virt. eigenvalues --   -0.02418  -0.01692  -0.01329  -0.00735  -0.00504
 Alpha virt. eigenvalues --   -0.00030   0.00342   0.00720   0.00761   0.00845

  Beta  occ. eigenvalues --  -38.44430 -38.44312 -38.44077 -38.43769 -38.43666
  Beta  occ. eigenvalues --  -38.43273 -38.43162  -2.20267  -2.20116  -2.19895
  Beta  occ. eigenvalues --   -2.19571  -2.19421  -2.19100  -2.19067  -1.13949
  Beta  occ. eigenvalues --   -1.13918  -1.13895  -1.13812  -1.13770  -1.13763
  Beta  occ. eigenvalues --   -1.13549  -1.13542  -1.13537  -1.13272  -1.13217
  Beta  occ. eigenvalues --   -1.13203  -1.13143  -1.13105  -1.13092  -1.12796
  Beta  occ. eigenvalues --   -1.12767  -1.12763  -1.12739  -1.12728  -1.12706
  Beta  occ. eigenvalues --   -0.17379  -0.13052  -0.11934
  Beta virt. eigenvalues --   -0.06639  -0.05926  -0.05419  -0.04630  -0.02541
  Beta virt. eigenvalues --   -0.02141  -0.01604  -0.01421  -0.01237  -0.00746
  Beta virt. eigenvalues --   -0.00513   0.00138   0.00390   0.00758   0.00828

 Mulliken charges and spin densities:
               1          2
     1  Na  -0.400288   0.731236
     2  Na   0.115184   0.031401
     3  Na   0.125779   0.191076
     4  Na   0.228687   0.070724
     5  Na  -0.027654   0.066374
     6  Na   0.020675  -0.060833
     7  Na  -0.062383  -0.029978
 Sum of Mulliken charges =  -0.00000   1.00000

 Dipole moment (field-independent basis, Debye):
    X=              0.0014    Y=              0.1510    Z=              0.1820  Tot=              0.2365
 Quadrupole moment (field-independent basis, Debye-Ang):
   XX=            -55.7068   YY=            -62.2885   ZZ=            -75.8015
   XY=              0.2116   XZ=              1.6269   YZ=              1.9004

 Normal termination of Gaussian 16 at Thu Dec  7 05:11:34 2023.
