 Gaussian 16, Revision B.01,
 Gaussian 16:  ES64L-G16RevB.01 20-Dec-2017

 -------------------------
 #P B3LYP/6-311+g(d) force
 -------------------------

 -----
 DPGEN
 -----
 Symbolic Z-matrix:
 Charge =  0 Multiplicity = 2

                         Standard orientation:
 ---------------------------------------------------------------------
 Center     Atomic      Atomic             Coordinates (Angstroms)
 Number     Number       Type             X           Y           Z
 ---------------------------------------------------------------------
      1         11           0        5.081128   -1.451285   -0.418810
      2         11           0       -2.387350   -0.472919   -0.128416
      3         11           0        0.420143    1.625480    1.982333
      4         11           0        1.927616   -1.056509    0.720903
      5         11           0        0.762338    0.742742   -1.550926
      6         11           0       -4.449795   -2.539605    0.012286
      7         11           0       -1.354081    3.152095   -0.617369
 ---------------------------------------------------------------------

 SCF Done:  E(UB3LYP) =  -1136.11116721     A.U. after   23 cycles

 The electronic state is 2-A.
 Alpha  occ. eigenvalues --  -38.45762 -38.45210 -38.44606 -38.44436 -38.43900
 Alpha  occ. eigenvalues --  -38.43101 -38.42832  -2.21628  -2.20973  -2.20441
 Alpha  occ. eigenvalues --   -2.20313  -2.19788  -2.18918  -2.18705  -1.15339
 Alpha  occ. eigenvalues --   -1.15293  -1.15224  -1.14633  -1.14630  -1.14593
 Alpha  occ. eigenvalues --   -1.14105  -1.14095  -1.14077  -1.13979  -1.13961
 Alpha  occ. eigenvalues --   -1.13912  -1.13510  -1.13445  -1.13393  -1.12695
 Alpha  occ. eigenvalues --   -1.12558  -1.12557  -1.12384  -1.12363  -1.12283
 Alpha  occ. eigenvalues --   -0.18060  -0.13472  -0.11865  -0.11082
 Alpha virt. eigenvalues --   -0.07658  -0.05502  -0.04256  -0.03242  -0.02791
 Alpha virt. eigenvalues --   -0.02597  -0.02084  -0.01712  -0.01271  -0.00749
 Alpha virt. eigenvalues --   -0.00400   0.00137   0.00163   0.00433   0.00559

  Beta  occ. eigenvalues --  -38.45732 -38.45173 -38.44580 -38.44353 -38.43880
  Beta  occ. eigenvalues --  -38.43104 -38.42828  -2.21576  -2.20904  -2.20395
  Beta  occ. eigenvalues --   -2.20161  -2.19757  -2.18923  -2.18698  -1.15292
  Beta  occ. eigenvalues --   -1.15250  -1.15189  -1.14585  -1.14582  -1.14548
  Beta  occ. eigenvalues --   -1.14069  -1.14055  -1.14046  -1.13871  -1.13853
  Beta  occ. eigenvalues --   -1.13808  -1.13499  -1.13421  -1.13328  -1.12698
  Beta  occ. eigenvalues --   -1.12561  -1.12560  -1.12382  -1.12344  -1.12284
  Beta  occ. eigenvalues --   -0.17403  -0.13112  -0.11810
  Beta virt. eigenvalues --   -0.07489  -0.07108  -0.05287  -0.03917  -0.02880
  Beta virt. eigenvalues --   -0.02482  -0.02152  -0.01737  -0.01495  -0.00950
  Beta virt. eigenvalues --   -0.00553  -0.00329   0.00246   0.00403   0.00518

 Mulliken charges and spin densities:
               1          2
     1  Na   0.012094   0.214382
     2  Na  -0.821172   0.097627
     3  Na   0.155666   0.315273
     4  Na   0.316707   0.049666
     5  Na   0.448647   0.264904
     6  Na  -0.958807  -0.011311
     7  Na   0.846866   0.069459
 Sum of Mulliken charges =  -0.00000   1.00000

 Dipole moment (field-independent basis, Debye):
    X=              1.8787    Y=              1.5477    Z=              0.0711  Tot=              2.4352
 Quadrupole moment (field-independent basis, Debye-Ang):
   XX=            -59.8882   YY=            -63.9875   ZZ=            -71.1675
   XY=             -5.2376   XZ=             -2.2815   YZ=              1.2734

 Normal termination of Gaussian 16 at Tue Dec  5 13:18:35 2023.
