 Gaussian 16, Revision B.01,
 Gaussian 16:  ES64L-G16RevB.01 20-Dec-2017

 -------------------------
 #P B3LYP/6-311+g(d) force
 -------------------------

 -----
 DPGEN
 -----
 Symbolic Z-matrix:
 Charge =  0 Multiplicity = 2

                         Standard orientation:
 ---------------------------------------------------------------------
 Center     Atomic      Atomic             Coordinates (Angstroms)
 Number     Number       Type             X           Y           Z
 ---------------------------------------------------------------------
      1         11           0        2.684102    1.300833   -0.017088
      2         11           0       -3.200910    0.441630   -0.046526
      3         11           0       -0.174815    0.000481   -1.530316
      4         11           0       -1.486399   -2.574729   -0.179258
      5         11           0       -0.228547    2.992077   -0.148383
      6         11           0       -0.160809   -0.119189    2.054236
      7         11           0        2.567377   -2.041103   -0.132666
 ---------------------------------------------------------------------

 SCF Done:  E(UB3LYP) =  -1136.13765383     A.U. after   19 cycles

 The electronic state is 2-A.
 Alpha  occ. eigenvalues --  -38.44360 -38.43822 -38.43739 -38.43725 -38.43464
 Alpha  occ. eigenvalues --  -38.43222 -38.43028  -2.20183  -2.19624  -2.19592
 Alpha  occ. eigenvalues --   -2.19585  -2.19343  -2.19070  -2.19023  -1.13860
 Alpha  occ. eigenvalues --   -1.13842  -1.13821  -1.13321  -1.13302  -1.13292
 Alpha  occ. eigenvalues --   -1.13268  -1.13258  -1.13255  -1.13248  -1.13208
 Alpha  occ. eigenvalues --   -1.13205  -1.13015  -1.12965  -1.12958  -1.12783
 Alpha  occ. eigenvalues --   -1.12727  -1.12709  -1.12702  -1.12650  -1.12633
 Alpha  occ. eigenvalues --   -0.18565  -0.13173  -0.12310  -0.10507
 Alpha virt. eigenvalues --   -0.05832  -0.05246  -0.04751  -0.03147  -0.02676
 Alpha virt. eigenvalues --   -0.02424  -0.01692  -0.01187  -0.00545  -0.00420
 Alpha virt. eigenvalues --   -0.00006   0.00343   0.00780   0.00828   0.00881

  Beta  occ. eigenvalues --  -38.44356 -38.43822 -38.43731 -38.43722 -38.43363
  Beta  occ. eigenvalues --  -38.43218 -38.42969  -2.20178  -2.19626  -2.19582
  Beta  occ. eigenvalues --   -2.19581  -2.19159  -2.19066  -2.18917  -1.13849
  Beta  occ. eigenvalues --   -1.13824  -1.13822  -1.13324  -1.13291  -1.13277
  Beta  occ. eigenvalues --   -1.13270  -1.13254  -1.13226  -1.13223  -1.13208
  Beta  occ. eigenvalues --   -1.13205  -1.12892  -1.12835  -1.12827  -1.12766
  Beta  occ. eigenvalues --   -1.12710  -1.12702  -1.12631  -1.12577  -1.12559
  Beta  occ. eigenvalues --   -0.17844  -0.12954  -0.12089
  Beta virt. eigenvalues --   -0.06575  -0.05804  -0.05236  -0.04726  -0.02356
  Beta virt. eigenvalues --   -0.01944  -0.01611  -0.01334  -0.01113  -0.00606
  Beta virt. eigenvalues --   -0.00467   0.00146   0.00373   0.00814   0.00855

 Mulliken charges and spin densities:
               1          2
     1  Na   0.150577  -0.008396
     2  Na   0.261423  -0.031301
     3  Na  -0.325220   0.421255
     4  Na   0.195106  -0.068981
     5  Na   0.161353  -0.044687
     6  Na  -0.511959   0.795623
     7  Na   0.068721  -0.063513
 Sum of Mulliken charges =  -0.00000   1.00000

 Dipole moment (field-independent basis, Debye):
    X=             -0.3232    Y=             -0.1389    Z=              0.1340  Tot=              0.3765
 Quadrupole moment (field-independent basis, Debye-Ang):
   XX=            -55.0402   YY=            -61.4783   ZZ=            -76.0260
   XY=             -0.7586   XZ=              0.0102   YZ=              0.3624

 Normal termination of Gaussian 16 at Fri Dec  8 05:48:52 2023.
