 Gaussian 16, Revision B.01,
 Gaussian 16:  ES64L-G16RevB.01 20-Dec-2017

 -------------------------
 #P B3LYP/6-311+g(d) force
 -------------------------

 -----
 DPGEN
 -----
 Symbolic Z-matrix:
 Charge =  0 Multiplicity = 2

                         Standard orientation:
 ---------------------------------------------------------------------
 Center     Atomic      Atomic             Coordinates (Angstroms)
 Number     Number       Type             X           Y           Z
 ---------------------------------------------------------------------
      1         11           0       -1.750077   -2.633766   -0.365697
      2         11           0        0.171876    0.150122    2.084736
      3         11           0       -2.965272    0.374477    0.077017
      4         11           0        0.136854   -0.180054   -1.425734
      5         11           0        2.238855   -2.359546    0.193171
      6         11           0       -0.695522    3.239314   -0.170321
      7         11           0        2.863285    1.409453   -0.393172
 ---------------------------------------------------------------------

 SCF Done:  E(UB3LYP) =  -1136.13585437     A.U. after   19 cycles

 The electronic state is 2-A.
 Alpha  occ. eigenvalues --  -38.44183 -38.44143 -38.43945 -38.43635 -38.43635
 Alpha  occ. eigenvalues --  -38.43511 -38.42991  -2.19985  -2.19937  -2.19725
 Alpha  occ. eigenvalues --   -2.19485  -2.19476  -2.19373  -2.18971  -1.13677
 Alpha  occ. eigenvalues --   -1.13644  -1.13614  -1.13607  -1.13599  -1.13570
 Alpha  occ. eigenvalues --   -1.13403  -1.13380  -1.13370  -1.13209  -1.13162
 Alpha  occ. eigenvalues --   -1.13151  -1.13141  -1.13115  -1.13072  -1.13047
 Alpha  occ. eigenvalues --   -1.13000  -1.12980  -1.12669  -1.12609  -1.12597
 Alpha  occ. eigenvalues --   -0.18231  -0.12851  -0.12431  -0.10381
 Alpha virt. eigenvalues --   -0.05810  -0.05221  -0.05101  -0.02982  -0.02761
 Alpha virt. eigenvalues --   -0.02329  -0.01564  -0.01495  -0.00684  -0.00580
 Alpha virt. eigenvalues --   -0.00008   0.00325   0.00752   0.00812   0.00828

  Beta  occ. eigenvalues --  -38.44171 -38.44139 -38.43945 -38.43631 -38.43627
  Beta  occ. eigenvalues --  -38.43411 -38.42944  -2.19965  -2.19931  -2.19727
  Beta  occ. eigenvalues --   -2.19481  -2.19465  -2.19187  -2.18886  -1.13655
  Beta  occ. eigenvalues --   -1.13623  -1.13605  -1.13594  -1.13583  -1.13569
  Beta  occ. eigenvalues --   -1.13397  -1.13379  -1.13370  -1.13205  -1.13148
  Beta  occ. eigenvalues --   -1.13140  -1.13124  -1.13100  -1.13068  -1.12923
  Beta  occ. eigenvalues --   -1.12872  -1.12845  -1.12600  -1.12544  -1.12537
  Beta  occ. eigenvalues --   -0.17544  -0.12609  -0.12226
  Beta virt. eigenvalues --   -0.06518  -0.05779  -0.05138  -0.05063  -0.02239
  Beta virt. eigenvalues --   -0.02084  -0.01482  -0.01386  -0.01285  -0.00728
  Beta virt. eigenvalues --   -0.00608   0.00145   0.00369   0.00766   0.00840

 Mulliken charges and spin densities:
               1          2
     1  Na   0.265661   0.024721
     2  Na  -0.392991   0.760754
     3  Na   0.177506   0.016208
     4  Na  -0.285966   0.278999
     5  Na   0.114385  -0.001100
     6  Na   0.009904  -0.048500
     7  Na   0.111501  -0.031081
 Sum of Mulliken charges =  -0.00000   1.00000

 Dipole moment (field-independent basis, Debye):
    X=              0.3429    Y=              0.0073    Z=              0.1216  Tot=              0.3639
 Quadrupole moment (field-independent basis, Debye-Ang):
   XX=            -57.9978   YY=            -57.3716   ZZ=            -76.6095
   XY=             -0.5708   XZ=             -0.1043   YZ=             -0.6415

 Normal termination of Gaussian 16 at Thu Dec  7 14:11:41 2023.
