 Gaussian 16, Revision B.01,
 Gaussian 16:  ES64L-G16RevB.01 20-Dec-2017

 -------------------------
 #P B3LYP/6-311+g(d) force
 -------------------------

 -----
 DPGEN
 -----
 Symbolic Z-matrix:
 Charge =  0 Multiplicity = 2

                         Standard orientation:
 ---------------------------------------------------------------------
 Center     Atomic      Atomic             Coordinates (Angstroms)
 Number     Number       Type             X           Y           Z
 ---------------------------------------------------------------------
      1         11           0       -0.512705    1.496320   -0.109486
      2         11           0        2.732979    3.285069    0.519979
      3         11           0        3.358526    0.425272   -0.417181
      4         11           0        3.381472   -2.663515   -0.251542
      5         11           0        0.242103   -2.150877    0.077153
      6         11           0       -3.690339   -1.248285    0.962775
      7         11           0       -5.512036    0.856017   -0.781699
 ---------------------------------------------------------------------

 SCF Done:  E(UB3LYP) =  -1136.11889865     A.U. after   21 cycles

 The electronic state is 2-A.
 Alpha  occ. eigenvalues --  -38.45220 -38.44765 -38.44552 -38.43881 -38.43840
 Alpha  occ. eigenvalues --  -38.43624 -38.43260  -2.20981  -2.20530  -2.20354
 Alpha  occ. eigenvalues --   -2.19778  -2.19667  -2.19444  -2.19132  -1.14680
 Alpha  occ. eigenvalues --   -1.14665  -1.14550  -1.14219  -1.14211  -1.14176
 Alpha  occ. eigenvalues --   -1.13994  -1.13992  -1.13962  -1.13484  -1.13454
 Alpha  occ. eigenvalues --   -1.13427  -1.13351  -1.13342  -1.13292  -1.13116
 Alpha  occ. eigenvalues --   -1.13096  -1.13060  -1.12801  -1.12769  -1.12760
 Alpha  occ. eigenvalues --   -0.16621  -0.14147  -0.12320  -0.11020
 Alpha virt. eigenvalues --   -0.06482  -0.05157  -0.04604  -0.03814  -0.03260
 Alpha virt. eigenvalues --   -0.02363  -0.01913  -0.01410  -0.00950  -0.00826
 Alpha virt. eigenvalues --   -0.00348  -0.00083   0.00188   0.00356   0.00661

  Beta  occ. eigenvalues --  -38.45177 -38.44773 -38.44470 -38.43846 -38.43806
  Beta  occ. eigenvalues --  -38.43622 -38.43238  -2.20901  -2.20551  -2.20199
  Beta  occ. eigenvalues --   -2.19717  -2.19605  -2.19441  -2.19092  -1.14627
  Beta  occ. eigenvalues --   -1.14604  -1.14497  -1.14238  -1.14219  -1.14156
  Beta  occ. eigenvalues --   -1.13889  -1.13884  -1.13867  -1.13440  -1.13412
  Beta  occ. eigenvalues --   -1.13380  -1.13310  -1.13300  -1.13238  -1.13106
  Beta  occ. eigenvalues --   -1.13095  -1.13057  -1.12763  -1.12742  -1.12737
  Beta  occ. eigenvalues --   -0.15998  -0.13417  -0.12241
  Beta virt. eigenvalues --   -0.07571  -0.06144  -0.04840  -0.04168  -0.03585
  Beta virt. eigenvalues --   -0.02897  -0.02121  -0.01756  -0.01136  -0.00882
  Beta virt. eigenvalues --   -0.00413  -0.00103   0.00112   0.00402   0.00483

 Mulliken charges and spin densities:
               1          2
     1  Na  -0.781378   0.019693
     2  Na   0.932191   0.084006
     3  Na  -0.922450   0.295807
     4  Na   1.193148   0.153480
     5  Na  -0.662005   0.051562
     6  Na   0.012427   0.000634
     7  Na   0.228067   0.394818
 Sum of Mulliken charges =  -0.00000   1.00000

 Dipole moment (field-independent basis, Debye):
    X=             -0.5875    Y=              0.3661    Z=              0.1370  Tot=              0.7056
 Quadrupole moment (field-independent basis, Debye-Ang):
   XX=            -66.6491   YY=            -62.7814   ZZ=            -70.2897
   XY=             -0.2036   XZ=              1.4319   YZ=             -2.2517

 Normal termination of Gaussian 16 at Wed Nov 29 03:51:17 2023.
