 Gaussian 16, Revision B.01,
 Gaussian 16:  ES64L-G16RevB.01 20-Dec-2017

 -------------------------
 #P B3LYP/6-311+g(d) force
 -------------------------

 -----
 DPGEN
 -----
 Symbolic Z-matrix:
 Charge =  0 Multiplicity = 2

                         Standard orientation:
 ---------------------------------------------------------------------
 Center     Atomic      Atomic             Coordinates (Angstroms)
 Number     Number       Type             X           Y           Z
 ---------------------------------------------------------------------
      1         11           0       -3.300238   -1.023979    0.376335
      2         11           0        2.130182    2.694627    0.238342
      3         11           0       -0.565161    0.011710    1.770383
      4         11           0        0.456200   -2.721308   -0.634656
      5         11           0        0.036528    0.371283   -1.609004
      6         11           0        3.194937   -1.278575    0.351063
      7         11           0       -1.952448    1.946243   -0.492464
 ---------------------------------------------------------------------

 SCF Done:  E(UB3LYP) =  -1136.12381883     A.U. after   21 cycles

 The electronic state is 2-A.
 Alpha  occ. eigenvalues --  -38.44563 -38.44301 -38.44050 -38.43877 -38.43842
 Alpha  occ. eigenvalues --  -38.43368 -38.43192  -2.20347  -2.20134  -2.19994
 Alpha  occ. eigenvalues --   -2.19792  -2.19602  -2.19372  -2.19051  -1.14021
 Alpha  occ. eigenvalues --   -1.14010  -1.13984  -1.13861  -1.13820  -1.13796
 Alpha  occ. eigenvalues --   -1.13771  -1.13649  -1.13555  -1.13478  -1.13425
 Alpha  occ. eigenvalues --   -1.13394  -1.13284  -1.13258  -1.13241  -1.13034
 Alpha  occ. eigenvalues --   -1.13018  -1.12944  -1.12732  -1.12702  -1.12675
 Alpha  occ. eigenvalues --   -0.18467  -0.13292  -0.12060  -0.10595
 Alpha virt. eigenvalues --   -0.06039  -0.05664  -0.04296  -0.03282  -0.02819
 Alpha virt. eigenvalues --   -0.02258  -0.01962  -0.01348  -0.00459  -0.00281
 Alpha virt. eigenvalues --   -0.00020   0.00269   0.00680   0.00736   0.00867

  Beta  occ. eigenvalues --  -38.44562 -38.44290 -38.44025 -38.43840 -38.43814
  Beta  occ. eigenvalues --  -38.43290 -38.43175  -2.20346  -2.20116  -2.19954
  Beta  occ. eigenvalues --   -2.19676  -2.19599  -2.19234  -2.19021  -1.14018
  Beta  occ. eigenvalues --   -1.14006  -1.13983  -1.13818  -1.13791  -1.13784
  Beta  occ. eigenvalues --   -1.13749  -1.13594  -1.13536  -1.13400  -1.13346
  Beta  occ. eigenvalues --   -1.13305  -1.13277  -1.13252  -1.13239  -1.12948
  Beta  occ. eigenvalues --   -1.12914  -1.12842  -1.12703  -1.12670  -1.12658
  Beta  occ. eigenvalues --   -0.17776  -0.13051  -0.11808
  Beta virt. eigenvalues --   -0.06811  -0.05878  -0.05567  -0.04240  -0.02625
  Beta virt. eigenvalues --   -0.02181  -0.01777  -0.01334  -0.01304  -0.00401
  Beta virt. eigenvalues --   -0.00259   0.00107   0.00319   0.00744   0.00775

 Mulliken charges and spin densities:
               1          2
     1  Na   0.177462   0.040850
     2  Na  -0.292432  -0.006777
     3  Na  -0.417552   0.740178
     4  Na   0.056954  -0.030539
     5  Na   0.298305   0.315883
     6  Na  -0.169333  -0.000177
     7  Na   0.346596  -0.059419
 Sum of Mulliken charges =   0.00000   1.00000

 Dipole moment (field-independent basis, Debye):
    X=             -0.0487    Y=             -0.1220    Z=              0.2876  Tot=              0.3162
 Quadrupole moment (field-independent basis, Debye-Ang):
   XX=            -52.3733   YY=            -65.3044   ZZ=            -75.2570
   XY=              1.1764   XZ=              2.0469   YZ=              0.5993

 Normal termination of Gaussian 16 at Tue Dec  5 21:10:36 2023.
