 Gaussian 16, Revision B.01,
 Gaussian 16:  ES64L-G16RevB.01 20-Dec-2017

 -------------------------
 #P B3LYP/6-311+g(d) force
 -------------------------

 -----
 DPGEN
 -----
 Symbolic Z-matrix:
 Charge =  0 Multiplicity = 2

                         Standard orientation:
 ---------------------------------------------------------------------
 Center     Atomic      Atomic             Coordinates (Angstroms)
 Number     Number       Type             X           Y           Z
 ---------------------------------------------------------------------
      1         11           0        1.629910   -2.415742    0.055958
      2         11           0        0.197051   -0.084592   -1.847735
      3         11           0       -0.508592    2.838179   -0.595378
      4         11           0        3.052599    1.041781    0.191691
      5         11           0       -2.774772    0.673357    0.720502
      6         11           0       -1.918271   -2.118902   -0.405792
      7         11           0        0.322074    0.065919    1.880755
 ---------------------------------------------------------------------

 SCF Done:  E(UB3LYP) =  -1136.13688811     A.U. after   19 cycles

 The electronic state is 2-A.
 Alpha  occ. eigenvalues --  -38.44151 -38.43649 -38.43565 -38.43510 -38.43469
 Alpha  occ. eigenvalues --  -38.43402 -38.43337  -2.19960  -2.19584  -2.19433
 Alpha  occ. eigenvalues --   -2.19426  -2.19399  -2.19246  -2.19221  -1.13651
 Alpha  occ. eigenvalues --   -1.13618  -1.13591  -1.13266  -1.13238  -1.13212
 Alpha  occ. eigenvalues --   -1.13148  -1.13118  -1.13103  -1.13097  -1.13080
 Alpha  occ. eigenvalues --   -1.13060  -1.13045  -1.13036  -1.13035  -1.12919
 Alpha  occ. eigenvalues --   -1.12889  -1.12886  -1.12868  -1.12860  -1.12840
 Alpha  occ. eigenvalues --   -0.18828  -0.13023  -0.12370  -0.11202
 Alpha virt. eigenvalues --   -0.05610  -0.04925  -0.04419  -0.03387  -0.03081
 Alpha virt. eigenvalues --   -0.02803  -0.01465  -0.01047  -0.00255  -0.00009
 Alpha virt. eigenvalues --    0.00075   0.00378   0.00834   0.00889   0.00927

  Beta  occ. eigenvalues --  -38.44148 -38.43572 -38.43560 -38.43494 -38.43387
  Beta  occ. eigenvalues --  -38.43387 -38.43331  -2.19958  -2.19444  -2.19421
  Beta  occ. eigenvalues --   -2.19372  -2.19283  -2.19222  -2.19213  -1.13636
  Beta  occ. eigenvalues --   -1.13614  -1.13587  -1.13185  -1.13151  -1.13117
  Beta  occ. eigenvalues --   -1.13108  -1.13091  -1.13073  -1.13035  -1.13032
  Beta  occ. eigenvalues --   -1.13016  -1.13002  -1.12988  -1.12956  -1.12879
  Beta  occ. eigenvalues --   -1.12864  -1.12861  -1.12854  -1.12845  -1.12827
  Beta  occ. eigenvalues --   -0.18088  -0.12768  -0.12090
  Beta virt. eigenvalues --   -0.07286  -0.05591  -0.04861  -0.04352  -0.02632
  Beta virt. eigenvalues --   -0.02314  -0.01763  -0.01375  -0.00974  -0.00186
  Beta virt. eigenvalues --   -0.00047   0.00133   0.00402   0.00846   0.00924

 Mulliken charges and spin densities:
               1          2
     1  Na   0.053536  -0.078935
     2  Na  -0.011843   0.535528
     3  Na  -0.092626  -0.010773
     4  Na  -0.038263  -0.109513
     5  Na   0.179501   0.098179
     6  Na   0.004304   0.004262
     7  Na  -0.094609   0.561251
 Sum of Mulliken charges =  -0.00000   1.00000

 Dipole moment (field-independent basis, Debye):
    X=              0.5195    Y=              0.0503    Z=              0.0789  Tot=              0.5279
 Quadrupole moment (field-independent basis, Debye-Ang):
   XX=            -58.3396   YY=            -63.8297   ZZ=            -72.0914
   XY=              0.3702   XZ=             -0.4424   YZ=             -0.2336

 Normal termination of Gaussian 16 at Fri Dec  8 04:57:04 2023.
