 Gaussian 16, Revision B.01,
 Gaussian 16:  ES64L-G16RevB.01 20-Dec-2017

 -------------------------
 #P B3LYP/6-311+g(d) force
 -------------------------

 -----
 DPGEN
 -----
 Symbolic Z-matrix:
 Charge =  0 Multiplicity = 2

                         Standard orientation:
 ---------------------------------------------------------------------
 Center     Atomic      Atomic             Coordinates (Angstroms)
 Number     Number       Type             X           Y           Z
 ---------------------------------------------------------------------
      1         11           0       -0.594199    1.340033    0.825610
      2         11           0        0.807470    4.019891   -0.084893
      3         11           0        2.746480    0.903528   -0.717367
      4         11           0        4.864287   -2.352977   -0.095767
      5         11           0        1.229102   -1.988582    0.337697
      6         11           0       -2.976908   -0.877407    0.312402
      7         11           0       -6.076231   -1.044487   -0.577682
 ---------------------------------------------------------------------

 SCF Done:  E(UB3LYP) =  -1136.12141511     A.U. after   20 cycles

 The electronic state is 2-A.
 Alpha  occ. eigenvalues --  -38.45167 -38.44919 -38.44630 -38.44004 -38.43837
 Alpha  occ. eigenvalues --  -38.43830 -38.42937  -2.20960  -2.20679  -2.20435
 Alpha  occ. eigenvalues --   -2.19815  -2.19715  -2.19659  -2.18762  -1.14682
 Alpha  occ. eigenvalues --   -1.14667  -1.14523  -1.14348  -1.14345  -1.14287
 Alpha  occ. eigenvalues --   -1.14137  -1.14127  -1.14007  -1.13450  -1.13447
 Alpha  occ. eigenvalues --   -1.13445  -1.13426  -1.13401  -1.13385  -1.13310
 Alpha  occ. eigenvalues --   -1.13298  -1.13248  -1.12463  -1.12439  -1.12405
 Alpha  occ. eigenvalues --   -0.16817  -0.13544  -0.12831  -0.10908
 Alpha virt. eigenvalues --   -0.06619  -0.05336  -0.04488  -0.03791  -0.02731
 Alpha virt. eigenvalues --   -0.02188  -0.02002  -0.01869  -0.01366  -0.00879
 Alpha virt. eigenvalues --   -0.00351  -0.00053   0.00028   0.00348   0.00605

  Beta  occ. eigenvalues --  -38.45157 -38.44896 -38.44595 -38.43914 -38.43817
  Beta  occ. eigenvalues --  -38.43808 -38.42940  -2.20942  -2.20635  -2.20374
  Beta  occ. eigenvalues --   -2.19679  -2.19646  -2.19622  -2.18776  -1.14660
  Beta  occ. eigenvalues --   -1.14656  -1.14510  -1.14318  -1.14313  -1.14260
  Beta  occ. eigenvalues --   -1.14099  -1.14088  -1.13942  -1.13391  -1.13383
  Beta  occ. eigenvalues --   -1.13359  -1.13340  -1.13332  -1.13331  -1.13284
  Beta  occ. eigenvalues --   -1.13265  -1.13216  -1.12476  -1.12457  -1.12354
  Beta  occ. eigenvalues --   -0.16277  -0.13128  -0.12252
  Beta virt. eigenvalues --   -0.07603  -0.06369  -0.04915  -0.04149  -0.03555
  Beta virt. eigenvalues --   -0.02569  -0.02036  -0.01774  -0.01346  -0.01106
  Beta virt. eigenvalues --   -0.00613  -0.00060   0.00094   0.00224   0.00455

 Mulliken charges and spin densities:
               1          2
     1  Na  -1.277473  -0.075512
     2  Na   1.061477   0.099928
     3  Na  -0.159559   0.189627
     4  Na   0.856609   0.193369
     5  Na  -0.612561   0.086201
     6  Na  -0.024682   0.054439
     7  Na   0.156190   0.451948
 Sum of Mulliken charges =  -0.00000   1.00000

 Dipole moment (field-independent basis, Debye):
    X=              2.2541    Y=             -0.0277    Z=             -0.1976  Tot=              2.2629
 Quadrupole moment (field-independent basis, Debye-Ang):
   XX=            -58.9327   YY=            -61.3769   ZZ=            -72.1979
   XY=             -6.5473   XZ=              0.4359   YZ=             -0.5827

 Normal termination of Gaussian 16 at Wed Nov 29 01:54:51 2023.
