 Gaussian 16, Revision B.01,
 Gaussian 16:  ES64L-G16RevB.01 20-Dec-2017

 -------------------------
 #P B3LYP/6-311+g(d) force
 -------------------------

 -----
 DPGEN
 -----
 Symbolic Z-matrix:
 Charge =  0 Multiplicity = 2

                         Standard orientation:
 ---------------------------------------------------------------------
 Center     Atomic      Atomic             Coordinates (Angstroms)
 Number     Number       Type             X           Y           Z
 ---------------------------------------------------------------------
      1         11           0       -3.701886   -2.739118   -0.329070
      2         11           0        3.333810   -0.946830    0.609285
      3         11           0       -1.271097   -0.686920   -1.159057
      4         11           0       -3.940052    0.585202    1.802948
      5         11           0        1.096225    1.301902   -1.458411
      6         11           0       -2.065444    2.699806   -0.055827
      7         11           0        6.548445   -0.214043    0.590132
 ---------------------------------------------------------------------

 SCF Done:  E(UB3LYP) =  -1136.11492353     A.U. after   23 cycles

 The electronic state is 2-A.
 Alpha  occ. eigenvalues --  -38.44925 -38.44883 -38.44159 -38.44138 -38.44050
 Alpha  occ. eigenvalues --  -38.43839 -38.43599  -2.20712  -2.20703  -2.20035
 Alpha  occ. eigenvalues --   -2.19931  -2.19821  -2.19645  -2.19444  -1.14419
 Alpha  occ. eigenvalues --   -1.14388  -1.14376  -1.14344  -1.14318  -1.14291
 Alpha  occ. eigenvalues --   -1.13721  -1.13693  -1.13689  -1.13588  -1.13588
 Alpha  occ. eigenvalues --   -1.13585  -1.13501  -1.13493  -1.13433  -1.13314
 Alpha  occ. eigenvalues --   -1.13297  -1.13251  -1.13132  -1.13098  -1.13047
 Alpha  occ. eigenvalues --   -0.16772  -0.13630  -0.12117  -0.11625
 Alpha virt. eigenvalues --   -0.06460  -0.04929  -0.04722  -0.03768  -0.03235
 Alpha virt. eigenvalues --   -0.02436  -0.02052  -0.01448  -0.01298  -0.00659
 Alpha virt. eigenvalues --   -0.00493  -0.00191   0.00135   0.00511   0.00554

  Beta  occ. eigenvalues --  -38.44878 -38.44828 -38.44133 -38.44091 -38.44058
  Beta  occ. eigenvalues --  -38.43794 -38.43585  -2.20627  -2.20603  -2.19951
  Beta  occ. eigenvalues --   -2.19882  -2.19838  -2.19562  -2.19419  -1.14345
  Beta  occ. eigenvalues --   -1.14332  -1.14312  -1.14285  -1.14250  -1.14205
  Beta  occ. eigenvalues --   -1.13667  -1.13630  -1.13618  -1.13562  -1.13555
  Beta  occ. eigenvalues --   -1.13553  -1.13515  -1.13504  -1.13426  -1.13246
  Beta  occ. eigenvalues --   -1.13241  -1.13203  -1.13101  -1.13083  -1.13041
  Beta  occ. eigenvalues --   -0.16055  -0.13234  -0.11497
  Beta virt. eigenvalues --   -0.08219  -0.06129  -0.04758  -0.04298  -0.03456
  Beta virt. eigenvalues --   -0.02648  -0.02310  -0.01864  -0.01272  -0.00872
  Beta virt. eigenvalues --   -0.00542  -0.00206  -0.00067   0.00374   0.00584

 Mulliken charges and spin densities:
               1          2
     1  Na   0.544783   0.015592
     2  Na  -0.532646  -0.000362
     3  Na  -1.792591   0.514535
     4  Na  -0.026578   0.143873
     5  Na   1.070444  -0.018446
     6  Na   0.162162   0.263114
     7  Na   0.574425   0.081694
 Sum of Mulliken charges =  -0.00000   1.00000

 Dipole moment (field-independent basis, Debye):
    X=             -0.6509    Y=              0.8165    Z=              0.2486  Tot=              1.0734
 Quadrupole moment (field-independent basis, Debye-Ang):
   XX=            -61.3144   YY=            -65.8315   ZZ=            -69.7126
   XY=              2.7874   XZ=             -3.7499   YZ=             -0.4080

 Normal termination of Gaussian 16 at Sun Dec  3 16:50:45 2023.
