 Gaussian 16, Revision B.01,
 Gaussian 16:  ES64L-G16RevB.01 20-Dec-2017

 -------------------------
 #P B3LYP/6-311+g(d) force
 -------------------------

 -----
 DPGEN
 -----
 Symbolic Z-matrix:
 Charge =  0 Multiplicity = 2

                         Standard orientation:
 ---------------------------------------------------------------------
 Center     Atomic      Atomic             Coordinates (Angstroms)
 Number     Number       Type             X           Y           Z
 ---------------------------------------------------------------------
      1         11           0       -0.312573   -2.982070   -0.514835
      2         11           0        3.219781   -1.070279    0.155722
      3         11           0       -1.949402    2.065523   -0.703875
      4         11           0        1.822007    2.736827    0.033804
      5         11           0        0.136996   -0.048497    2.133501
      6         11           0       -3.379797   -0.490634    0.488457
      7         11           0        0.462989   -0.210870   -1.592773
 ---------------------------------------------------------------------

 SCF Done:  E(UB3LYP) =  -1136.12960991     A.U. after   20 cycles

 The electronic state is 2-A.
 Alpha  occ. eigenvalues --  -38.44924 -38.44215 -38.44122 -38.43743 -38.43631
 Alpha  occ. eigenvalues --  -38.43542 -38.43199  -2.20703  -2.20016  -2.19951
 Alpha  occ. eigenvalues --   -2.19520  -2.19451  -2.19384  -2.19158  -1.14391
 Alpha  occ. eigenvalues --   -1.14361  -1.14328  -1.13710  -1.13676  -1.13648
 Alpha  occ. eigenvalues --   -1.13617  -1.13584  -1.13563  -1.13202  -1.13198
 Alpha  occ. eigenvalues --   -1.13179  -1.13162  -1.13099  -1.13074  -1.13061
 Alpha  occ. eigenvalues --   -1.13042  -1.13011  -1.12831  -1.12793  -1.12774
 Alpha  occ. eigenvalues --   -0.17997  -0.12959  -0.12034  -0.10750
 Alpha virt. eigenvalues --   -0.06253  -0.05293  -0.04470  -0.03309  -0.02809
 Alpha virt. eigenvalues --   -0.02653  -0.01899  -0.01278  -0.00672  -0.00266
 Alpha virt. eigenvalues --   -0.00054   0.00335   0.00620   0.00732   0.00780

  Beta  occ. eigenvalues --  -38.44921 -38.44211 -38.44030 -38.43744 -38.43618
  Beta  occ. eigenvalues --  -38.43529 -38.43138  -2.20700  -2.20009  -2.19780
  Beta  occ. eigenvalues --   -2.19525  -2.19431  -2.19362  -2.19048  -1.14377
  Beta  occ. eigenvalues --   -1.14355  -1.14326  -1.13708  -1.13657  -1.13645
  Beta  occ. eigenvalues --   -1.13503  -1.13468  -1.13437  -1.13194  -1.13185
  Beta  occ. eigenvalues --   -1.13172  -1.13161  -1.13074  -1.13053  -1.13050
  Beta  occ. eigenvalues --   -1.13014  -1.12999  -1.12757  -1.12715  -1.12691
  Beta  occ. eigenvalues --   -0.17289  -0.12790  -0.11779
  Beta virt. eigenvalues --   -0.06910  -0.06168  -0.05206  -0.04378  -0.02648
  Beta virt. eigenvalues --   -0.02123  -0.01769  -0.01627  -0.01204  -0.00677
  Beta virt. eigenvalues --   -0.00274   0.00085   0.00363   0.00713   0.00801

 Mulliken charges and spin densities:
               1          2
     1  Na   0.003565  -0.025629
     2  Na   0.023627  -0.040817
     3  Na   0.028362   0.014486
     4  Na  -0.071206  -0.044952
     5  Na  -0.334799   0.775385
     6  Na  -0.013742   0.069874
     7  Na   0.364193   0.251652
 Sum of Mulliken charges =  -0.00000   1.00000

 Dipole moment (field-independent basis, Debye):
    X=              0.5298    Y=             -0.2683    Z=              0.3314  Tot=              0.6801
 Quadrupole moment (field-independent basis, Debye-Ang):
   XX=            -53.9507   YY=            -64.4913   ZZ=            -74.6552
   XY=              0.5355   XZ=              0.3018   YZ=             -0.8510

 Normal termination of Gaussian 16 at Thu Dec  7 20:15:36 2023.
