 Gaussian 16, Revision B.01,
 Gaussian 16:  ES64L-G16RevB.01 20-Dec-2017

 -------------------------
 #P B3LYP/6-311+g(d) force
 -------------------------

 -----
 DPGEN
 -----
 Symbolic Z-matrix:
 Charge =  0 Multiplicity = 2

                         Standard orientation:
 ---------------------------------------------------------------------
 Center     Atomic      Atomic             Coordinates (Angstroms)
 Number     Number       Type             X           Y           Z
 ---------------------------------------------------------------------
      1         11           0       -0.040875   -0.256677    1.691067
      2         11           0       -2.558287    0.798265    0.523036
      3         11           0       -1.875625   -2.415170   -0.353572
      4         11           0        2.234068   -2.023361    0.010981
      5         11           0        0.006511   -0.066209   -1.669309
      6         11           0        2.596951    1.169076    0.221990
      7         11           0       -0.362742    2.794075   -0.424193
 ---------------------------------------------------------------------

 SCF Done:  E(UB3LYP) =  -1136.13440081     A.U. after   19 cycles

 The electronic state is 2-A.
 Alpha  occ. eigenvalues --  -38.43755 -38.43611 -38.43598 -38.43529 -38.43202
 Alpha  occ. eigenvalues --  -38.43077 -38.43030  -2.19627  -2.19515  -2.19493
 Alpha  occ. eigenvalues --   -2.19455  -2.19240  -2.19071  -2.18999  -1.13337
 Alpha  occ. eigenvalues --   -1.13302  -1.13281  -1.13269  -1.13199  -1.13176
 Alpha  occ. eigenvalues --   -1.13160  -1.13156  -1.13128  -1.13127  -1.13101
 Alpha  occ. eigenvalues --   -1.13065  -1.12915  -1.12853  -1.12832  -1.12794
 Alpha  occ. eigenvalues --   -1.12728  -1.12683  -1.12643  -1.12629  -1.12613
 Alpha  occ. eigenvalues --   -0.19437  -0.13290  -0.12653  -0.10893
 Alpha virt. eigenvalues --   -0.05311  -0.05083  -0.04531  -0.03256  -0.02911
 Alpha virt. eigenvalues --   -0.02365  -0.01311  -0.01192  -0.00107  -0.00036
 Alpha virt. eigenvalues --    0.00155   0.00367   0.00893   0.00917   0.00944

  Beta  occ. eigenvalues --  -38.43751 -38.43604 -38.43590 -38.43511 -38.43126
  Beta  occ. eigenvalues --  -38.43067 -38.42953  -2.19624  -2.19506  -2.19463
  Beta  occ. eigenvalues --   -2.19443  -2.19101  -2.18986  -2.18930  -1.13335
  Beta  occ. eigenvalues --   -1.13283  -1.13259  -1.13244  -1.13191  -1.13150
  Beta  occ. eigenvalues --   -1.13148  -1.13123  -1.13118  -1.13094  -1.13088
  Beta  occ. eigenvalues --   -1.13051  -1.12827  -1.12753  -1.12739  -1.12731
  Beta  occ. eigenvalues --   -1.12638  -1.12633  -1.12607  -1.12584  -1.12543
  Beta  occ. eigenvalues --   -0.18713  -0.13004  -0.12371
  Beta virt. eigenvalues --   -0.06935  -0.05308  -0.05056  -0.04506  -0.02425
  Beta virt. eigenvalues --   -0.02146  -0.01320  -0.01233  -0.01105  -0.00099
  Beta virt. eigenvalues --   -0.00025   0.00193   0.00389   0.00893   0.00938

 Mulliken charges and spin densities:
               1          2
     1  Na  -0.181237   0.416493
     2  Na   0.360918   0.111185
     3  Na  -0.053079  -0.069969
     4  Na  -0.025031  -0.105412
     5  Na  -0.359901   0.624701
     6  Na   0.126202   0.018571
     7  Na   0.132127   0.004430
 Sum of Mulliken charges =  -0.00000   1.00000

 Dipole moment (field-independent basis, Debye):
    X=              0.2083    Y=             -0.3550    Z=             -0.0168  Tot=              0.4119
 Quadrupole moment (field-independent basis, Debye-Ang):
   XX=            -58.7523   YY=            -60.3718   ZZ=            -74.0578
   XY=              0.2812   XZ=              0.1342   YZ=              0.5801

 Normal termination of Gaussian 16 at Thu Dec  7 07:40:13 2023.
