 Gaussian 16, Revision B.01,
 Gaussian 16:  ES64L-G16RevB.01 20-Dec-2017

 -------------------------
 #P B3LYP/6-311+g(d) force
 -------------------------

 -----
 DPGEN
 -----
 Symbolic Z-matrix:
 Charge =  0 Multiplicity = 2

                         Standard orientation:
 ---------------------------------------------------------------------
 Center     Atomic      Atomic             Coordinates (Angstroms)
 Number     Number       Type             X           Y           Z
 ---------------------------------------------------------------------
      1         11           0       -2.256932   -1.478561   -0.532847
      2         11           0       -5.776294   -0.462147    1.115706
      3         11           0       -3.750117    2.078730    0.035734
      4         11           0       -0.659141    0.943736   -1.098261
      5         11           0        1.207322   -1.794411   -0.161217
      6         11           0        4.176544    0.157139   -0.112083
      7         11           0        7.058618    0.555514    0.752967
 ---------------------------------------------------------------------

 SCF Done:  E(UB3LYP) =  -1136.11482120     A.U. after   21 cycles

 The electronic state is 2-A.
 Alpha  occ. eigenvalues --  -38.45354 -38.44395 -38.44295 -38.44208 -38.44101
 Alpha  occ. eigenvalues --  -38.44019 -38.43807  -2.21206  -2.20210  -2.20186
 Alpha  occ. eigenvalues --   -2.20042  -2.19925  -2.19815  -2.19628  -1.14969
 Alpha  occ. eigenvalues --   -1.14892  -1.14772  -1.13919  -1.13881  -1.13866
 Alpha  occ. eigenvalues --   -1.13836  -1.13835  -1.13796  -1.13709  -1.13705
 Alpha  occ. eigenvalues --   -1.13658  -1.13604  -1.13582  -1.13566  -1.13471
 Alpha  occ. eigenvalues --   -1.13463  -1.13426  -1.13295  -1.13290  -1.13260
 Alpha  occ. eigenvalues --   -0.17109  -0.14158  -0.12305  -0.10908
 Alpha virt. eigenvalues --   -0.07341  -0.05143  -0.04149  -0.04045  -0.02809
 Alpha virt. eigenvalues --   -0.02659  -0.02484  -0.01564  -0.01205  -0.00938
 Alpha virt. eigenvalues --   -0.00375  -0.00080   0.00048   0.00351   0.00548

  Beta  occ. eigenvalues --  -38.45336 -38.44397 -38.44235 -38.44187 -38.44068
  Beta  occ. eigenvalues --  -38.43964 -38.43806  -2.21176  -2.20189  -2.20103
  Beta  occ. eigenvalues --   -2.20001  -2.19869  -2.19711  -2.19627  -1.14925
  Beta  occ. eigenvalues --   -1.14874  -1.14750  -1.13883  -1.13853  -1.13838
  Beta  occ. eigenvalues --   -1.13837  -1.13797  -1.13706  -1.13681  -1.13666
  Beta  occ. eigenvalues --   -1.13624  -1.13572  -1.13544  -1.13492  -1.13399
  Beta  occ. eigenvalues --   -1.13388  -1.13362  -1.13291  -1.13289  -1.13261
  Beta  occ. eigenvalues --   -0.16489  -0.13925  -0.12100
  Beta virt. eigenvalues --   -0.07331  -0.06964  -0.04598  -0.03964  -0.03847
  Beta virt. eigenvalues --   -0.02590  -0.02406  -0.01895  -0.01482  -0.01093
  Beta virt. eigenvalues --   -0.00608   0.00009   0.00133   0.00155   0.00474

 Mulliken charges and spin densities:
               1          2
     1  Na  -0.032599   0.095087
     2  Na   0.333717   0.331879
     3  Na  -0.015189   0.021361
     4  Na  -0.322270   0.433903
     5  Na   0.044307   0.148451
     6  Na  -0.189629  -0.048738
     7  Na   0.181662   0.018058
 Sum of Mulliken charges =  -0.00000   1.00000

 Dipole moment (field-independent basis, Debye):
    X=              0.0229    Y=             -0.1349    Z=              0.0984  Tot=              0.1686
 Quadrupole moment (field-independent basis, Debye-Ang):
   XX=            -57.9371   YY=            -67.9668   ZZ=            -71.7952
   XY=              0.4873   XZ=              1.4691   YZ=              0.7932

 Normal termination of Gaussian 16 at Wed Nov 29 02:47:51 2023.
