 Gaussian 16, Revision B.01,
 Gaussian 16:  ES64L-G16RevB.01 20-Dec-2017

 -------------------------
 #P B3LYP/6-311+g(d) force
 -------------------------

 -----
 DPGEN
 -----
 Symbolic Z-matrix:
 Charge =  0 Multiplicity = 2

                         Standard orientation:
 ---------------------------------------------------------------------
 Center     Atomic      Atomic             Coordinates (Angstroms)
 Number     Number       Type             X           Y           Z
 ---------------------------------------------------------------------
      1         11           0       -4.094972   -0.141698    0.908327
      2         11           0       -0.551939   -0.266635    1.110742
      3         11           0        2.094954   -0.164103   -1.460568
      4         11           0        1.006493    2.881166   -0.289059
      5         11           0        0.824613   -2.848306   -0.612813
      6         11           0       -1.995942    0.509400   -1.539628
      7         11           0        2.716793    0.030176    1.883000
 ---------------------------------------------------------------------

 SCF Done:  E(UB3LYP) =  -1136.12515286     A.U. after   22 cycles

 The electronic state is 2-A.
 Alpha  occ. eigenvalues --  -38.44670 -38.44596 -38.44410 -38.43836 -38.43704
 Alpha  occ. eigenvalues --  -38.42705 -38.42631  -2.20474  -2.20437  -2.20264
 Alpha  occ. eigenvalues --   -2.19763  -2.19657  -2.18514  -2.18486  -1.14145
 Alpha  occ. eigenvalues --   -1.14123  -1.14119  -1.14114  -1.14079  -1.14025
 Alpha  occ. eigenvalues --   -1.13996  -1.13899  -1.13863  -1.13450  -1.13429
 Alpha  occ. eigenvalues --   -1.13391  -1.13384  -1.13298  -1.13269  -1.12193
 Alpha  occ. eigenvalues --   -1.12178  -1.12173  -1.12150  -1.12145  -1.12108
 Alpha  occ. eigenvalues --   -0.18201  -0.13642  -0.11301  -0.11188
 Alpha virt. eigenvalues --   -0.06381  -0.05187  -0.04083  -0.03277  -0.02724
 Alpha virt. eigenvalues --   -0.02469  -0.02237  -0.01163  -0.00690  -0.00077
 Alpha virt. eigenvalues --    0.00022   0.00211   0.00263   0.00697   0.00836

  Beta  occ. eigenvalues --  -38.44655 -38.44521 -38.44386 -38.43803 -38.43677
  Beta  occ. eigenvalues --  -38.42702 -38.42621  -2.20445  -2.20297  -2.20222
  Beta  occ. eigenvalues --   -2.19705  -2.19611  -2.18510  -2.18471  -1.14124
  Beta  occ. eigenvalues --   -1.14104  -1.14094  -1.14013  -1.13990  -1.13970
  Beta  occ. eigenvalues --   -1.13931  -1.13869  -1.13819  -1.13410  -1.13369
  Beta  occ. eigenvalues --   -1.13347  -1.13322  -1.13274  -1.13236  -1.12186
  Beta  occ. eigenvalues --   -1.12176  -1.12154  -1.12138  -1.12136  -1.12091
  Beta  occ. eigenvalues --   -0.17498  -0.13392  -0.11081
  Beta virt. eigenvalues --   -0.07447  -0.06120  -0.04611  -0.03991  -0.03200
  Beta virt. eigenvalues --   -0.02165  -0.01942  -0.01759  -0.00666  -0.00595
  Beta virt. eigenvalues --   -0.00030   0.00227   0.00267   0.00360   0.00768

 Mulliken charges and spin densities:
               1          2
     1  Na   0.554823   0.152909
     2  Na  -0.971793   0.153034
     3  Na   0.311838   0.341480
     4  Na  -0.217907   0.091351
     5  Na  -0.201245   0.062051
     6  Na  -0.017524   0.114562
     7  Na   0.541808   0.084613
 Sum of Mulliken charges =  -0.00000   1.00000

 Dipole moment (field-independent basis, Debye):
    X=             -0.8908    Y=             -0.0206    Z=              0.2203  Tot=              0.9178
 Quadrupole moment (field-independent basis, Debye-Ang):
   XX=            -52.1483   YY=            -73.6224   ZZ=            -66.4308
   XY=              0.3482   XZ=             -0.0792   YZ=             -0.7938

 Normal termination of Gaussian 16 at Fri Dec  8 01:33:42 2023.
