 Gaussian 16, Revision B.01,
 Gaussian 16:  ES64L-G16RevB.01 20-Dec-2017

 -------------------------
 #P B3LYP/6-311+g(d) force
 -------------------------

 -----
 DPGEN
 -----
 Symbolic Z-matrix:
 Charge =  0 Multiplicity = 2

                         Standard orientation:
 ---------------------------------------------------------------------
 Center     Atomic      Atomic             Coordinates (Angstroms)
 Number     Number       Type             X           Y           Z
 ---------------------------------------------------------------------
      1         11           0       -3.082979   -2.383211   -0.062831
      2         11           0        2.818943    1.671546   -0.185670
      3         11           0        0.142022   -2.629562   -0.723523
      4         11           0       -3.378839    1.471747    0.234828
      5         11           0        0.429788    0.300630    1.421517
      6         11           0       -0.438105    3.128159   -0.764156
      7         11           0        3.509170   -1.559308    0.079836
 ---------------------------------------------------------------------

 SCF Done:  E(UB3LYP) =  -1136.11997976     A.U. after   24 cycles

 The electronic state is 2-A.
 Alpha  occ. eigenvalues --  -38.45945 -38.44292 -38.44214 -38.44070 -38.44047
 Alpha  occ. eigenvalues --  -38.43303 -38.43076  -2.21760  -2.20166  -2.20004
 Alpha  occ. eigenvalues --   -2.19891  -2.19850  -2.19158  -2.18894  -1.15469
 Alpha  occ. eigenvalues --   -1.15423  -1.15372  -1.13856  -1.13831  -1.13786
 Alpha  occ. eigenvalues --   -1.13683  -1.13670  -1.13643  -1.13570  -1.13568
 Alpha  occ. eigenvalues --   -1.13540  -1.13513  -1.13496  -1.13486  -1.12821
 Alpha  occ. eigenvalues --   -1.12808  -1.12775  -1.12553  -1.12526  -1.12520
 Alpha  occ. eigenvalues --   -0.17309  -0.13657  -0.13120  -0.09496
 Alpha virt. eigenvalues --   -0.06758  -0.06516  -0.04187  -0.03009  -0.02870
 Alpha virt. eigenvalues --   -0.02589  -0.02264  -0.01675  -0.00845  -0.00679
 Alpha virt. eigenvalues --    0.00036   0.00170   0.00357   0.00393   0.00693

  Beta  occ. eigenvalues --  -38.45951 -38.44266 -38.44193 -38.44054 -38.44040
  Beta  occ. eigenvalues --  -38.43246 -38.42997  -2.21771  -2.20123  -2.19969
  Beta  occ. eigenvalues --   -2.19866  -2.19844  -2.19050  -2.18746  -1.15475
  Beta  occ. eigenvalues --   -1.15430  -1.15389  -1.13832  -1.13806  -1.13720
  Beta  occ. eigenvalues --   -1.13655  -1.13640  -1.13611  -1.13557  -1.13556
  Beta  occ. eigenvalues --   -1.13542  -1.13516  -1.13449  -1.13435  -1.12748
  Beta  occ. eigenvalues --   -1.12734  -1.12704  -1.12452  -1.12429  -1.12420
  Beta  occ. eigenvalues --   -0.17051  -0.12995  -0.12412
  Beta virt. eigenvalues --   -0.06644  -0.06512  -0.06224  -0.03974  -0.02682
  Beta virt. eigenvalues --   -0.02578  -0.02087  -0.02027  -0.01220  -0.00759
  Beta virt. eigenvalues --   -0.00595   0.00240   0.00339   0.00473   0.00638

 Mulliken charges and spin densities:
               1          2
     1  Na   0.091875   0.047803
     2  Na  -0.062147   0.150473
     3  Na  -0.306997   0.085306
     4  Na  -0.108668   0.488897
     5  Na   0.083263  -0.180283
     6  Na   0.031968   0.025365
     7  Na   0.270705   0.382440
 Sum of Mulliken charges =  -0.00000   1.00000

 Dipole moment (field-independent basis, Debye):
    X=              0.7664    Y=              0.0893    Z=             -0.0890  Tot=              0.7767
 Quadrupole moment (field-independent basis, Debye-Ang):
   XX=            -67.0461   YY=            -72.0852   ZZ=            -66.0855
   XY=              6.8572   XZ=             -1.1902   YZ=             -2.1112

 Normal termination of Gaussian 16 at Mon Dec  4 04:12:44 2023.
