 Gaussian 16, Revision B.01,
 Gaussian 16:  ES64L-G16RevB.01 20-Dec-2017

 -------------------------
 #P B3LYP/6-311+g(d) force
 -------------------------

 -----
 DPGEN
 -----
 Symbolic Z-matrix:
 Charge =  0 Multiplicity = 2

                         Standard orientation:
 ---------------------------------------------------------------------
 Center     Atomic      Atomic             Coordinates (Angstroms)
 Number     Number       Type             X           Y           Z
 ---------------------------------------------------------------------
      1         11           0       -0.569363    0.498618    1.003102
      2         11           0       -1.719741    3.305145   -0.611446
      3         11           0        1.380921   -2.730372    0.137120
      4         11           0       -1.918639   -2.638245   -0.817171
      5         11           0        2.313375    2.703455   -0.053603
      6         11           0       -3.978919   -0.417573    0.430866
      7         11           0        4.492365   -0.721027   -0.088867
 ---------------------------------------------------------------------

 SCF Done:  E(UB3LYP) =  -1136.11747820     A.U. after   23 cycles

 The electronic state is 2-A.
 Alpha  occ. eigenvalues --  -38.45463 -38.45023 -38.44792 -38.44303 -38.43695
 Alpha  occ. eigenvalues --  -38.43465 -38.43368  -2.21186  -2.20780  -2.20612
 Alpha  occ. eigenvalues --   -2.20129  -2.19471  -2.19274  -2.19215  -1.14890
 Alpha  occ. eigenvalues --   -1.14865  -1.14792  -1.14458  -1.14445  -1.14404
 Alpha  occ. eigenvalues --   -1.14323  -1.14274  -1.14218  -1.13809  -1.13790
 Alpha  occ. eigenvalues --   -1.13780  -1.13133  -1.13112  -1.13097  -1.12953
 Alpha  occ. eigenvalues --   -1.12938  -1.12897  -1.12868  -1.12854  -1.12836
 Alpha  occ. eigenvalues --   -0.16659  -0.13377  -0.12969  -0.09919
 Alpha virt. eigenvalues --   -0.06799  -0.06279  -0.04187  -0.03405  -0.02774
 Alpha virt. eigenvalues --   -0.02567  -0.02369  -0.01631  -0.01158  -0.00537
 Alpha virt. eigenvalues --   -0.00302  -0.00041   0.00469   0.00554   0.00588

  Beta  occ. eigenvalues --  -38.45463 -38.45014 -38.44788 -38.44288 -38.43632
  Beta  occ. eigenvalues --  -38.43432 -38.43294  -2.21188  -2.20765  -2.20605
  Beta  occ. eigenvalues --   -2.20108  -2.19352  -2.19216  -2.19076  -1.14894
  Beta  occ. eigenvalues --   -1.14870  -1.14769  -1.14448  -1.14437  -1.14388
  Beta  occ. eigenvalues --   -1.14316  -1.14270  -1.14214  -1.13801  -1.13779
  Beta  occ. eigenvalues --   -1.13716  -1.13052  -1.13030  -1.13017  -1.12916
  Beta  occ. eigenvalues --   -1.12899  -1.12838  -1.12772  -1.12765  -1.12743
  Beta  occ. eigenvalues --   -0.16286  -0.12709  -0.12412
  Beta virt. eigenvalues --   -0.06873  -0.06629  -0.06119  -0.03878  -0.02805
  Beta virt. eigenvalues --   -0.02496  -0.02326  -0.01994  -0.01514  -0.01028
  Beta virt. eigenvalues --   -0.00458   0.00067   0.00288   0.00475   0.00617

 Mulliken charges and spin densities:
               1          2
     1  Na  -0.791935  -0.051068
     2  Na   0.213097  -0.001570
     3  Na   0.045871   0.121476
     4  Na   0.160155  -0.012203
     5  Na   0.157002   0.064962
     6  Na   0.262212   0.481624
     7  Na  -0.046402   0.396779
 Sum of Mulliken charges =  -0.00000   1.00000

 Dipole moment (field-independent basis, Debye):
    X=             -0.8002    Y=              1.3230    Z=             -0.5559  Tot=              1.6430
 Quadrupole moment (field-independent basis, Debye-Ang):
   XX=            -72.7288   YY=            -59.8108   ZZ=            -69.2738
   XY=             -1.7447   XZ=              2.4268   YZ=             -0.7741

 Normal termination of Gaussian 16 at Mon Dec  4 01:34:46 2023.
