 Gaussian 16, Revision B.01,
 Gaussian 16:  ES64L-G16RevB.01 20-Dec-2017

 -------------------------
 #P B3LYP/6-311+g(d) force
 -------------------------

 -----
 DPGEN
 -----
 Symbolic Z-matrix:
 Charge =  0 Multiplicity = 2

                         Standard orientation:
 ---------------------------------------------------------------------
 Center     Atomic      Atomic             Coordinates (Angstroms)
 Number     Number       Type             X           Y           Z
 ---------------------------------------------------------------------
      1         11           0        0.975420   -1.503484   -0.304000
      2         11           0       -0.598383    0.313413   -1.730500
      3         11           0       -0.572282   -0.559287    1.840400
      4         11           0       -2.187780   -1.454189   -0.268300
      5         11           0       -2.095386    1.633711    0.247500
      6         11           0        1.010815    1.574316    0.203200
      7         11           0        3.467597   -0.004480    0.011700
 ---------------------------------------------------------------------

 SCF Done:  E(UB3LYP) =  -1136.08433122     A.U. after   22 cycles

 The electronic state is 2-A.
 Alpha  occ. eigenvalues --  -38.45302 -38.44428 -38.44165 -38.43735 -38.43333
 Alpha  occ. eigenvalues --  -38.43126 -38.42943  -2.21201  -2.20677  -2.20315
 Alpha  occ. eigenvalues --   -2.19839  -2.19399  -2.19318  -2.19092  -1.14916
 Alpha  occ. eigenvalues --   -1.14882  -1.14812  -1.14457  -1.14403  -1.14336
 Alpha  occ. eigenvalues --   -1.14114  -1.14027  -1.13913  -1.13496  -1.13449
 Alpha  occ. eigenvalues --   -1.13415  -1.13096  -1.13053  -1.13039  -1.13003
 Alpha  occ. eigenvalues --   -1.12971  -1.12889  -1.12792  -1.12733  -1.12657
 Alpha  occ. eigenvalues --   -0.21199  -0.14449  -0.12131  -0.11780
 Alpha virt. eigenvalues --   -0.06544  -0.04238  -0.03846  -0.03454  -0.02570
 Alpha virt. eigenvalues --   -0.02546  -0.02014  -0.00595  -0.00148   0.00192
 Alpha virt. eigenvalues --    0.00484   0.00614   0.00818   0.00935   0.01041

  Beta  occ. eigenvalues --  -38.45310 -38.44337 -38.44076 -38.43715 -38.43318
  Beta  occ. eigenvalues --  -38.43102 -38.42924  -2.21217  -2.20513  -2.20155
  Beta  occ. eigenvalues --   -2.19811  -2.19377  -2.19283  -2.19064  -1.14926
  Beta  occ. eigenvalues --   -1.14895  -1.14812  -1.14363  -1.14285  -1.14209
  Beta  occ. eigenvalues --   -1.14024  -1.13914  -1.13791  -1.13460  -1.13408
  Beta  occ. eigenvalues --   -1.13371  -1.13085  -1.13023  -1.13004  -1.12974
  Beta  occ. eigenvalues --   -1.12881  -1.12873  -1.12776  -1.12661  -1.12645
  Beta  occ. eigenvalues --   -0.20352  -0.14198  -0.11535
  Beta virt. eigenvalues --   -0.07791  -0.06419  -0.04241  -0.03242  -0.03012
  Beta virt. eigenvalues --   -0.01996  -0.01837  -0.01491  -0.00544   0.00040
  Beta virt. eigenvalues --    0.00232   0.00503   0.00591   0.00969   0.01027

 Mulliken charges and spin densities:
               1          2
     1  Na  -0.003252   0.133013
     2  Na  -0.053595   0.372069
     3  Na  -0.095501   0.473353
     4  Na   0.421295  -0.008902
     5  Na   0.169560   0.040653
     6  Na  -0.158376   0.147149
     7  Na  -0.280132  -0.157337
 Sum of Mulliken charges =  -0.00000   1.00000

 Dipole moment (field-independent basis, Debye):
    X=              0.7225    Y=              0.0250    Z=              0.2714  Tot=              0.7722
 Quadrupole moment (field-independent basis, Debye-Ang):
   XX=            -49.2630   YY=            -76.1668   ZZ=            -68.8290
   XY=             -0.0158   XZ=             -0.0356   YZ=              1.6229

 Normal termination of Gaussian 16 at Fri Dec  8 18:16:30 2023.
