 Gaussian 16, Revision B.01,
 Gaussian 16:  ES64L-G16RevB.01 20-Dec-2017

 -------------------------
 #P B3LYP/6-311+g(d) force
 -------------------------

 -----
 DPGEN
 -----
 Symbolic Z-matrix:
 Charge =  0 Multiplicity = 2

                         Standard orientation:
 ---------------------------------------------------------------------
 Center     Atomic      Atomic             Coordinates (Angstroms)
 Number     Number       Type             X           Y           Z
 ---------------------------------------------------------------------
      1         11           0       -2.213985    2.172887   -0.007862
      2         11           0        2.960149   -0.985199   -0.023376
      3         11           0        0.256890   -2.587915    0.623325
      4         11           0       -2.741294   -1.501046   -0.256121
      5         11           0       -0.089001    0.805840    1.808138
      6         11           0        0.023618   -0.319901   -1.807658
      7         11           0        1.803623    2.415334   -0.336444
 ---------------------------------------------------------------------

 SCF Done:  E(UB3LYP) =  -1136.13701860     A.U. after   18 cycles

 The electronic state is 2-A.
 Alpha  occ. eigenvalues --  -38.43996 -38.43860 -38.43820 -38.43763 -38.43348
 Alpha  occ. eigenvalues --  -38.43330 -38.43107  -2.19826  -2.19694  -2.19668
 Alpha  occ. eigenvalues --   -2.19603  -2.19288  -2.19265  -2.19018  -1.13546
 Alpha  occ. eigenvalues --   -1.13481  -1.13448  -1.13386  -1.13366  -1.13356
 Alpha  occ. eigenvalues --   -1.13335  -1.13326  -1.13290  -1.13285  -1.13273
 Alpha  occ. eigenvalues --   -1.13235  -1.12977  -1.12930  -1.12921  -1.12903
 Alpha  occ. eigenvalues --   -1.12895  -1.12890  -1.12689  -1.12667  -1.12654
 Alpha  occ. eigenvalues --   -0.18698  -0.12927  -0.12665  -0.10731
 Alpha virt. eigenvalues --   -0.05684  -0.05271  -0.04497  -0.03187  -0.03122
 Alpha virt. eigenvalues --   -0.02434  -0.01448  -0.01242  -0.00370  -0.00155
 Alpha virt. eigenvalues --    0.00011   0.00367   0.00797   0.00841   0.00943

  Beta  occ. eigenvalues --  -38.43992 -38.43851 -38.43817 -38.43757 -38.43274
  Beta  occ. eigenvalues --  -38.43260 -38.43088  -2.19822  -2.19681  -2.19666
  Beta  occ. eigenvalues --   -2.19596  -2.19153  -2.19136  -2.18987  -1.13533
  Beta  occ. eigenvalues --   -1.13466  -1.13448  -1.13376  -1.13357  -1.13338
  Beta  occ. eigenvalues --   -1.13324  -1.13307  -1.13287  -1.13280  -1.13251
  Beta  occ. eigenvalues --   -1.13232  -1.12888  -1.12843  -1.12830  -1.12805
  Beta  occ. eigenvalues --   -1.12801  -1.12795  -1.12668  -1.12642  -1.12612
  Beta  occ. eigenvalues --   -0.17978  -0.12678  -0.12433
  Beta virt. eigenvalues --   -0.06861  -0.05680  -0.05199  -0.04421  -0.02422
  Beta virt. eigenvalues --   -0.02371  -0.01428  -0.01355  -0.01184  -0.00411
  Beta virt. eigenvalues --   -0.00140   0.00130   0.00393   0.00812   0.00889

 Mulliken charges and spin densities:
               1          2
     1  Na   0.095123  -0.145709
     2  Na   0.092987  -0.038106
     3  Na   0.087863   0.109830
     4  Na   0.093092  -0.008656
     5  Na  -0.160818   0.565493
     6  Na  -0.260154   0.628468
     7  Na   0.051906  -0.111320
 Sum of Mulliken charges =  -0.00000   1.00000

 Dipole moment (field-independent basis, Debye):
    X=             -0.0539    Y=              0.3373    Z=             -0.1147  Tot=              0.3604
 Quadrupole moment (field-independent basis, Debye-Ang):
   XX=            -56.5350   YY=            -63.1628   ZZ=            -73.9312
   XY=              0.1795   XZ=              0.3530   YZ=             -2.1325

 Normal termination of Gaussian 16 at Thu Dec  7 01:42:53 2023.
