 Gaussian 16, Revision B.01,
 Gaussian 16:  ES64L-G16RevB.01 20-Dec-2017

 -------------------------
 #P B3LYP/6-311+g(d) force
 -------------------------

 -----
 DPGEN
 -----
 Symbolic Z-matrix:
 Charge =  0 Multiplicity = 2

                         Standard orientation:
 ---------------------------------------------------------------------
 Center     Atomic      Atomic             Coordinates (Angstroms)
 Number     Number       Type             X           Y           Z
 ---------------------------------------------------------------------
      1         11           0        0.713212    3.003033   -0.095111
      2         11           0        4.039137    1.573311    0.569821
      3         11           0       -4.373655   -0.423750   -0.402622
      4         11           0        0.684796   -2.620321   -0.212231
      5         11           0        4.451191   -1.356008   -0.526870
      6         11           0       -2.254737   -3.078299    0.666810
      7         11           0       -3.259944    2.902034    0.000203
 ---------------------------------------------------------------------

 SCF Done:  E(UB3LYP) =  -1136.10697358     A.U. after   22 cycles

 The electronic state is 2-A.
 Alpha  occ. eigenvalues --  -38.45156 -38.45048 -38.44856 -38.44592 -38.44264
 Alpha  occ. eigenvalues --  -38.44253 -38.43993  -2.20945  -2.20834  -2.20636
 Alpha  occ. eigenvalues --   -2.20327  -2.20073  -2.20034  -2.19811  -1.14626
 Alpha  occ. eigenvalues --   -1.14616  -1.14597  -1.14510  -1.14496  -1.14470
 Alpha  occ. eigenvalues --   -1.14305  -1.14286  -1.14260  -1.14016  -1.13999
 Alpha  occ. eigenvalues --   -1.13972  -1.13724  -1.13715  -1.13700  -1.13695
 Alpha  occ. eigenvalues --   -1.13688  -1.13639  -1.13485  -1.13464  -1.13454
 Alpha  occ. eigenvalues --   -0.15645  -0.14193  -0.13002  -0.10853
 Alpha virt. eigenvalues --   -0.07718  -0.04924  -0.04630  -0.03603  -0.03366
 Alpha virt. eigenvalues --   -0.02698  -0.02145  -0.01898  -0.01131  -0.00659
 Alpha virt. eigenvalues --   -0.00580  -0.00286  -0.00100   0.00431   0.00542

  Beta  occ. eigenvalues --  -38.45149 -38.45016 -38.44805 -38.44608 -38.44192
  Beta  occ. eigenvalues --  -38.44183 -38.43985  -2.20939  -2.20779  -2.20542
  Beta  occ. eigenvalues --   -2.20362  -2.19961  -2.19885  -2.19800  -1.14623
  Beta  occ. eigenvalues --   -1.14614  -1.14551  -1.14469  -1.14460  -1.14421
  Beta  occ. eigenvalues --   -1.14241  -1.14224  -1.14195  -1.14042  -1.14025
  Beta  occ. eigenvalues --   -1.13971  -1.13648  -1.13638  -1.13625  -1.13593
  Beta  occ. eigenvalues --   -1.13587  -1.13541  -1.13466  -1.13459  -1.13441
  Beta  occ. eigenvalues --   -0.15083  -0.13563  -0.12376
  Beta virt. eigenvalues --   -0.07828  -0.07575  -0.04581  -0.04076  -0.03425
  Beta virt. eigenvalues --   -0.02943  -0.02497  -0.02031  -0.01742  -0.00974
  Beta virt. eigenvalues --   -0.00365  -0.00296  -0.00141   0.00197   0.00471

 Mulliken charges and spin densities:
               1          2
     1  Na  -0.362786   0.366211
     2  Na   0.235522   0.009968
     3  Na  -0.133153   0.265991
     4  Na  -0.514585   0.242692
     5  Na   0.268072   0.291246
     6  Na   0.372862  -0.113992
     7  Na   0.134066  -0.062116
 Sum of Mulliken charges =  -0.00000   1.00000

 Dipole moment (field-independent basis, Debye):
    X=              0.1836    Y=             -0.3919    Z=              0.0316  Tot=              0.4339
 Quadrupole moment (field-independent basis, Debye-Ang):
   XX=            -60.3182   YY=            -67.5134   ZZ=            -72.5112
   XY=              2.7778   XZ=             -0.0599   YZ=              1.7182

 Normal termination of Gaussian 16 at Sun Dec  3 12:48:51 2023.
