 Gaussian 16, Revision B.01,
 Gaussian 16:  ES64L-G16RevB.01 20-Dec-2017

 -------------------------
 #P B3LYP/6-311+g(d) force
 -------------------------

 -----
 DPGEN
 -----
 Symbolic Z-matrix:
 Charge =  0 Multiplicity = 2

                         Standard orientation:
 ---------------------------------------------------------------------
 Center     Atomic      Atomic             Coordinates (Angstroms)
 Number     Number       Type             X           Y           Z
 ---------------------------------------------------------------------
      1         11           0       -0.152411   -1.827091    1.460675
      2         11           0       -0.503976   -1.603753   -1.592452
      3         11           0       -3.229874   -0.812734    0.133731
      4         11           0       -1.359601    1.703899   -1.731345
      5         11           0        1.775841    1.031936   -0.239038
      6         11           0       -1.143900    1.768776    1.938167
      7         11           0        4.613921   -0.261032    0.030261
 ---------------------------------------------------------------------

 SCF Done:  E(UB3LYP) =  -1136.11903756     A.U. after   23 cycles

 The electronic state is 2-A.
 Alpha  occ. eigenvalues --  -38.45221 -38.45048 -38.43819 -38.43780 -38.43742
 Alpha  occ. eigenvalues --  -38.43274 -38.42952  -2.21054  -2.20812  -2.19703
 Alpha  occ. eigenvalues --   -2.19688  -2.19573  -2.19142  -2.18825  -1.14741
 Alpha  occ. eigenvalues --   -1.14713  -1.14675  -1.14492  -1.14469  -1.14451
 Alpha  occ. eigenvalues --   -1.13485  -1.13362  -1.13343  -1.13329  -1.13306
 Alpha  occ. eigenvalues --   -1.13259  -1.13241  -1.13220  -1.13181  -1.12825
 Alpha  occ. eigenvalues --   -1.12794  -1.12750  -1.12518  -1.12513  -1.12441
 Alpha  occ. eigenvalues --   -0.18430  -0.12964  -0.11923  -0.11256
 Alpha virt. eigenvalues --   -0.07398  -0.04052  -0.03946  -0.03341  -0.03292
 Alpha virt. eigenvalues --   -0.02848  -0.02641  -0.00963  -0.00667  -0.00141
 Alpha virt. eigenvalues --   -0.00091  -0.00021   0.00255   0.00762   0.00980

  Beta  occ. eigenvalues --  -38.45211 -38.45058 -38.43786 -38.43736 -38.43677
  Beta  occ. eigenvalues --  -38.43227 -38.42944  -2.21039  -2.20831  -2.19632
  Beta  occ. eigenvalues --   -2.19619  -2.19454  -2.19058  -2.18813  -1.14713
  Beta  occ. eigenvalues --   -1.14690  -1.14672  -1.14506  -1.14481  -1.14464
  Beta  occ. eigenvalues --   -1.13441  -1.13295  -1.13295  -1.13277  -1.13252
  Beta  occ. eigenvalues --   -1.13203  -1.13157  -1.13137  -1.13097  -1.12761
  Beta  occ. eigenvalues --   -1.12738  -1.12683  -1.12512  -1.12482  -1.12438
  Beta  occ. eigenvalues --   -0.17549  -0.12913  -0.11133
  Beta virt. eigenvalues --   -0.07739  -0.07250  -0.03887  -0.03317  -0.03159
  Beta virt. eigenvalues --   -0.02732  -0.02602  -0.01862  -0.00926  -0.00386
  Beta virt. eigenvalues --   -0.00094  -0.00012   0.00118   0.00264   0.00820

 Mulliken charges and spin densities:
               1          2
     1  Na  -0.037790   0.355200
     2  Na   0.233707   0.289158
     3  Na   0.325928   0.001024
     4  Na   0.048731   0.107831
     5  Na  -0.545612   0.128184
     6  Na  -0.210272   0.258643
     7  Na   0.185309  -0.140039
 Sum of Mulliken charges =  -0.00000   1.00000

 Dipole moment (field-independent basis, Debye):
    X=             -0.2330    Y=             -0.4852    Z=              0.2308  Tot=              0.5856
 Quadrupole moment (field-independent basis, Debye-Ang):
   XX=            -48.6385   YY=            -77.7904   ZZ=            -66.1497
   XY=             -2.4849   XZ=              0.4549   YZ=              0.2601

 Normal termination of Gaussian 16 at Thu Dec  7 13:42:18 2023.
