 Gaussian 16, Revision B.01,
 Gaussian 16:  ES64L-G16RevB.01 20-Dec-2017

 -------------------------
 #P B3LYP/6-311+g(d) force
 -------------------------

 -----
 DPGEN
 -----
 Symbolic Z-matrix:
 Charge =  0 Multiplicity = 2

                         Standard orientation:
 ---------------------------------------------------------------------
 Center     Atomic      Atomic             Coordinates (Angstroms)
 Number     Number       Type             X           Y           Z
 ---------------------------------------------------------------------
      1         11           0       -1.770753   -2.356549   -0.515029
      2         11           0       -0.160840    2.847363    0.091029
      3         11           0       -0.137339   -0.360083    2.016700
      4         11           0        1.780351   -2.218600   -0.035670
      5         11           0        0.166399    0.517554   -1.482496
      6         11           0        3.406732    0.785678   -0.082943
      7         11           0       -3.284550    0.784637    0.008409
 ---------------------------------------------------------------------

 SCF Done:  E(UB3LYP) =  -1136.13213270     A.U. after   19 cycles

 The electronic state is 2-A.
 Alpha  occ. eigenvalues --  -38.44675 -38.44672 -38.43533 -38.43378 -38.43327
 Alpha  occ. eigenvalues --  -38.43321 -38.43260  -2.20463  -2.20461  -2.19406
 Alpha  occ. eigenvalues --   -2.19252  -2.19247  -2.19215  -2.19168  -1.14137
 Alpha  occ. eigenvalues --   -1.14136  -1.14122  -1.14119  -1.14102  -1.14101
 Alpha  occ. eigenvalues --   -1.13312  -1.13052  -1.12993  -1.12969  -1.12932
 Alpha  occ. eigenvalues --   -1.12903  -1.12883  -1.12871  -1.12854  -1.12844
 Alpha  occ. eigenvalues --   -1.12833  -1.12823  -1.12820  -1.12811  -1.12800
 Alpha  occ. eigenvalues --   -0.18497  -0.13124  -0.12316  -0.10400
 Alpha virt. eigenvalues --   -0.06362  -0.05102  -0.04496  -0.03067  -0.02805
 Alpha virt. eigenvalues --   -0.02248  -0.02119  -0.01143  -0.00482  -0.00334
 Alpha virt. eigenvalues --   -0.00033   0.00296   0.00763   0.00816   0.00863

  Beta  occ. eigenvalues --  -38.44674 -38.44671 -38.43527 -38.43371 -38.43314
  Beta  occ. eigenvalues --  -38.43224 -38.43210  -2.20465  -2.20461  -2.19398
  Beta  occ. eigenvalues --   -2.19238  -2.19164  -2.19145  -2.19035  -1.14130
  Beta  occ. eigenvalues --   -1.14122  -1.14117  -1.14117  -1.14105  -1.14102
  Beta  occ. eigenvalues --   -1.13286  -1.13023  -1.12990  -1.12947  -1.12889
  Beta  occ. eigenvalues --   -1.12879  -1.12853  -1.12823  -1.12803  -1.12786
  Beta  occ. eigenvalues --   -1.12783  -1.12762  -1.12757  -1.12702  -1.12700
  Beta  occ. eigenvalues --   -0.17789  -0.12922  -0.12076
  Beta virt. eigenvalues --   -0.06515  -0.06316  -0.05090  -0.04432  -0.02367
  Beta virt. eigenvalues --   -0.02052  -0.02013  -0.01217  -0.01084  -0.00501
  Beta virt. eigenvalues --   -0.00364   0.00126   0.00335   0.00813   0.00827

 Mulliken charges and spin densities:
               1          2
     1  Na   0.027670   0.034795
     2  Na   0.161785  -0.100025
     3  Na  -0.417538   0.719571
     4  Na   0.260825   0.023001
     5  Na  -0.284791   0.410137
     6  Na   0.125027  -0.070151
     7  Na   0.127022  -0.017328
 Sum of Mulliken charges =  -0.00000   1.00000

 Dipole moment (field-independent basis, Debye):
    X=              0.0394    Y=              0.2656    Z=              0.1791  Tot=              0.3228
 Quadrupole moment (field-independent basis, Debye-Ang):
   XX=            -50.4636   YY=            -65.1175   ZZ=            -76.1275
   XY=              0.0969   XZ=              0.3895   YZ=              1.9465

 Normal termination of Gaussian 16 at Tue Dec  5 23:08:44 2023.
