 Gaussian 16, Revision B.01,
 Gaussian 16:  ES64L-G16RevB.01 20-Dec-2017

 -------------------------
 #P B3LYP/6-311+g(d) force
 -------------------------

 -----
 DPGEN
 -----
 Symbolic Z-matrix:
 Charge =  0 Multiplicity = 2

                         Standard orientation:
 ---------------------------------------------------------------------
 Center     Atomic      Atomic             Coordinates (Angstroms)
 Number     Number       Type             X           Y           Z
 ---------------------------------------------------------------------
      1         11           0       -2.851254   -0.117935    1.527646
      2         11           0       -0.706407    2.644527   -0.448553
      3         11           0        3.552087   -0.653662    0.086772
      4         11           0       -2.594531   -1.109859   -1.744331
      5         11           0        1.487043    0.990066   -1.500397
      6         11           0        0.710949    0.669726    1.943169
      7         11           0        0.402112   -2.422864    0.135694
 ---------------------------------------------------------------------

 SCF Done:  E(UB3LYP) =  -1136.12597338     A.U. after   21 cycles

 The electronic state is 2-A.
 Alpha  occ. eigenvalues --  -38.44639 -38.44359 -38.44233 -38.44035 -38.43808
 Alpha  occ. eigenvalues --  -38.43576 -38.42699  -2.20431  -2.20203  -2.20026
 Alpha  occ. eigenvalues --   -2.19928  -2.19603  -2.19524  -2.18573  -1.14108
 Alpha  occ. eigenvalues --   -1.14085  -1.14068  -1.13919  -1.13855  -1.13823
 Alpha  occ. eigenvalues --   -1.13686  -1.13667  -1.13655  -1.13614  -1.13563
 Alpha  occ. eigenvalues --   -1.13543  -1.13302  -1.13296  -1.13242  -1.13201
 Alpha  occ. eigenvalues --   -1.13157  -1.13145  -1.12278  -1.12216  -1.12188
 Alpha  occ. eigenvalues --   -0.18131  -0.13417  -0.11636  -0.11372
 Alpha virt. eigenvalues --   -0.06261  -0.05128  -0.04337  -0.03501  -0.03118
 Alpha virt. eigenvalues --   -0.02860  -0.01953  -0.00790  -0.00507  -0.00123
 Alpha virt. eigenvalues --    0.00177   0.00265   0.00303   0.00621   0.00840

  Beta  occ. eigenvalues --  -38.44619 -38.44359 -38.44188 -38.43966 -38.43803
  Beta  occ. eigenvalues --  -38.43537 -38.42693  -2.20396  -2.20203  -2.19940
  Beta  occ. eigenvalues --   -2.19802  -2.19596  -2.19452  -2.18564  -1.14071
  Beta  occ. eigenvalues --   -1.14064  -1.14036  -1.13913  -1.13851  -1.13823
  Beta  occ. eigenvalues --   -1.13624  -1.13610  -1.13599  -1.13533  -1.13472
  Beta  occ. eigenvalues --   -1.13447  -1.13299  -1.13269  -1.13199  -1.13194
  Beta  occ. eigenvalues --   -1.13104  -1.13094  -1.12267  -1.12192  -1.12184
  Beta  occ. eigenvalues --   -0.17456  -0.13183  -0.11410
  Beta virt. eigenvalues --   -0.07597  -0.06163  -0.04463  -0.04225  -0.03365
  Beta virt. eigenvalues --   -0.02357  -0.02077  -0.01856  -0.00486  -0.00344
  Beta virt. eigenvalues --    0.00015   0.00215   0.00334   0.00360   0.00768

 Mulliken charges and spin densities:
               1          2
     1  Na   0.167656  -0.010947
     2  Na   0.153180   0.007673
     3  Na   0.681745  -0.046205
     4  Na  -0.075567   0.213855
     5  Na  -0.268584   0.274120
     6  Na  -0.220858   0.539428
     7  Na  -0.437571   0.022076
 Sum of Mulliken charges =  -0.00000   1.00000

 Dipole moment (field-independent basis, Debye):
    X=              0.1314    Y=             -0.3172    Z=              0.2947  Tot=              0.4525
 Quadrupole moment (field-independent basis, Debye-Ang):
   XX=            -54.2363   YY=            -75.3110   ZZ=            -66.3884
   XY=             -2.0580   XZ=             -0.0048   YZ=              0.9152

 Normal termination of Gaussian 16 at Mon Dec  4 00:00:22 2023.
