 Gaussian 16, Revision B.01,
 Gaussian 16:  ES64L-G16RevB.01 20-Dec-2017

 -------------------------
 #P B3LYP/6-311+g(d) force
 -------------------------

 -----
 DPGEN
 -----
 Symbolic Z-matrix:
 Charge =  0 Multiplicity = 2

                         Standard orientation:
 ---------------------------------------------------------------------
 Center     Atomic      Atomic             Coordinates (Angstroms)
 Number     Number       Type             X           Y           Z
 ---------------------------------------------------------------------
      1         11           0       -1.226871    3.066989   -0.640623
      2         11           0       -3.207274   -1.783225    0.599262
      3         11           0        3.845151   -1.112588   -1.069346
      4         11           0       -0.487593    1.029741    2.423069
      5         11           0       -2.611656   -0.420984   -2.122865
      6         11           0        2.729675    1.395637    0.061084
      7         11           0        0.958569   -2.175569    0.749420
 ---------------------------------------------------------------------

 SCF Done:  E(UB3LYP) =  -1136.11404931     A.U. after   20 cycles

 The electronic state is 2-A.
 Alpha  occ. eigenvalues --  -38.44978 -38.44714 -38.44415 -38.44221 -38.44153
 Alpha  occ. eigenvalues --  -38.43991 -38.43789  -2.20740  -2.20532  -2.20225
 Alpha  occ. eigenvalues --   -2.20007  -2.19940  -2.19841  -2.19537  -1.14426
 Alpha  occ. eigenvalues --   -1.14420  -1.14343  -1.14244  -1.14195  -1.14174
 Alpha  occ. eigenvalues --   -1.13920  -1.13870  -1.13848  -1.13676  -1.13661
 Alpha  occ. eigenvalues --   -1.13614  -1.13602  -1.13600  -1.13579  -1.13517
 Alpha  occ. eigenvalues --   -1.13480  -1.13456  -1.13215  -1.13199  -1.13166
 Alpha  occ. eigenvalues --   -0.16674  -0.13791  -0.11488  -0.11269
 Alpha virt. eigenvalues --   -0.06464  -0.05294  -0.04864  -0.03627  -0.03216
 Alpha virt. eigenvalues --   -0.02936  -0.01852  -0.01083  -0.00806  -0.00514
 Alpha virt. eigenvalues --   -0.00286   0.00014   0.00196   0.00433   0.00660

  Beta  occ. eigenvalues --  -38.44947 -38.44702 -38.44359 -38.44161 -38.44156
  Beta  occ. eigenvalues --  -38.43970 -38.43775  -2.20684  -2.20511  -2.20120
  Beta  occ. eigenvalues --   -2.19959  -2.19887  -2.19804  -2.19511  -1.14389
  Beta  occ. eigenvalues --   -1.14372  -1.14303  -1.14223  -1.14180  -1.14153
  Beta  occ. eigenvalues --   -1.13862  -1.13799  -1.13773  -1.13616  -1.13600
  Beta  occ. eigenvalues --   -1.13594  -1.13581  -1.13575  -1.13524  -1.13486
  Beta  occ. eigenvalues --   -1.13455  -1.13434  -1.13195  -1.13181  -1.13145
  Beta  occ. eigenvalues --   -0.16031  -0.13352  -0.11422
  Beta virt. eigenvalues --   -0.07709  -0.06166  -0.05040  -0.04250  -0.03397
  Beta virt. eigenvalues --   -0.02886  -0.02325  -0.01744  -0.00969  -0.00614
  Beta virt. eigenvalues --   -0.00258  -0.00152   0.00265   0.00341   0.00527

 Mulliken charges and spin densities:
               1          2
     1  Na  -0.203845   0.007450
     2  Na   0.130585  -0.160280
     3  Na   0.561779   0.059513
     4  Na   0.249499   0.514588
     5  Na  -0.064708   0.416067
     6  Na  -0.292391   0.107548
     7  Na  -0.380919   0.055112
 Sum of Mulliken charges =  -0.00000   1.00000

 Dipole moment (field-independent basis, Debye):
    X=              0.5012    Y=             -0.4523    Z=             -0.1021  Tot=              0.6828
 Quadrupole moment (field-independent basis, Debye-Ang):
   XX=            -63.5506   YY=            -71.0189   ZZ=            -65.6531
   XY=             -0.8341   XZ=             -3.8508   YZ=             -1.8672

 Normal termination of Gaussian 16 at Mon Dec  4 03:21:52 2023.
