 Gaussian 16, Revision B.01,
 Gaussian 16:  ES64L-G16RevB.01 20-Dec-2017

 -------------------------
 #P B3LYP/6-311+g(d) force
 -------------------------

 -----
 DPGEN
 -----
 Symbolic Z-matrix:
 Charge =  0 Multiplicity = 2

                         Standard orientation:
 ---------------------------------------------------------------------
 Center     Atomic      Atomic             Coordinates (Angstroms)
 Number     Number       Type             X           Y           Z
 ---------------------------------------------------------------------
      1         11           0       -2.527581    1.989562   -0.198944
      2         11           0       -5.042166   -0.742932   -0.030696
      3         11           0        1.931573   -1.762407   -1.348158
      4         11           0       -1.747914   -1.742786    0.000500
      5         11           0        3.966863    1.146626   -0.949743
      6         11           0        0.506922    2.555121    0.683754
      7         11           0        2.912302   -1.443183    1.843287
 ---------------------------------------------------------------------

 SCF Done:  E(UB3LYP) =  -1136.11020876     A.U. after   26 cycles

 The electronic state is 2-A.
 Alpha  occ. eigenvalues --  -38.46771 -38.45163 -38.44336 -38.44110 -38.43846
 Alpha  occ. eigenvalues --  -38.43692 -38.42475  -2.22512  -2.20962  -2.20102
 Alpha  occ. eigenvalues --   -2.19922  -2.19658  -2.19508  -2.18269  -1.16186
 Alpha  occ. eigenvalues --   -1.16163  -1.16151  -1.14639  -1.14621  -1.14602
 Alpha  occ. eigenvalues --   -1.13812  -1.13784  -1.13719  -1.13590  -1.13541
 Alpha  occ. eigenvalues --   -1.13539  -1.13310  -1.13307  -1.13272  -1.13194
 Alpha  occ. eigenvalues --   -1.13190  -1.13122  -1.11945  -1.11938  -1.11910
 Alpha  occ. eigenvalues --   -0.16544  -0.14308  -0.11524  -0.10348
 Alpha virt. eigenvalues --   -0.07555  -0.05848  -0.04290  -0.03342  -0.03124
 Alpha virt. eigenvalues --   -0.02486  -0.02118  -0.01771  -0.00980  -0.00816
 Alpha virt. eigenvalues --   -0.00722  -0.00099   0.00119   0.00371   0.00534

  Beta  occ. eigenvalues --  -38.46768 -38.45152 -38.44335 -38.44020 -38.43781
  Beta  occ. eigenvalues --  -38.43677 -38.42466  -2.22509  -2.20947  -2.20104
  Beta  occ. eigenvalues --   -2.19754  -2.19537  -2.19484  -2.18257  -1.16187
  Beta  occ. eigenvalues --   -1.16158  -1.16135  -1.14634  -1.14614  -1.14556
  Beta  occ. eigenvalues --   -1.13818  -1.13784  -1.13695  -1.13475  -1.13430
  Beta  occ. eigenvalues --   -1.13425  -1.13226  -1.13224  -1.13196  -1.13178
  Beta  occ. eigenvalues --   -1.13169  -1.13093  -1.11937  -1.11926  -1.11892
  Beta  occ. eigenvalues --   -0.16032  -0.13766  -0.11032
  Beta virt. eigenvalues --   -0.07324  -0.07041  -0.05826  -0.03698  -0.03134
  Beta virt. eigenvalues --   -0.02937  -0.01980  -0.01743  -0.01657  -0.00823
  Beta virt. eigenvalues --   -0.00423  -0.00387  -0.00055   0.00222   0.00476

 Mulliken charges and spin densities:
               1          2
     1  Na   0.094612   0.037896
     2  Na   0.318068   0.328630
     3  Na   0.056961  -0.027462
     4  Na  -0.535252   0.071040
     5  Na   0.097058   0.533328
     6  Na  -0.380236   0.011379
     7  Na   0.348789   0.045188
 Sum of Mulliken charges =  -0.00000   1.00000

 Dipole moment (field-independent basis, Debye):
    X=              1.1976    Y=             -1.5123    Z=              0.7842  Tot=              2.0824
 Quadrupole moment (field-independent basis, Debye-Ang):
   XX=            -61.2428   YY=            -78.5624   ZZ=            -61.5169
   XY=             -5.5590   XZ=              6.0874   YZ=             -1.7807

 Normal termination of Gaussian 16 at Mon Dec  4 03:55:31 2023.
