 Gaussian 16, Revision B.01,
 Gaussian 16:  ES64L-G16RevB.01 20-Dec-2017

 -------------------------
 #P B3LYP/6-311+g(d) force
 -------------------------

 -----
 DPGEN
 -----
 Symbolic Z-matrix:
 Charge =  0 Multiplicity = 2

                         Standard orientation:
 ---------------------------------------------------------------------
 Center     Atomic      Atomic             Coordinates (Angstroms)
 Number     Number       Type             X           Y           Z
 ---------------------------------------------------------------------
      1         11           0       -3.077280    0.723972    0.033642
      2         11           0        2.033315   -2.085574   -0.066683
      3         11           0        2.815029    1.025314   -0.398199
      4         11           0        0.392629   -0.340886    1.979356
      5         11           0       -0.206459    0.184602   -1.690911
      6         11           0       -0.165465    2.851087    0.301081
      7         11           0       -1.791769   -2.358514   -0.158287
 ---------------------------------------------------------------------

 SCF Done:  E(UB3LYP) =  -1136.13904219     A.U. after   19 cycles

 The electronic state is 2-A.
 Alpha  occ. eigenvalues --  -38.44088 -38.43818 -38.43497 -38.43490 -38.43478
 Alpha  occ. eigenvalues --  -38.43224 -38.43123  -2.19924  -2.19695  -2.19417
 Alpha  occ. eigenvalues --   -2.19381  -2.19328  -2.19202  -2.18976  -1.13603
 Alpha  occ. eigenvalues --   -1.13587  -1.13564  -1.13387  -1.13355  -1.13338
 Alpha  occ. eigenvalues --   -1.13160  -1.13071  -1.13038  -1.13036  -1.13019
 Alpha  occ. eigenvalues --   -1.13005  -1.12990  -1.12986  -1.12954  -1.12886
 Alpha  occ. eigenvalues --   -1.12838  -1.12823  -1.12647  -1.12641  -1.12606
 Alpha  occ. eigenvalues --   -0.18850  -0.13278  -0.12363  -0.10807
 Alpha virt. eigenvalues --   -0.05622  -0.05177  -0.04535  -0.03314  -0.02904
 Alpha virt. eigenvalues --   -0.02511  -0.01510  -0.01032  -0.00276  -0.00264
 Alpha virt. eigenvalues --   -0.00004   0.00370   0.00806   0.00903   0.00916

  Beta  occ. eigenvalues --  -38.44087 -38.43807 -38.43483 -38.43473 -38.43408
  Beta  occ. eigenvalues --  -38.43159 -38.43115  -2.19924  -2.19677  -2.19373
  Beta  occ. eigenvalues --   -2.19323  -2.19252  -2.19083  -2.18965  -1.13598
  Beta  occ. eigenvalues --   -1.13582  -1.13561  -1.13374  -1.13333  -1.13314
  Beta  occ. eigenvalues --   -1.13108  -1.13019  -1.13008  -1.13002  -1.12981
  Beta  occ. eigenvalues --   -1.12958  -1.12950  -1.12911  -1.12899  -1.12807
  Beta  occ. eigenvalues --   -1.12761  -1.12734  -1.12636  -1.12609  -1.12601
  Beta  occ. eigenvalues --   -0.18116  -0.13035  -0.12120
  Beta virt. eigenvalues --   -0.06892  -0.05568  -0.05180  -0.04488  -0.02526
  Beta virt. eigenvalues --   -0.02122  -0.01480  -0.01403  -0.00970  -0.00329
  Beta virt. eigenvalues --   -0.00293   0.00132   0.00396   0.00872   0.00896

 Mulliken charges and spin densities:
               1          2
     1  Na   0.046421  -0.062610
     2  Na   0.330326  -0.049101
     3  Na   0.212043   0.015249
     4  Na  -0.493799   0.750667
     5  Na  -0.214177   0.494187
     6  Na   0.011928  -0.032433
     7  Na   0.107258  -0.115958
 Sum of Mulliken charges =  -0.00000   1.00000

 Dipole moment (field-independent basis, Debye):
    X=             -0.1497    Y=             -0.0117    Z=              0.0730  Tot=              0.1670
 Quadrupole moment (field-independent basis, Debye-Ang):
   XX=            -56.2315   YY=            -63.7591   ZZ=            -73.7986
   XY=             -0.0811   XZ=             -1.4212   YZ=              1.1185

 Normal termination of Gaussian 16 at Thu Dec  7 17:57:59 2023.
