 Gaussian 16, Revision B.01,
 Gaussian 16:  ES64L-G16RevB.01 20-Dec-2017

 -------------------------
 #P B3LYP/6-311+g(d) force
 -------------------------

 -----
 DPGEN
 -----
 Symbolic Z-matrix:
 Charge =  0 Multiplicity = 2

                         Standard orientation:
 ---------------------------------------------------------------------
 Center     Atomic      Atomic             Coordinates (Angstroms)
 Number     Number       Type             X           Y           Z
 ---------------------------------------------------------------------
      1         11           0       -3.237423    0.217876   -1.647438
      2         11           0        3.400665   -0.881301    0.350377
      3         11           0        0.381872   -1.267440    1.998737
      4         11           0       -2.705846    0.934059    2.212287
      5         11           0        0.182299    0.657809   -0.931774
      6         11           0       -0.126320   -2.635665   -1.362464
      7         11           0        2.104753    2.974662   -0.619725
 ---------------------------------------------------------------------

 SCF Done:  E(UB3LYP) =  -1136.11608910     A.U. after   24 cycles

 The electronic state is 2-A.
 Alpha  occ. eigenvalues --  -38.45134 -38.45105 -38.44749 -38.44406 -38.44096
 Alpha  occ. eigenvalues --  -38.42739 -38.42597  -2.20897  -2.20875  -2.20505
 Alpha  occ. eigenvalues --   -2.20213  -2.19933  -2.18697  -2.18404  -1.14598
 Alpha  occ. eigenvalues --   -1.14548  -1.14529  -1.14521  -1.14509  -1.14482
 Alpha  occ. eigenvalues --   -1.14182  -1.14155  -1.14142  -1.13910  -1.13863
 Alpha  occ. eigenvalues --   -1.13807  -1.13624  -1.13589  -1.13537  -1.12430
 Alpha  occ. eigenvalues --   -1.12395  -1.12322  -1.12067  -1.12056  -1.12022
 Alpha  occ. eigenvalues --   -0.17432  -0.12857  -0.11930  -0.11137
 Alpha virt. eigenvalues --   -0.06459  -0.05468  -0.04486  -0.03224  -0.03051
 Alpha virt. eigenvalues --   -0.02567  -0.02105  -0.01192  -0.00817  -0.00166
 Alpha virt. eigenvalues --   -0.00001   0.00102   0.00224   0.00561   0.00661

  Beta  occ. eigenvalues --  -38.45131 -38.45023 -38.44737 -38.44359 -38.44055
  Beta  occ. eigenvalues --  -38.42719 -38.42603  -2.20892  -2.20724  -2.20485
  Beta  occ. eigenvalues --   -2.20126  -2.19857  -2.18663  -2.18416  -1.14588
  Beta  occ. eigenvalues --   -1.14546  -1.14508  -1.14426  -1.14410  -1.14382
  Beta  occ. eigenvalues --   -1.14166  -1.14136  -1.14126  -1.13844  -1.13810
  Beta  occ. eigenvalues --   -1.13741  -1.13576  -1.13539  -1.13468  -1.12400
  Beta  occ. eigenvalues --   -1.12361  -1.12304  -1.12069  -1.12063  -1.12030
  Beta  occ. eigenvalues --   -0.16761  -0.12539  -0.11069
  Beta virt. eigenvalues --   -0.08008  -0.06310  -0.04764  -0.04260  -0.02968
  Beta virt. eigenvalues --   -0.02386  -0.02150  -0.02014  -0.00796  -0.00590
  Beta virt. eigenvalues --   -0.00086   0.00095   0.00164   0.00281   0.00727

 Mulliken charges and spin densities:
               1          2
     1  Na   0.505123  -0.088672
     2  Na   0.419773   0.011650
     3  Na   0.116426   0.282495
     4  Na  -0.152055   0.372767
     5  Na  -1.373018   0.366118
     6  Na  -0.065091   0.071017
     7  Na   0.548843  -0.015375
 Sum of Mulliken charges =  -0.00000   1.00000

 Dipole moment (field-independent basis, Debye):
    X=             -0.3585    Y=             -1.1293    Z=              0.3720  Tot=              1.2418
 Quadrupole moment (field-independent basis, Debye-Ang):
   XX=            -54.1156   YY=            -72.0214   ZZ=            -66.4839
   XY=             -4.6335   XZ=              2.2010   YZ=              5.1885

 Normal termination of Gaussian 16 at Sun Dec  3 17:33:33 2023.
