 Gaussian 16, Revision B.01,
 Gaussian 16:  ES64L-G16RevB.01 20-Dec-2017

 -------------------------
 #P B3LYP/6-311+g(d) force
 -------------------------

 -----
 DPGEN
 -----
 Symbolic Z-matrix:
 Charge =  0 Multiplicity = 2

                         Standard orientation:
 ---------------------------------------------------------------------
 Center     Atomic      Atomic             Coordinates (Angstroms)
 Number     Number       Type             X           Y           Z
 ---------------------------------------------------------------------
      1         11           0       -3.988150   -2.426002    0.069394
      2         11           0       -0.846797   -3.417699    0.072756
      3         11           0        1.947387    2.315847   -0.340956
      4         11           0       -3.465144    1.653230    0.403144
      5         11           0        4.829152    0.727104    0.723818
      6         11           0        3.128860   -2.750155   -0.546265
      7         11           0       -1.605308    3.897675   -0.381890
 ---------------------------------------------------------------------

 SCF Done:  E(UB3LYP) =  -1136.10589207     A.U. after   21 cycles

 The electronic state is 2-A.
 Alpha  occ. eigenvalues --  -38.45453 -38.45401 -38.44776 -38.44743 -38.44677
 Alpha  occ. eigenvalues --  -38.43952 -38.43618  -2.21236  -2.21150  -2.20540
 Alpha  occ. eigenvalues --   -2.20491  -2.20438  -2.19776  -2.19418  -1.14919
 Alpha  occ. eigenvalues --   -1.14904  -1.14877  -1.14835  -1.14825  -1.14753
 Alpha  occ. eigenvalues --   -1.14199  -1.14183  -1.14182  -1.14175  -1.14146
 Alpha  occ. eigenvalues --   -1.14124  -1.14111  -1.14089  -1.14079  -1.13456
 Alpha  occ. eigenvalues --   -1.13422  -1.13410  -1.13071  -1.13061  -1.13057
 Alpha  occ. eigenvalues --   -0.15293  -0.13747  -0.13362  -0.10868
 Alpha virt. eigenvalues --   -0.07576  -0.05114  -0.04703  -0.03444  -0.03237
 Alpha virt. eigenvalues --   -0.02533  -0.02340  -0.02166  -0.01606  -0.00855
 Alpha virt. eigenvalues --   -0.00595  -0.00278   0.00150   0.00367   0.00403

  Beta  occ. eigenvalues --  -38.45440 -38.45369 -38.44747 -38.44680 -38.44665
  Beta  occ. eigenvalues --  -38.43938 -38.43575  -2.21217  -2.21093  -2.20502
  Beta  occ. eigenvalues --   -2.20418  -2.20363  -2.19751  -2.19336  -1.14901
  Beta  occ. eigenvalues --   -1.14893  -1.14852  -1.14796  -1.14787  -1.14706
  Beta  occ. eigenvalues --   -1.14196  -1.14189  -1.14098  -1.14096  -1.14080
  Beta  occ. eigenvalues --   -1.14071  -1.14061  -1.14058  -1.14019  -1.13433
  Beta  occ. eigenvalues --   -1.13406  -1.13394  -1.13015  -1.13011  -1.13002
  Beta  occ. eigenvalues --   -0.14881  -0.13111  -0.12776
  Beta virt. eigenvalues --   -0.07629  -0.07472  -0.04826  -0.04255  -0.03250
  Beta virt. eigenvalues --   -0.02871  -0.02207  -0.02159  -0.02000  -0.01474
  Beta virt. eigenvalues --   -0.00430  -0.00288  -0.00037   0.00216   0.00370

 Mulliken charges and spin densities:
               1          2
     1  Na   0.186109   0.242951
     2  Na  -0.212905   0.013390
     3  Na  -0.627822   0.222965
     4  Na  -0.345016   0.076614
     5  Na   0.545903  -0.097069
     6  Na  -0.044541   0.423848
     7  Na   0.498272   0.117300
 Sum of Mulliken charges =  -0.00000   1.00000

 Dipole moment (field-independent basis, Debye):
    X=              0.4012    Y=              0.9840    Z=              0.1274  Tot=              1.0702
 Quadrupole moment (field-independent basis, Debye-Ang):
   XX=            -55.9824   YY=            -70.3410   ZZ=            -73.5069
   XY=             -2.2439   XZ=              0.9242   YZ=             -1.3565

 Normal termination of Gaussian 16 at Sun Dec  3 22:05:18 2023.
