 Gaussian 16, Revision B.01,
 Gaussian 16:  ES64L-G16RevB.01 20-Dec-2017

 -------------------------
 #P B3LYP/6-311+g(d) force
 -------------------------

 -----
 DPGEN
 -----
 Symbolic Z-matrix:
 Charge =  0 Multiplicity = 2

                         Standard orientation:
 ---------------------------------------------------------------------
 Center     Atomic      Atomic             Coordinates (Angstroms)
 Number     Number       Type             X           Y           Z
 ---------------------------------------------------------------------
      1         11           0        0.181578    0.211689   -1.513912
      2         11           0       -0.023531   -0.361641    2.095153
      3         11           0        2.070699    2.244629   -0.012910
      4         11           0       -3.089058   -0.408761    0.021399
      5         11           0       -0.534127   -2.694917   -0.499934
      6         11           0       -1.453965    2.387301   -0.094315
      7         11           0        2.848404   -1.378301    0.004519
 ---------------------------------------------------------------------

 SCF Done:  E(UB3LYP) =  -1136.13750499     A.U. after   19 cycles

 The electronic state is 2-A.
 Alpha  occ. eigenvalues --  -38.44034 -38.43819 -38.43642 -38.43605 -38.43318
 Alpha  occ. eigenvalues --  -38.43306 -38.42968  -2.19853  -2.19675  -2.19492
 Alpha  occ. eigenvalues --   -2.19486  -2.19219  -2.19188  -2.19020  -1.13530
 Alpha  occ. eigenvalues --   -1.13516  -1.13492  -1.13356  -1.13334  -1.13326
 Alpha  occ. eigenvalues --   -1.13204  -1.13159  -1.13146  -1.13117  -1.13116
 Alpha  occ. eigenvalues --   -1.13100  -1.12971  -1.12920  -1.12866  -1.12841
 Alpha  occ. eigenvalues --   -1.12836  -1.12800  -1.12682  -1.12637  -1.12625
 Alpha  occ. eigenvalues --   -0.18884  -0.13022  -0.12574  -0.10762
 Alpha virt. eigenvalues --   -0.05598  -0.05217  -0.04520  -0.03113  -0.02918
 Alpha virt. eigenvalues --   -0.02539  -0.01540  -0.01128  -0.00273  -0.00212
 Alpha virt. eigenvalues --   -0.00001   0.00355   0.00797   0.00892   0.00920

  Beta  occ. eigenvalues --  -38.44032 -38.43816 -38.43639 -38.43507 -38.43313
  Beta  occ. eigenvalues --  -38.43290 -38.42909  -2.19852  -2.19673  -2.19489
  Beta  occ. eigenvalues --   -2.19309  -2.19212  -2.19164  -2.18912  -1.13521
  Beta  occ. eigenvalues --   -1.13503  -1.13494  -1.13358  -1.13328  -1.13307
  Beta  occ. eigenvalues --   -1.13196  -1.13135  -1.13116  -1.13038  -1.12993
  Beta  occ. eigenvalues --   -1.12971  -1.12952  -1.12892  -1.12840  -1.12835
  Beta  occ. eigenvalues --   -1.12803  -1.12787  -1.12608  -1.12561  -1.12552
  Beta  occ. eigenvalues --   -0.18155  -0.12806  -0.12318
  Beta virt. eigenvalues --   -0.06803  -0.05571  -0.05210  -0.04489  -0.02334
  Beta virt. eigenvalues --   -0.02133  -0.01471  -0.01428  -0.01071  -0.00317
  Beta virt. eigenvalues --   -0.00254   0.00144   0.00381   0.00841   0.00895

 Mulliken charges and spin densities:
               1          2
     1  Na  -0.424376   0.270357
     2  Na  -0.671056   0.786884
     3  Na   0.168619  -0.035231
     4  Na   0.216834   0.025206
     5  Na   0.281330   0.001630
     6  Na   0.270985  -0.006041
     7  Na   0.157664  -0.042805
 Sum of Mulliken charges =  -0.00000   1.00000

 Dipole moment (field-independent basis, Debye):
    X=              0.2369    Y=             -0.1112    Z=              0.2717  Tot=              0.3772
 Quadrupole moment (field-independent basis, Debye-Ang):
   XX=            -55.3912   YY=            -63.1547   ZZ=            -74.4503
   XY=              0.1116   XZ=              0.4161   YZ=              1.1529

 Normal termination of Gaussian 16 at Thu Dec  7 06:43:40 2023.
