 Gaussian 16, Revision B.01,
 Gaussian 16:  ES64L-G16RevB.01 20-Dec-2017

 -------------------------
 #P B3LYP/6-311+g(d) force
 -------------------------

 -----
 DPGEN
 -----
 Symbolic Z-matrix:
 Charge =  0 Multiplicity = 2

                         Standard orientation:
 ---------------------------------------------------------------------
 Center     Atomic      Atomic             Coordinates (Angstroms)
 Number     Number       Type             X           Y           Z
 ---------------------------------------------------------------------
      1         11           0       -3.662112    0.163700    1.652947
      2         11           0       -2.396783   -1.735366   -1.057235
      3         11           0        1.861439    1.854851   -0.155970
      4         11           0        1.064188   -1.207676   -1.566177
      5         11           0        0.418418   -0.304317    1.483360
      6         11           0        3.885379   -0.823119    0.877764
      7         11           0       -1.170530    2.051927   -1.234690
 ---------------------------------------------------------------------

 SCF Done:  E(UB3LYP) =  -1136.12212706     A.U. after   25 cycles

 The electronic state is 2-A.
 Alpha  occ. eigenvalues --  -38.45071 -38.44491 -38.44464 -38.44146 -38.44093
 Alpha  occ. eigenvalues --  -38.42996 -38.42586  -2.20958  -2.20387  -2.20246
 Alpha  occ. eigenvalues --   -2.19954  -2.19906  -2.18944  -2.18419  -1.14691
 Alpha  occ. eigenvalues --   -1.14654  -1.14533  -1.14092  -1.14016  -1.13981
 Alpha  occ. eigenvalues --   -1.13906  -1.13894  -1.13867  -1.13628  -1.13618
 Alpha  occ. eigenvalues --   -1.13583  -1.13578  -1.13573  -1.13530  -1.12667
 Alpha  occ. eigenvalues --   -1.12609  -1.12537  -1.12091  -1.12079  -1.12057
 Alpha  occ. eigenvalues --   -0.18349  -0.13904  -0.11553  -0.10871
 Alpha virt. eigenvalues --   -0.06586  -0.05394  -0.04748  -0.03260  -0.02674
 Alpha virt. eigenvalues --   -0.02522  -0.02213  -0.01219  -0.00906  -0.00300
 Alpha virt. eigenvalues --    0.00057   0.00255   0.00386   0.00488   0.00649

  Beta  occ. eigenvalues --  -38.45051 -38.44412 -38.44412 -38.44120 -38.44089
  Beta  occ. eigenvalues --  -38.42985 -38.42584  -2.20924  -2.20244  -2.20147
  Beta  occ. eigenvalues --   -2.19911  -2.19899  -2.18926  -2.18417  -1.14656
  Beta  occ. eigenvalues --   -1.14619  -1.14510  -1.13999  -1.13909  -1.13871
  Beta  occ. eigenvalues --   -1.13837  -1.13824  -1.13805  -1.13600  -1.13587
  Beta  occ. eigenvalues --   -1.13575  -1.13560  -1.13528  -1.13526  -1.12653
  Beta  occ. eigenvalues --   -1.12590  -1.12525  -1.12082  -1.12071  -1.12059
  Beta  occ. eigenvalues --   -0.17704  -0.13552  -0.10747
  Beta virt. eigenvalues --   -0.07690  -0.06388  -0.04731  -0.04686  -0.02861
  Beta virt. eigenvalues --   -0.02444  -0.01964  -0.01749  -0.00933  -0.00649
  Beta virt. eigenvalues --   -0.00148   0.00104   0.00367   0.00453   0.00623

 Mulliken charges and spin densities:
               1          2
     1  Na   0.338006   0.210971
     2  Na   0.053331   0.047091
     3  Na   0.276038  -0.075197
     4  Na  -0.158996   0.347867
     5  Na  -1.077954   0.363352
     6  Na   0.968343   0.006830
     7  Na  -0.398768   0.099086
 Sum of Mulliken charges =  -0.00000   1.00000

 Dipole moment (field-independent basis, Debye):
    X=              0.3985    Y=             -0.0739    Z=              0.0314  Tot=              0.4066
 Quadrupole moment (field-independent basis, Debye-Ang):
   XX=            -52.9834   YY=            -76.0854   ZZ=            -67.7194
   XY=             -1.4602   XZ=              0.4137   YZ=              4.3358

 Normal termination of Gaussian 16 at Tue Dec  5 14:37:47 2023.
