 Gaussian 16, Revision B.01,
 Gaussian 16:  ES64L-G16RevB.01 20-Dec-2017

 -------------------------
 #P B3LYP/6-311+g(d) force
 -------------------------

 -----
 DPGEN
 -----
 Symbolic Z-matrix:
 Charge =  0 Multiplicity = 2

                         Standard orientation:
 ---------------------------------------------------------------------
 Center     Atomic      Atomic             Coordinates (Angstroms)
 Number     Number       Type             X           Y           Z
 ---------------------------------------------------------------------
      1         11           0        0.890690    2.391769    0.416316
      2         11           0        0.202369    0.128073   -1.820364
      3         11           0        3.422159   -0.005390   -0.026993
      4         11           0        0.481324   -2.680905   -0.380514
      5         11           0       -2.718675   -1.437412    0.177758
      6         11           0       -2.301069    2.061929   -0.309112
      7         11           0        0.023203   -0.458066    1.942910
 ---------------------------------------------------------------------

 SCF Done:  E(UB3LYP) =  -1136.13700570     A.U. after   19 cycles

 The electronic state is 2-A.
 Alpha  occ. eigenvalues --  -38.44370 -38.43894 -38.43602 -38.43465 -38.43360
 Alpha  occ. eigenvalues --  -38.43304 -38.43112  -2.20158  -2.19731  -2.19530
 Alpha  occ. eigenvalues --   -2.19422  -2.19204  -2.19194  -2.19022  -1.13831
 Alpha  occ. eigenvalues --   -1.13818  -1.13798  -1.13418  -1.13391  -1.13371
 Alpha  occ. eigenvalues --   -1.13210  -1.13184  -1.13136  -1.13118  -1.13101
 Alpha  occ. eigenvalues --   -1.13027  -1.12881  -1.12872  -1.12865  -1.12860
 Alpha  occ. eigenvalues --   -1.12849  -1.12790  -1.12709  -1.12691  -1.12622
 Alpha  occ. eigenvalues --   -0.18781  -0.12875  -0.12496  -0.10974
 Alpha virt. eigenvalues --   -0.05892  -0.04872  -0.04412  -0.03199  -0.03033
 Alpha virt. eigenvalues --   -0.02693  -0.01791  -0.00977  -0.00217  -0.00096
 Alpha virt. eigenvalues --    0.00026   0.00343   0.00814   0.00872   0.00923

  Beta  occ. eigenvalues --  -38.44371 -38.43890 -38.43518 -38.43388 -38.43356
  Beta  occ. eigenvalues --  -38.43291 -38.43098  -2.20163  -2.19727  -2.19376
  Beta  occ. eigenvalues --   -2.19280  -2.19201  -2.19174  -2.19002  -1.13828
  Beta  occ. eigenvalues --   -1.13812  -1.13803  -1.13404  -1.13377  -1.13370
  Beta  occ. eigenvalues --   -1.13113  -1.13076  -1.13028  -1.13025  -1.13003
  Beta  occ. eigenvalues --   -1.12929  -1.12878  -1.12854  -1.12845  -1.12839
  Beta  occ. eigenvalues --   -1.12814  -1.12778  -1.12696  -1.12647  -1.12612
  Beta  occ. eigenvalues --   -0.18025  -0.12664  -0.12238
  Beta virt. eigenvalues --   -0.07028  -0.05854  -0.04864  -0.04364  -0.02428
  Beta virt. eigenvalues --   -0.02258  -0.01726  -0.01607  -0.00921  -0.00245
  Beta virt. eigenvalues --   -0.00066   0.00100   0.00357   0.00855   0.00875

 Mulliken charges and spin densities:
               1          2
     1  Na   0.160665   0.047112
     2  Na  -0.274437   0.664691
     3  Na   0.070363  -0.128071
     4  Na   0.156634  -0.119113
     5  Na   0.152246  -0.035793
     6  Na   0.028497  -0.047844
     7  Na  -0.293968   0.619019
 Sum of Mulliken charges =  -0.00000   1.00000

 Dipole moment (field-independent basis, Debye):
    X=              0.2376    Y=             -0.2301    Z=              0.0422  Tot=              0.3334
 Quadrupole moment (field-independent basis, Debye-Ang):
   XX=            -54.1671   YY=            -66.1514   ZZ=            -73.0530
   XY=             -0.2665   XZ=              0.3187   YZ=              0.7849

 Normal termination of Gaussian 16 at Wed Dec  6 00:43:43 2023.
