 Gaussian 16, Revision B.01,
 Gaussian 16:  ES64L-G16RevB.01 20-Dec-2017

 -------------------------
 #P B3LYP/6-311+g(d) force
 -------------------------

 -----
 DPGEN
 -----
 Symbolic Z-matrix:
 Charge =  0 Multiplicity = 2

                         Standard orientation:
 ---------------------------------------------------------------------
 Center     Atomic      Atomic             Coordinates (Angstroms)
 Number     Number       Type             X           Y           Z
 ---------------------------------------------------------------------
      1         11           0       -0.309416   -2.945236   -0.237287
      2         11           0        2.888985   -1.080661    0.112145
      3         11           0        1.987831    2.258987   -0.008629
      4         11           0       -0.134490   -0.336566    1.934206
      5         11           0       -0.153593   -0.134507   -1.912482
      6         11           0       -2.996280   -0.306854    0.157655
      7         11           0       -1.283037    2.544838   -0.045606
 ---------------------------------------------------------------------

 SCF Done:  E(UB3LYP) =  -1136.14081584     A.U. after   18 cycles

 The electronic state is 2-A.
 Alpha  occ. eigenvalues --  -38.43822 -38.43707 -38.43604 -38.43559 -38.43508
 Alpha  occ. eigenvalues --  -38.43425 -38.43286  -2.19641  -2.19571  -2.19477
 Alpha  occ. eigenvalues --   -2.19459  -2.19437  -2.19266  -2.19167  -1.13318
 Alpha  occ. eigenvalues --   -1.13309  -1.13281  -1.13269  -1.13242  -1.13214
 Alpha  occ. eigenvalues --   -1.13182  -1.13161  -1.13131  -1.13101  -1.13091
 Alpha  occ. eigenvalues --   -1.13081  -1.13077  -1.13054  -1.13048  -1.12957
 Alpha  occ. eigenvalues --   -1.12930  -1.12914  -1.12832  -1.12824  -1.12793
 Alpha  occ. eigenvalues --   -0.18742  -0.12815  -0.12687  -0.10945
 Alpha virt. eigenvalues --   -0.05479  -0.04965  -0.04867  -0.03152  -0.03084
 Alpha virt. eigenvalues --   -0.02738  -0.01321  -0.01111  -0.00327  -0.00218
 Alpha virt. eigenvalues --   -0.00029   0.00381   0.00861   0.00889   0.00932

  Beta  occ. eigenvalues --  -38.43820 -38.43700 -38.43595 -38.43477 -38.43424
  Beta  occ. eigenvalues --  -38.43424 -38.43281  -2.19639  -2.19562  -2.19447
  Beta  occ. eigenvalues --   -2.19326  -2.19284  -2.19266  -2.19162  -1.13311
  Beta  occ. eigenvalues --   -1.13295  -1.13283  -1.13256  -1.13214  -1.13202
  Beta  occ. eigenvalues --   -1.13154  -1.13109  -1.13074  -1.13041  -1.13004
  Beta  occ. eigenvalues --   -1.12992  -1.12982  -1.12964  -1.12950  -1.12944
  Beta  occ. eigenvalues --   -1.12917  -1.12907  -1.12826  -1.12801  -1.12789
  Beta  occ. eigenvalues --   -0.17989  -0.12584  -0.12443
  Beta virt. eigenvalues --   -0.07019  -0.05483  -0.04951  -0.04792  -0.02349
  Beta virt. eigenvalues --   -0.02291  -0.01675  -0.01237  -0.01037  -0.00392
  Beta virt. eigenvalues --   -0.00275   0.00108   0.00401   0.00870   0.00904

 Mulliken charges and spin densities:
               1          2
     1  Na   0.222376  -0.131321
     2  Na   0.048382  -0.101050
     3  Na  -0.051477  -0.092781
     4  Na  -0.356169   0.724890
     5  Na  -0.294147   0.708768
     6  Na   0.355472  -0.054893
     7  Na   0.075563  -0.053613
 Sum of Mulliken charges =  -0.00000   1.00000

 Dipole moment (field-independent basis, Debye):
    X=             -0.0024    Y=             -0.2848    Z=              0.0299  Tot=              0.2864
 Quadrupole moment (field-independent basis, Debye-Ang):
   XX=            -59.2529   YY=            -62.0047   ZZ=            -73.1814
   XY=             -0.0690   XZ=             -0.0291   YZ=              0.3388

 Normal termination of Gaussian 16 at Wed Nov 29 15:53:51 2023.
