 Gaussian 16, Revision B.01,
 Gaussian 16:  ES64L-G16RevB.01 20-Dec-2017

 -------------------------
 #P B3LYP/6-311+g(d) force
 -------------------------

 -----
 DPGEN
 -----
 Symbolic Z-matrix:
 Charge =  0 Multiplicity = 2

                         Standard orientation:
 ---------------------------------------------------------------------
 Center     Atomic      Atomic             Coordinates (Angstroms)
 Number     Number       Type             X           Y           Z
 ---------------------------------------------------------------------
      1         11           0        0.453557    0.298860   -1.547789
      2         11           0        1.322897    2.723708   -0.089424
      3         11           0       -2.186129    1.922355   -0.052788
      4         11           0        3.029725   -0.823664   -0.160838
      5         11           0       -0.075984    0.127244    2.193631
      6         11           0       -3.111315   -1.462225   -0.422266
      7         11           0        0.567249   -2.786278    0.079475
 ---------------------------------------------------------------------

 SCF Done:  E(UB3LYP) =  -1136.13335921     A.U. after   19 cycles

 The electronic state is 2-A.
 Alpha  occ. eigenvalues --  -38.43993 -38.43940 -38.43812 -38.43796 -38.43556
 Alpha  occ. eigenvalues --  -38.43515 -38.43337  -2.19866  -2.19711  -2.19661
 Alpha  occ. eigenvalues --   -2.19655  -2.19430  -2.19369  -2.19343  -1.13581
 Alpha  occ. eigenvalues --   -1.13524  -1.13502  -1.13383  -1.13378  -1.13359
 Alpha  occ. eigenvalues --   -1.13344  -1.13342  -1.13311  -1.13282  -1.13275
 Alpha  occ. eigenvalues --   -1.13269  -1.13243  -1.13078  -1.13055  -1.13044
 Alpha  occ. eigenvalues --   -1.13033  -1.12999  -1.12990  -1.12960  -1.12921
 Alpha  occ. eigenvalues --   -0.18538  -0.13042  -0.12427  -0.10791
 Alpha virt. eigenvalues --   -0.05502  -0.05394  -0.04788  -0.03200  -0.02949
 Alpha virt. eigenvalues --   -0.02577  -0.01468  -0.01242  -0.00430  -0.00366
 Alpha virt. eigenvalues --   -0.00038   0.00331   0.00814   0.00847   0.00885

  Beta  occ. eigenvalues --  -38.43988 -38.43934 -38.43807 -38.43689 -38.43551
  Beta  occ. eigenvalues --  -38.43511 -38.43285  -2.19861  -2.19701  -2.19650
  Beta  occ. eigenvalues --   -2.19462  -2.19423  -2.19364  -2.19250  -1.13574
  Beta  occ. eigenvalues --   -1.13512  -1.13490  -1.13373  -1.13367  -1.13352
  Beta  occ. eigenvalues --   -1.13336  -1.13309  -1.13268  -1.13222  -1.13183
  Beta  occ. eigenvalues --   -1.13145  -1.13138  -1.13056  -1.13048  -1.13037
  Beta  occ. eigenvalues --   -1.13005  -1.13000  -1.12930  -1.12893  -1.12867
  Beta  occ. eigenvalues --   -0.17827  -0.12813  -0.12203
  Beta virt. eigenvalues --   -0.06873  -0.05416  -0.05379  -0.04725  -0.02417
  Beta virt. eigenvalues --   -0.02176  -0.01564  -0.01387  -0.01189  -0.00463
  Beta virt. eigenvalues --   -0.00398   0.00126   0.00374   0.00844   0.00879

 Mulliken charges and spin densities:
               1          2
     1  Na  -0.182021   0.378898
     2  Na   0.312881  -0.055193
     3  Na   0.168419   0.028788
     4  Na   0.309682  -0.048893
     5  Na  -0.477878   0.674230
     6  Na  -0.138521  -0.003782
     7  Na   0.007438   0.025953
 Sum of Mulliken charges =  -0.00000   1.00000

 Dipole moment (field-independent basis, Debye):
    X=              0.1422    Y=              0.0740    Z=              0.1952  Tot=              0.2526
 Quadrupole moment (field-independent basis, Debye-Ang):
   XX=            -57.8069   YY=            -62.1318   ZZ=            -74.3667
   XY=              0.3795   XZ=              1.0362   YZ=              0.6013

 Normal termination of Gaussian 16 at Thu Dec  7 11:53:43 2023.
