 Gaussian 16, Revision B.01,
 Gaussian 16:  ES64L-G16RevB.01 20-Dec-2017

 -------------------------
 #P B3LYP/6-311+g(d) force
 -------------------------

 -----
 DPGEN
 -----
 Symbolic Z-matrix:
 Charge =  0 Multiplicity = 2

                         Standard orientation:
 ---------------------------------------------------------------------
 Center     Atomic      Atomic             Coordinates (Angstroms)
 Number     Number       Type             X           Y           Z
 ---------------------------------------------------------------------
      1         11           0       -2.164381    2.093780    0.183276
      2         11           0       -0.008024    0.425066   -1.666849
      3         11           0        1.547420    2.426318    0.162550
      4         11           0        0.177419   -0.337715    1.734968
      5         11           0        0.162755   -2.743683   -0.078341
      6         11           0       -2.664594   -1.208423   -0.147228
      7         11           0        2.949406   -0.655344   -0.188376
 ---------------------------------------------------------------------

 SCF Done:  E(UB3LYP) =  -1136.13789344     A.U. after   18 cycles

 The electronic state is 2-A.
 Alpha  occ. eigenvalues --  -38.43812 -38.43645 -38.43612 -38.43575 -38.43200
 Alpha  occ. eigenvalues --  -38.43046 -38.42964  -2.19687  -2.19505  -2.19502
 Alpha  occ. eigenvalues --   -2.19463  -2.19132  -2.19055  -2.18979  -1.13365
 Alpha  occ. eigenvalues --   -1.13354  -1.13331  -1.13216  -1.13193  -1.13183
 Alpha  occ. eigenvalues --   -1.13173  -1.13159  -1.13150  -1.13127  -1.13109
 Alpha  occ. eigenvalues --   -1.13073  -1.12925  -1.12785  -1.12751  -1.12720
 Alpha  occ. eigenvalues --   -1.12657  -1.12650  -1.12642  -1.12607  -1.12589
 Alpha  occ. eigenvalues --   -0.19286  -0.13211  -0.12770  -0.10597
 Alpha virt. eigenvalues --   -0.05422  -0.05208  -0.04692  -0.03096  -0.02916
 Alpha virt. eigenvalues --   -0.02183  -0.01431  -0.01099  -0.00239  -0.00148
 Alpha virt. eigenvalues --    0.00034   0.00369   0.00860   0.00911   0.00937

  Beta  occ. eigenvalues --  -38.43805 -38.43640 -38.43607 -38.43567 -38.43191
  Beta  occ. eigenvalues --  -38.42967 -38.42892  -2.19678  -2.19498  -2.19496
  Beta  occ. eigenvalues --   -2.19453  -2.19121  -2.18912  -2.18849  -1.13361
  Beta  occ. eigenvalues --   -1.13332  -1.13316  -1.13214  -1.13191  -1.13176
  Beta  occ. eigenvalues --   -1.13153  -1.13137  -1.13127  -1.13109  -1.13095
  Beta  occ. eigenvalues --   -1.13069  -1.12890  -1.12751  -1.12743  -1.12633
  Beta  occ. eigenvalues --   -1.12561  -1.12556  -1.12550  -1.12513  -1.12494
  Beta  occ. eigenvalues --   -0.18549  -0.12947  -0.12512
  Beta virt. eigenvalues --   -0.06666  -0.05408  -0.05199  -0.04666  -0.02284
  Beta virt. eigenvalues --   -0.02116  -0.01353  -0.01155  -0.01029  -0.00295
  Beta virt. eigenvalues --   -0.00198   0.00163   0.00394   0.00902   0.00909

 Mulliken charges and spin densities:
               1          2
     1  Na   0.083522  -0.074535
     2  Na  -0.421086   0.612615
     3  Na   0.145066  -0.094209
     4  Na  -0.464101   0.698850
     5  Na   0.324251  -0.031288
     6  Na   0.124369  -0.051108
     7  Na   0.207979  -0.060326
 Sum of Mulliken charges =  -0.00000   1.00000

 Dipole moment (field-independent basis, Debye):
    X=              0.0772    Y=              0.1757    Z=              0.0152  Tot=              0.1925
 Quadrupole moment (field-independent basis, Debye-Ang):
   XX=            -56.2294   YY=            -61.4735   ZZ=            -75.0825
   XY=             -0.3357   XZ=             -0.4774   YZ=              1.8129

 Normal termination of Gaussian 16 at Thu Dec  7 06:58:27 2023.
