 Gaussian 16, Revision B.01,
 Gaussian 16:  ES64L-G16RevB.01 20-Dec-2017

 -------------------------
 #P B3LYP/6-311+g(d) force
 -------------------------

 -----
 DPGEN
 -----
 Symbolic Z-matrix:
 Charge =  0 Multiplicity = 2

                         Standard orientation:
 ---------------------------------------------------------------------
 Center     Atomic      Atomic             Coordinates (Angstroms)
 Number     Number       Type             X           Y           Z
 ---------------------------------------------------------------------
      1         11           0        0.084014   -0.364336   -1.696440
      2         11           0       -0.651298    2.791089   -0.096298
      3         11           0       -1.777622   -2.654552   -0.385635
      4         11           0        3.430987   -1.548787    0.304193
      5         11           0       -0.477984   -0.224570    2.141107
      6         11           0        2.296494    1.566735   -0.269422
      7         11           0       -2.904591    0.434422    0.002495
 ---------------------------------------------------------------------

 SCF Done:  E(UB3LYP) =  -1136.13010644     A.U. after   21 cycles

 The electronic state is 2-A.
 Alpha  occ. eigenvalues --  -38.44437 -38.44212 -38.44207 -38.43625 -38.43597
 Alpha  occ. eigenvalues --  -38.43580 -38.42723  -2.20202  -2.20114  -2.20071
 Alpha  occ. eigenvalues --   -2.19558  -2.19484  -2.19433  -2.18613  -1.13872
 Alpha  occ. eigenvalues --   -1.13864  -1.13839  -1.13827  -1.13787  -1.13751
 Alpha  occ. eigenvalues --   -1.13720  -1.13688  -1.13684  -1.13273  -1.13251
 Alpha  occ. eigenvalues --   -1.13182  -1.13150  -1.13148  -1.13108  -1.13080
 Alpha  occ. eigenvalues --   -1.13078  -1.13070  -1.12292  -1.12276  -1.12253
 Alpha  occ. eigenvalues --   -0.18549  -0.13398  -0.12047  -0.10935
 Alpha virt. eigenvalues --   -0.06227  -0.05191  -0.04353  -0.03399  -0.02799
 Alpha virt. eigenvalues --   -0.02708  -0.01794  -0.01154  -0.00561  -0.00082
 Alpha virt. eigenvalues --   -0.00069   0.00314   0.00642   0.00745   0.00788

  Beta  occ. eigenvalues --  -38.44435 -38.44199 -38.44118 -38.43591 -38.43571
  Beta  occ. eigenvalues --  -38.43559 -38.42720  -2.20199  -2.20103  -2.19897
  Beta  occ. eigenvalues --   -2.19476  -2.19439  -2.19419  -2.18610  -1.13871
  Beta  occ. eigenvalues --   -1.13857  -1.13838  -1.13804  -1.13761  -1.13733
  Beta  occ. eigenvalues --   -1.13609  -1.13570  -1.13564  -1.13219  -1.13183
  Beta  occ. eigenvalues --   -1.13138  -1.13118  -1.13102  -1.13085  -1.13070
  Beta  occ. eigenvalues --   -1.13053  -1.13031  -1.12294  -1.12276  -1.12224
  Beta  occ. eigenvalues --   -0.17807  -0.13184  -0.11818
  Beta virt. eigenvalues --   -0.07065  -0.06064  -0.05117  -0.04297  -0.02720
  Beta virt. eigenvalues --   -0.02109  -0.01759  -0.01583  -0.01053  -0.00610
  Beta virt. eigenvalues --   -0.00097   0.00099   0.00348   0.00788   0.00830

 Mulliken charges and spin densities:
               1          2
     1  Na   0.138278   0.270607
     2  Na  -0.168680  -0.023377
     3  Na   0.068023  -0.025680
     4  Na  -0.073301   0.005187
     5  Na  -0.453489   0.597326
     6  Na   0.081275   0.012266
     7  Na   0.407893   0.163671
 Sum of Mulliken charges =  -0.00000   1.00000

 Dipole moment (field-independent basis, Debye):
    X=              0.0073    Y=             -0.5292    Z=              0.2204  Tot=              0.5733
 Quadrupole moment (field-independent basis, Debye-Ang):
   XX=            -57.2902   YY=            -64.4333   ZZ=            -73.3234
   XY=             -1.2326   XZ=              1.2097   YZ=             -0.7847

 Normal termination of Gaussian 16 at Tue Dec  5 12:32:56 2023.
