 Gaussian 16, Revision B.01,
 Gaussian 16:  ES64L-G16RevB.01 20-Dec-2017

 -------------------------
 #P B3LYP/6-311+g(d) force
 -------------------------

 -----
 DPGEN
 -----
 Symbolic Z-matrix:
 Charge =  0 Multiplicity = 2

                         Standard orientation:
 ---------------------------------------------------------------------
 Center     Atomic      Atomic             Coordinates (Angstroms)
 Number     Number       Type             X           Y           Z
 ---------------------------------------------------------------------
      1         11           0        2.756968   -0.636784   -0.277761
      2         11           0        0.091783    0.054289   -1.666814
      3         11           0        1.563577    2.645444    0.396237
      4         11           0       -0.282763   -0.389814    2.077873
      5         11           0        0.650017   -2.794455   -0.088043
      6         11           0       -1.803442    2.266295   -0.315470
      7         11           0       -2.976141   -1.144974   -0.126022
 ---------------------------------------------------------------------

 SCF Done:  E(UB3LYP) =  -1136.13652452     A.U. after   19 cycles

 The electronic state is 2-A.
 Alpha  occ. eigenvalues --  -38.43791 -38.43718 -38.43694 -38.43543 -38.43507
 Alpha  occ. eigenvalues --  -38.43467 -38.43269  -2.19605  -2.19601  -2.19549
 Alpha  occ. eigenvalues --   -2.19456  -2.19428  -2.19295  -2.19274  -1.13296
 Alpha  occ. eigenvalues --   -1.13285  -1.13280  -1.13259  -1.13253  -1.13245
 Alpha  occ. eigenvalues --   -1.13240  -1.13209  -1.13206  -1.13163  -1.13154
 Alpha  occ. eigenvalues --   -1.13112  -1.13094  -1.13058  -1.12991  -1.12958
 Alpha  occ. eigenvalues --   -1.12952  -1.12941  -1.12932  -1.12895  -1.12873
 Alpha  occ. eigenvalues --   -0.18829  -0.13019  -0.12556  -0.10941
 Alpha virt. eigenvalues --   -0.05367  -0.04998  -0.04856  -0.03220  -0.03099
 Alpha virt. eigenvalues --   -0.02641  -0.01318  -0.01146  -0.00231  -0.00194
 Alpha virt. eigenvalues --    0.00002   0.00367   0.00864   0.00880   0.00919

  Beta  occ. eigenvalues --  -38.43790 -38.43687 -38.43626 -38.43536 -38.43498
  Beta  occ. eigenvalues --  -38.43460 -38.43202  -2.19602  -2.19538  -2.19447
  Beta  occ. eigenvalues --   -2.19433  -2.19416  -2.19284  -2.19153  -1.13274
  Beta  occ. eigenvalues --   -1.13267  -1.13263  -1.13250  -1.13241  -1.13189
  Beta  occ. eigenvalues --   -1.13165  -1.13160  -1.13137  -1.13122  -1.13099
  Beta  occ. eigenvalues --   -1.13089  -1.13057  -1.13027  -1.12987  -1.12944
  Beta  occ. eigenvalues --   -1.12937  -1.12932  -1.12856  -1.12809  -1.12793
  Beta  occ. eigenvalues --   -0.18091  -0.12742  -0.12340
  Beta virt. eigenvalues --   -0.07021  -0.05368  -0.04929  -0.04809  -0.02403
  Beta virt. eigenvalues --   -0.02335  -0.01609  -0.01234  -0.01064  -0.00256
  Beta virt. eigenvalues --   -0.00241   0.00130   0.00389   0.00874   0.00909

 Mulliken charges and spin densities:
               1          2
     1  Na   0.293990   0.058376
     2  Na  -0.157178   0.361408
     3  Na  -0.024375   0.030745
     4  Na  -0.568300   0.769843
     5  Na   0.293316  -0.052857
     6  Na   0.104868  -0.048611
     7  Na   0.057679  -0.118904
 Sum of Mulliken charges =  -0.00000   1.00000

 Dipole moment (field-independent basis, Debye):
    X=             -0.2671    Y=             -0.0327    Z=              0.1871  Tot=              0.3277
 Quadrupole moment (field-independent basis, Debye-Ang):
   XX=            -59.7969   YY=            -61.2042   ZZ=            -73.2621
   XY=              0.7287   XZ=              0.9481   YZ=              1.0557

 Normal termination of Gaussian 16 at Thu Dec  7 06:28:08 2023.
