 Gaussian 16, Revision B.01,
 Gaussian 16:  ES64L-G16RevB.01 20-Dec-2017

 -------------------------
 #P B3LYP/6-311+g(d) force
 -------------------------

 -----
 DPGEN
 -----
 Symbolic Z-matrix:
 Charge =  0 Multiplicity = 2

                         Standard orientation:
 ---------------------------------------------------------------------
 Center     Atomic      Atomic             Coordinates (Angstroms)
 Number     Number       Type             X           Y           Z
 ---------------------------------------------------------------------
      1         11           0       -0.766463   -0.866158   -1.797594
      2         11           0        1.689935   -2.239023    0.545161
      3         11           0       -2.605948    1.531344   -0.442496
      4         11           0        3.283498    0.143705   -0.794655
      5         11           0       -2.535098   -1.659142    0.292266
      6         11           0        0.944069    2.582073   -0.083926
      7         11           0       -0.009992    0.507202    2.281244
 ---------------------------------------------------------------------

 SCF Done:  E(UB3LYP) =  -1136.12763186     A.U. after   20 cycles

 The electronic state is 2-A.
 Alpha  occ. eigenvalues --  -38.44313 -38.44161 -38.44127 -38.44078 -38.44023
 Alpha  occ. eigenvalues --  -38.43514 -38.42947  -2.20137  -2.20071  -2.20035
 Alpha  occ. eigenvalues --   -2.19933  -2.19884  -2.19350  -2.18783  -1.13988
 Alpha  occ. eigenvalues --   -1.13815  -1.13791  -1.13776  -1.13741  -1.13698
 Alpha  occ. eigenvalues --   -1.13681  -1.13646  -1.13601  -1.13581  -1.13574
 Alpha  occ. eigenvalues --   -1.13543  -1.13538  -1.13519  -1.13501  -1.13021
 Alpha  occ. eigenvalues --   -1.13012  -1.12989  -1.12470  -1.12450  -1.12414
 Alpha  occ. eigenvalues --   -0.18356  -0.13551  -0.11840  -0.11271
 Alpha virt. eigenvalues --   -0.05848  -0.05466  -0.04001  -0.03805  -0.03238
 Alpha virt. eigenvalues --   -0.02830  -0.01554  -0.00947  -0.00363  -0.00108
 Alpha virt. eigenvalues --   -0.00016   0.00357   0.00626   0.00774   0.00865

  Beta  occ. eigenvalues --  -38.44294 -38.44157 -38.44086 -38.44068 -38.43927
  Beta  occ. eigenvalues --  -38.43504 -38.42942  -2.20103  -2.20057  -2.19971
  Beta  occ. eigenvalues --   -2.19917  -2.19707  -2.19334  -2.18777  -1.13962
  Beta  occ. eigenvalues --   -1.13792  -1.13762  -1.13754  -1.13727  -1.13665
  Beta  occ. eigenvalues --   -1.13648  -1.13606  -1.13572  -1.13566  -1.13538
  Beta  occ. eigenvalues --   -1.13526  -1.13425  -1.13394  -1.13374  -1.13014
  Beta  occ. eigenvalues --   -1.12984  -1.12974  -1.12462  -1.12433  -1.12410
  Beta  occ. eigenvalues --   -0.17637  -0.13297  -0.11678
  Beta virt. eigenvalues --   -0.07410  -0.05704  -0.05356  -0.03832  -0.03118
  Beta virt. eigenvalues --   -0.02581  -0.01880  -0.01459  -0.00855  -0.00333
  Beta virt. eigenvalues --   -0.00052   0.00070   0.00417   0.00811   0.00853

 Mulliken charges and spin densities:
               1          2
     1  Na  -0.169045   0.283231
     2  Na   0.011824   0.135566
     3  Na   0.056082  -0.079557
     4  Na   0.003771  -0.028517
     5  Na   0.436176   0.064579
     6  Na  -0.040547   0.101148
     7  Na  -0.298262   0.523549
 Sum of Mulliken charges =  -0.00000   1.00000

 Dipole moment (field-independent basis, Debye):
    X=             -0.3415    Y=             -0.1027    Z=             -0.0693  Tot=              0.3633
 Quadrupole moment (field-independent basis, Debye-Ang):
   XX=            -57.1511   YY=            -70.2870   ZZ=            -69.5041
   XY=             -0.0349   XZ=             -2.1592   YZ=             -3.1655

 Normal termination of Gaussian 16 at Tue Dec  5 22:13:28 2023.
