 Gaussian 16, Revision B.01,
 Gaussian 16:  ES64L-G16RevB.01 20-Dec-2017

 -------------------------
 #P B3LYP/6-311+g(d) force
 -------------------------

 -----
 DPGEN
 -----
 Symbolic Z-matrix:
 Charge =  0 Multiplicity = 2

                         Standard orientation:
 ---------------------------------------------------------------------
 Center     Atomic      Atomic             Coordinates (Angstroms)
 Number     Number       Type             X           Y           Z
 ---------------------------------------------------------------------
      1         11           0        3.169749    1.463931    1.171618
      2         11           0       -1.900813   -2.380729    0.035300
      3         11           0       -2.582655    1.295588   -1.181649
      4         11           0        4.550958   -1.210877   -0.688135
      5         11           0        1.217785   -2.060350    0.084177
      6         11           0       -4.765491   -0.256534    0.758266
      7         11           0        0.310467    3.148971   -0.179579
 ---------------------------------------------------------------------

 SCF Done:  E(UB3LYP) =  -1136.11702676     A.U. after   22 cycles

 The electronic state is 2-A.
 Alpha  occ. eigenvalues --  -38.45098 -38.44863 -38.44508 -38.44484 -38.43957
 Alpha  occ. eigenvalues --  -38.43708 -38.42918  -2.20859  -2.20652  -2.20310
 Alpha  occ. eigenvalues --   -2.20306  -2.19799  -2.19540  -2.18698  -1.14556
 Alpha  occ. eigenvalues --   -1.14530  -1.14480  -1.14351  -1.14324  -1.14282
 Alpha  occ. eigenvalues --   -1.13964  -1.13958  -1.13956  -1.13952  -1.13931
 Alpha  occ. eigenvalues --   -1.13921  -1.13512  -1.13467  -1.13414  -1.13218
 Alpha  occ. eigenvalues --   -1.13204  -1.13152  -1.12367  -1.12360  -1.12340
 Alpha  occ. eigenvalues --   -0.16312  -0.14365  -0.12296  -0.10880
 Alpha virt. eigenvalues --   -0.07057  -0.04903  -0.04646  -0.03502  -0.03357
 Alpha virt. eigenvalues --   -0.02297  -0.02197  -0.01174  -0.00823  -0.00753
 Alpha virt. eigenvalues --   -0.00661  -0.00336   0.00360   0.00438   0.00548

  Beta  occ. eigenvalues --  -38.45099 -38.44852 -38.44467 -38.44412 -38.43911
  Beta  occ. eigenvalues --  -38.43667 -38.42901  -2.20862  -2.20637  -2.20230
  Beta  occ. eigenvalues --   -2.20175  -2.19721  -2.19472  -2.18665  -1.14558
  Beta  occ. eigenvalues --   -1.14534  -1.14470  -1.14337  -1.14314  -1.14250
  Beta  occ. eigenvalues --   -1.13912  -1.13905  -1.13879  -1.13863  -1.13859
  Beta  occ. eigenvalues --   -1.13838  -1.13433  -1.13420  -1.13345  -1.13178
  Beta  occ. eigenvalues --   -1.13160  -1.13066  -1.12345  -1.12336  -1.12321
  Beta  occ. eigenvalues --   -0.15703  -0.13821  -0.11653
  Beta virt. eigenvalues --   -0.07516  -0.07050  -0.04509  -0.04407  -0.03168
  Beta virt. eigenvalues --   -0.03041  -0.02103  -0.01722  -0.00888  -0.00670
  Beta virt. eigenvalues --   -0.00461  -0.00379  -0.00221   0.00456   0.00502

 Mulliken charges and spin densities:
               1          2
     1  Na   0.065139   0.048353
     2  Na  -0.259568  -0.193415
     3  Na  -0.163792   0.096321
     4  Na   0.920254   0.404577
     5  Na  -0.669951   0.215505
     6  Na   0.261195   0.373412
     7  Na  -0.153277   0.055247
 Sum of Mulliken charges =  -0.00000   1.00000

 Dipole moment (field-independent basis, Debye):
    X=              0.0915    Y=             -0.3774    Z=              0.1635  Tot=              0.4213
 Quadrupole moment (field-independent basis, Debye-Ang):
   XX=            -55.5582   YY=            -74.4597   ZZ=            -66.4616
   XY=              1.1056   XZ=             -1.8418   YZ=              1.2616

 Normal termination of Gaussian 16 at Sun Dec  3 14:21:10 2023.
