 Gaussian 16, Revision B.01,
 Gaussian 16:  ES64L-G16RevB.01 20-Dec-2017

 -------------------------
 #P B3LYP/6-311+g(d) force
 -------------------------

 -----
 DPGEN
 -----
 Symbolic Z-matrix:
 Charge =  0 Multiplicity = 2

                         Standard orientation:
 ---------------------------------------------------------------------
 Center     Atomic      Atomic             Coordinates (Angstroms)
 Number     Number       Type             X           Y           Z
 ---------------------------------------------------------------------
      1         11           0       -0.126052   -0.265310    1.519500
      2         11           0       -1.444818   -2.096255   -0.579355
      3         11           0        2.104741   -1.241658   -1.487622
      4         11           0       -4.188611   -0.120676    0.270129
      5         11           0       -1.875843    1.704891   -0.302803
      6         11           0        3.711307   -0.755416    1.053645
      7         11           0        1.819276    2.774424   -0.473493
 ---------------------------------------------------------------------

 SCF Done:  E(UB3LYP) =  -1136.11183673     A.U. after   27 cycles

 The electronic state is 2-A.
 Alpha  occ. eigenvalues --  -38.45570 -38.44831 -38.44114 -38.43788 -38.43626
 Alpha  occ. eigenvalues --  -38.43497 -38.43441  -2.21458  -2.20659  -2.19963
 Alpha  occ. eigenvalues --   -2.19676  -2.19395  -2.19380  -2.19324  -1.15172
 Alpha  occ. eigenvalues --   -1.15094  -1.15070  -1.14386  -1.14310  -1.14289
 Alpha  occ. eigenvalues --   -1.13626  -1.13594  -1.13569  -1.13406  -1.13312
 Alpha  occ. eigenvalues --   -1.13280  -1.13096  -1.13075  -1.13064  -1.13029
 Alpha  occ. eigenvalues --   -1.13027  -1.13017  -1.12991  -1.12980  -1.12919
 Alpha  occ. eigenvalues --   -0.18010  -0.14481  -0.11444  -0.10192
 Alpha virt. eigenvalues --   -0.07433  -0.05538  -0.04249  -0.03454  -0.03376
 Alpha virt. eigenvalues --   -0.02199  -0.01573  -0.01529  -0.01023  -0.00672
 Alpha virt. eigenvalues --   -0.00145   0.00009   0.00226   0.00578   0.00703

  Beta  occ. eigenvalues --  -38.45544 -38.44828 -38.44042 -38.43709 -38.43627
  Beta  occ. eigenvalues --  -38.43483 -38.43413  -2.21411  -2.20661  -2.19831
  Beta  occ. eigenvalues --   -2.19530  -2.19383  -2.19377  -2.19276  -1.15133
  Beta  occ. eigenvalues --   -1.15062  -1.15043  -1.14370  -1.14316  -1.14266
  Beta  occ. eigenvalues --   -1.13534  -1.13507  -1.13479  -1.13313  -1.13213
  Beta  occ. eigenvalues --   -1.13181  -1.13085  -1.13077  -1.13044  -1.13032
  Beta  occ. eigenvalues --   -1.13009  -1.12990  -1.12954  -1.12930  -1.12879
  Beta  occ. eigenvalues --   -0.17498  -0.13745  -0.11155
  Beta virt. eigenvalues --   -0.07299  -0.06672  -0.05459  -0.03870  -0.03324
  Beta virt. eigenvalues --   -0.02677  -0.02097  -0.01473  -0.01134  -0.00463
  Beta virt. eigenvalues --   -0.00435   0.00092   0.00155   0.00354   0.00681

 Mulliken charges and spin densities:
               1          2
     1  Na  -0.224824  -0.118433
     2  Na  -0.283923   0.001189
     3  Na   0.198708   0.072722
     4  Na   1.081490   0.430093
     5  Na  -0.765917   0.163155
     6  Na   0.221170   0.498447
     7  Na  -0.226704  -0.047173
 Sum of Mulliken charges =  -0.00000   1.00000

 Dipole moment (field-independent basis, Debye):
    X=              0.3291    Y=             -0.6399    Z=              0.1124  Tot=              0.7283
 Quadrupole moment (field-independent basis, Debye-Ang):
   XX=            -72.1561   YY=            -76.7209   ZZ=            -58.6961
   XY=              5.4743   XZ=             -0.5529   YZ=             -0.7593

 Normal termination of Gaussian 16 at Mon Dec  4 00:47:25 2023.
