 Gaussian 16, Revision B.01,
 Gaussian 16:  ES64L-G16RevB.01 20-Dec-2017

 -------------------------
 #P B3LYP/6-311+g(d) force
 -------------------------

 -----
 DPGEN
 -----
 Symbolic Z-matrix:
 Charge =  0 Multiplicity = 2

                         Standard orientation:
 ---------------------------------------------------------------------
 Center     Atomic      Atomic             Coordinates (Angstroms)
 Number     Number       Type             X           Y           Z
 ---------------------------------------------------------------------
      1         11           0        3.311730   -1.854148    0.963650
      2         11           0        3.062957    0.923500   -0.652324
      3         11           0       -1.846341    0.334651   -2.316726
      4         11           0       -4.095315   -0.922902    0.516983
      5         11           0        0.181938   -1.882344   -0.937259
      6         11           0        0.605755    2.542898   -0.121526
      7         11           0       -1.220723    0.858344    2.547202
 ---------------------------------------------------------------------

 SCF Done:  E(UB3LYP) =  -1136.11086771     A.U. after   25 cycles

 The electronic state is 2-A.
 Alpha  occ. eigenvalues --  -38.45570 -38.45093 -38.44665 -38.44528 -38.44421
 Alpha  occ. eigenvalues --  -38.43653 -38.42439  -2.21300  -2.20853  -2.20482
 Alpha  occ. eigenvalues --   -2.20388  -2.20204  -2.19469  -2.18289  -1.14982
 Alpha  occ. eigenvalues --   -1.14953  -1.14931  -1.14524  -1.14494  -1.14465
 Alpha  occ. eigenvalues --   -1.14174  -1.14113  -1.14092  -1.14086  -1.14057
 Alpha  occ. eigenvalues --   -1.14015  -1.13907  -1.13893  -1.13797  -1.13137
 Alpha  occ. eigenvalues --   -1.13123  -1.13091  -1.11996  -1.11931  -1.11927
 Alpha  occ. eigenvalues --   -0.17066  -0.13563  -0.11690  -0.11216
 Alpha virt. eigenvalues --   -0.07070  -0.05409  -0.04143  -0.03730  -0.03216
 Alpha virt. eigenvalues --   -0.02695  -0.02333  -0.01386  -0.00663  -0.00431
 Alpha virt. eigenvalues --   -0.00166   0.00087   0.00125   0.00480   0.00664

  Beta  occ. eigenvalues --  -38.45558 -38.45027 -38.44595 -38.44523 -38.44408
  Beta  occ. eigenvalues --  -38.43629 -38.42432  -2.21277  -2.20730  -2.20381
  Beta  occ. eigenvalues --   -2.20353  -2.20184  -2.19423  -2.18278  -1.14968
  Beta  occ. eigenvalues --   -1.14927  -1.14915  -1.14440  -1.14414  -1.14375
  Beta  occ. eigenvalues --   -1.14082  -1.14080  -1.14045  -1.14028  -1.14012
  Beta  occ. eigenvalues --   -1.13997  -1.13884  -1.13873  -1.13779  -1.13105
  Beta  occ. eigenvalues --   -1.13090  -1.13063  -1.11990  -1.11926  -1.11904
  Beta  occ. eigenvalues --   -0.16433  -0.13171  -0.11133
  Beta virt. eigenvalues --   -0.07981  -0.06832  -0.04967  -0.03608  -0.03342
  Beta virt. eigenvalues --   -0.03031  -0.02241  -0.02137  -0.01048  -0.00478
  Beta virt. eigenvalues --   -0.00283   0.00034   0.00155   0.00210   0.00582

 Mulliken charges and spin densities:
               1          2
     1  Na   0.277764   0.070175
     2  Na   0.004396  -0.051399
     3  Na   0.350311   0.146919
     4  Na   0.043078   0.066343
     5  Na  -0.367978   0.194840
     6  Na  -0.265407   0.280767
     7  Na  -0.042164   0.292355
 Sum of Mulliken charges =  -0.00000   1.00000

 Dipole moment (field-independent basis, Debye):
    X=             -1.1025    Y=             -0.4776    Z=              0.2269  Tot=              1.2227
 Quadrupole moment (field-independent basis, Debye-Ang):
   XX=            -55.1387   YY=            -76.7901   ZZ=            -66.1406
   XY=              1.8578   XZ=              1.0392   YZ=             -5.1270

 Normal termination of Gaussian 16 at Sun Dec  3 11:41:28 2023.
