 Gaussian 16, Revision B.01,
 Gaussian 16:  ES64L-G16RevB.01 20-Dec-2017

 -------------------------
 #P B3LYP/6-311+g(d) force
 -------------------------

 -----
 DPGEN
 -----
 Symbolic Z-matrix:
 Charge =  0 Multiplicity = 2

                         Standard orientation:
 ---------------------------------------------------------------------
 Center     Atomic      Atomic             Coordinates (Angstroms)
 Number     Number       Type             X           Y           Z
 ---------------------------------------------------------------------
      1         11           0       -1.770046    2.387360   -0.001445
      2         11           0        0.540504   -2.719262   -0.264382
      3         11           0        1.422258    2.265907   -0.290846
      4         11           0        3.277063   -0.398309   -0.041887
      5         11           0       -3.147983   -1.183895   -0.198751
      6         11           0       -0.105110   -0.224292    2.136371
      7         11           0       -0.216686   -0.127510   -1.339060
 ---------------------------------------------------------------------

 SCF Done:  E(UB3LYP) =  -1136.13141535     A.U. after   19 cycles

 The electronic state is 2-A.
 Alpha  occ. eigenvalues --  -38.44474 -38.44203 -38.43625 -38.43505 -38.43481
 Alpha  occ. eigenvalues --  -38.43083 -38.42943  -2.20269  -2.20027  -2.19509
 Alpha  occ. eigenvalues --   -2.19390  -2.19352  -2.19038  -2.19008  -1.13952
 Alpha  occ. eigenvalues --   -1.13920  -1.13905  -1.13707  -1.13688  -1.13663
 Alpha  occ. eigenvalues --   -1.13314  -1.13166  -1.13094  -1.13074  -1.13052
 Alpha  occ. eigenvalues --   -1.13016  -1.13002  -1.12999  -1.12985  -1.12804
 Alpha  occ. eigenvalues --   -1.12700  -1.12653  -1.12645  -1.12629  -1.12595
 Alpha  occ. eigenvalues --   -0.18865  -0.13019  -0.12547  -0.10608
 Alpha virt. eigenvalues --   -0.06075  -0.05063  -0.04413  -0.02970  -0.02770
 Alpha virt. eigenvalues --   -0.02466  -0.01933  -0.01128  -0.00369  -0.00147
 Alpha virt. eigenvalues --   -0.00016   0.00305   0.00766   0.00855   0.00912

  Beta  occ. eigenvalues --  -38.44470 -38.44202 -38.43615 -38.43477 -38.43398
  Beta  occ. eigenvalues --  -38.43074 -38.42892  -2.20265  -2.20028  -2.19495
  Beta  occ. eigenvalues --   -2.19348  -2.19191  -2.18998  -2.18947  -1.13938
  Beta  occ. eigenvalues --   -1.13912  -1.13905  -1.13711  -1.13671  -1.13665
  Beta  occ. eigenvalues --   -1.13296  -1.13128  -1.13089  -1.13063  -1.12996
  Beta  occ. eigenvalues --   -1.12980  -1.12928  -1.12868  -1.12858  -1.12771
  Beta  occ. eigenvalues --   -1.12637  -1.12628  -1.12611  -1.12589  -1.12543
  Beta  occ. eigenvalues --   -0.18144  -0.12813  -0.12289
  Beta virt. eigenvalues --   -0.06632  -0.06041  -0.05052  -0.04397  -0.02247
  Beta virt. eigenvalues --   -0.01973  -0.01856  -0.01336  -0.01070  -0.00417
  Beta virt. eigenvalues --   -0.00176   0.00141   0.00345   0.00795   0.00878

 Mulliken charges and spin densities:
               1          2
     1  Na   0.310209   0.054129
     2  Na   0.429588   0.014151
     3  Na   0.347568   0.072257
     4  Na   0.199906   0.033619
     5  Na   0.271493  -0.010317
     6  Na  -0.649650   0.752861
     7  Na  -0.909114   0.083299
 Sum of Mulliken charges =  -0.00000   1.00000

 Dipole moment (field-independent basis, Debye):
    X=             -0.2664    Y=             -0.3174    Z=              0.3104  Tot=              0.5177
 Quadrupole moment (field-independent basis, Debye-Ang):
   XX=            -52.1619   YY=            -64.0953   ZZ=            -75.5792
   XY=             -0.3781   XZ=             -0.1196   YZ=              0.2829

 Normal termination of Gaussian 16 at Tue Dec  5 19:19:56 2023.
