 Gaussian 16, Revision B.01,
 Gaussian 16:  ES64L-G16RevB.01 20-Dec-2017

 -------------------------
 #P B3LYP/6-311+g(d) force
 -------------------------

 -----
 DPGEN
 -----
 Symbolic Z-matrix:
 Charge =  0 Multiplicity = 2

                         Standard orientation:
 ---------------------------------------------------------------------
 Center     Atomic      Atomic             Coordinates (Angstroms)
 Number     Number       Type             X           Y           Z
 ---------------------------------------------------------------------
      1         11           0        1.071484   -2.825296    0.124865
      2         11           0       -0.146602   -0.057930    2.209642
      3         11           0        0.164520    0.148189   -1.556969
      4         11           0        3.324326   -0.025357   -0.245743
      5         11           0       -2.682440    1.591150   -0.041133
      6         11           0       -2.561998   -1.879189   -0.459955
      7         11           0        0.830711    3.048432   -0.030708
 ---------------------------------------------------------------------

 SCF Done:  E(UB3LYP) =  -1136.13770181     A.U. after   19 cycles

 The electronic state is 2-A.
 Alpha  occ. eigenvalues --  -38.44224 -38.43940 -38.43758 -38.43722 -38.43711
 Alpha  occ. eigenvalues --  -38.43597 -38.43214  -2.20018  -2.19756  -2.19602
 Alpha  occ. eigenvalues --   -2.19533  -2.19512  -2.19414  -2.19159  -1.13700
 Alpha  occ. eigenvalues --   -1.13674  -1.13653  -1.13435  -1.13427  -1.13392
 Alpha  occ. eigenvalues --   -1.13260  -1.13227  -1.13221  -1.13209  -1.13203
 Alpha  occ. eigenvalues --   -1.13185  -1.13175  -1.13173  -1.13142  -1.13091
 Alpha  occ. eigenvalues --   -1.13085  -1.13044  -1.12851  -1.12795  -1.12785
 Alpha  occ. eigenvalues --   -0.18127  -0.12804  -0.12343  -0.10629
 Alpha virt. eigenvalues --   -0.05720  -0.05262  -0.04982  -0.03042  -0.02869
 Alpha virt. eigenvalues --   -0.02606  -0.01599  -0.01265  -0.00625  -0.00591
 Alpha virt. eigenvalues --   -0.00035   0.00334   0.00762   0.00812   0.00852

  Beta  occ. eigenvalues --  -38.44221 -38.43937 -38.43712 -38.43710 -38.43651
  Beta  occ. eigenvalues --  -38.43593 -38.43165  -2.20014  -2.19753  -2.19518
  Beta  occ. eigenvalues --   -2.19513  -2.19410  -2.19403  -2.19069  -1.13686
  Beta  occ. eigenvalues --   -1.13669  -1.13652  -1.13430  -1.13412  -1.13388
  Beta  occ. eigenvalues --   -1.13198  -1.13188  -1.13175  -1.13168  -1.13162
  Beta  occ. eigenvalues --   -1.13142  -1.13127  -1.13092  -1.13089  -1.13076
  Beta  occ. eigenvalues --   -1.13054  -1.13045  -1.12786  -1.12732  -1.12716
  Beta  occ. eigenvalues --   -0.17427  -0.12588  -0.12142
  Beta virt. eigenvalues --   -0.06707  -0.05705  -0.05252  -0.04872  -0.02314
  Beta virt. eigenvalues --   -0.02132  -0.01543  -0.01501  -0.01187  -0.00673
  Beta virt. eigenvalues --   -0.00629   0.00126   0.00375   0.00804   0.00834

 Mulliken charges and spin densities:
               1          2
     1  Na   0.117269   0.001496
     2  Na  -0.467918   0.782927
     3  Na  -0.079253   0.334601
     4  Na   0.115979  -0.059045
     5  Na   0.170137  -0.008039
     6  Na   0.090971   0.019204
     7  Na   0.052815  -0.071144
 Sum of Mulliken charges =  -0.00000   1.00000

 Dipole moment (field-independent basis, Debye):
    X=              0.1532    Y=              0.1102    Z=              0.0939  Tot=              0.2108
 Quadrupole moment (field-independent basis, Debye-Ang):
   XX=            -56.6501   YY=            -61.0479   ZZ=            -75.3543
   XY=              0.0432   XZ=              0.5824   YZ=              0.6355

 Normal termination of Gaussian 16 at Fri Dec  8 00:28:56 2023.
