 Gaussian 16, Revision B.01,
 Gaussian 16:  ES64L-G16RevB.01 20-Dec-2017

 -------------------------
 #P B3LYP/6-311+g(d) force
 -------------------------

 -----
 DPGEN
 -----
 Symbolic Z-matrix:
 Charge =  0 Multiplicity = 2

                         Standard orientation:
 ---------------------------------------------------------------------
 Center     Atomic      Atomic             Coordinates (Angstroms)
 Number     Number       Type             X           Y           Z
 ---------------------------------------------------------------------
      1         11           0        1.699127   -2.822901    0.304986
      2         11           0       -3.014187   -1.610365   -0.469452
      3         11           0       -0.171724   -0.280239    2.100943
      4         11           0       -2.616153    1.680270    0.014309
      5         11           0        3.110080    0.534942   -0.483903
      6         11           0        0.915098    2.904761    0.100355
      7         11           0        0.077759   -0.406468   -1.567238
 ---------------------------------------------------------------------

 SCF Done:  E(UB3LYP) =  -1136.13458352     A.U. after   19 cycles

 The electronic state is 2-A.
 Alpha  occ. eigenvalues --  -38.44248 -38.44091 -38.44068 -38.43814 -38.43694
 Alpha  occ. eigenvalues --  -38.43557 -38.43067  -2.20058  -2.19933  -2.19887
 Alpha  occ. eigenvalues --   -2.19662  -2.19497  -2.19470  -2.18891  -1.13726
 Alpha  occ. eigenvalues --   -1.13718  -1.13701  -1.13621  -1.13597  -1.13564
 Alpha  occ. eigenvalues --   -1.13557  -1.13550  -1.13516  -1.13329  -1.13293
 Alpha  occ. eigenvalues --   -1.13275  -1.13181  -1.13162  -1.13150  -1.13143
 Alpha  occ. eigenvalues --   -1.13104  -1.13087  -1.12564  -1.12557  -1.12538
 Alpha  occ. eigenvalues --   -0.18095  -0.13270  -0.12066  -0.10652
 Alpha virt. eigenvalues --   -0.05866  -0.05519  -0.04696  -0.03222  -0.02765
 Alpha virt. eigenvalues --   -0.02529  -0.01799  -0.01327  -0.00679  -0.00400
 Alpha virt. eigenvalues --   -0.00050   0.00315   0.00715   0.00764   0.00815

  Beta  occ. eigenvalues --  -38.44233 -38.44077 -38.44065 -38.43714 -38.43689
  Beta  occ. eigenvalues --  -38.43511 -38.43067  -2.20032  -2.19910  -2.19884
  Beta  occ. eigenvalues --   -2.19490  -2.19478  -2.19386  -2.18894  -1.13706
  Beta  occ. eigenvalues --   -1.13698  -1.13679  -1.13598  -1.13575  -1.13556
  Beta  occ. eigenvalues --   -1.13545  -1.13543  -1.13506  -1.13210  -1.13169
  Beta  occ. eigenvalues --   -1.13167  -1.13152  -1.13139  -1.13119  -1.13096
  Beta  occ. eigenvalues --   -1.13045  -1.13030  -1.12568  -1.12556  -1.12525
  Beta  occ. eigenvalues --   -0.17421  -0.13011  -0.11849
  Beta virt. eigenvalues --   -0.06850  -0.05759  -0.05433  -0.04597  -0.02561
  Beta virt. eigenvalues --   -0.02089  -0.01643  -0.01547  -0.01227  -0.00696
  Beta virt. eigenvalues --   -0.00422   0.00110   0.00371   0.00767   0.00814

 Mulliken charges and spin densities:
               1          2
     1  Na  -0.003243  -0.006002
     2  Na   0.231968   0.049460
     3  Na  -0.310917   0.662562
     4  Na   0.004898   0.029382
     5  Na   0.266499   0.064140
     6  Na  -0.166850   0.000010
     7  Na  -0.022354   0.200447
 Sum of Mulliken charges =  -0.00000   1.00000

 Dipole moment (field-independent basis, Debye):
    X=             -0.2566    Y=             -0.3770    Z=              0.0573  Tot=              0.4596
 Quadrupole moment (field-independent basis, Debye-Ang):
   XX=            -55.8690   YY=            -63.2482   ZZ=            -74.8459
   XY=             -0.5588   XZ=              0.0662   YZ=              0.0271

 Normal termination of Gaussian 16 at Thu Dec  7 15:52:39 2023.
