 Gaussian 16, Revision B.01,
 Gaussian 16:  ES64L-G16RevB.01 20-Dec-2017

 -------------------------
 #P B3LYP/6-311+g(d) force
 -------------------------

 -----
 DPGEN
 -----
 Symbolic Z-matrix:
 Charge =  0 Multiplicity = 2

                         Standard orientation:
 ---------------------------------------------------------------------
 Center     Atomic      Atomic             Coordinates (Angstroms)
 Number     Number       Type             X           Y           Z
 ---------------------------------------------------------------------
      1         11           0       -3.577032   -0.903185    0.353964
      2         11           0        3.490117    1.378570    0.250921
      3         11           0       -0.762031   -1.847095   -0.632649
      4         11           0        0.354929    1.136708   -1.377895
      5         11           0        0.593459   -0.095245    2.185592
      6         11           0        2.495470   -1.756175   -0.574330
      7         11           0       -2.594911    2.086423   -0.205602
 ---------------------------------------------------------------------

 SCF Done:  E(UB3LYP) =  -1136.11770383     A.U. after   27 cycles

 The electronic state is 2-A.
 Alpha  occ. eigenvalues --  -38.45384 -38.44815 -38.44794 -38.44166 -38.43692
 Alpha  occ. eigenvalues --  -38.43582 -38.42462  -2.21217  -2.20617  -2.20612
 Alpha  occ. eigenvalues --   -2.20031  -2.19522  -2.19487  -2.18398  -1.14899
 Alpha  occ. eigenvalues --   -1.14866  -1.14859  -1.14294  -1.14290  -1.14274
 Alpha  occ. eigenvalues --   -1.14261  -1.14247  -1.14217  -1.13705  -1.13685
 Alpha  occ. eigenvalues --   -1.13670  -1.13228  -1.13187  -1.13177  -1.13170
 Alpha  occ. eigenvalues --   -1.13136  -1.13079  -1.12097  -1.12052  -1.12036
 Alpha  occ. eigenvalues --   -0.18447  -0.14228  -0.11195  -0.10821
 Alpha virt. eigenvalues --   -0.07375  -0.05815  -0.03943  -0.03206  -0.02941
 Alpha virt. eigenvalues --   -0.02459  -0.02340  -0.01537  -0.00592  -0.00426
 Alpha virt. eigenvalues --    0.00035   0.00154   0.00370   0.00544   0.00649

  Beta  occ. eigenvalues --  -38.45378 -38.44816 -38.44706 -38.44150 -38.43691
  Beta  occ. eigenvalues --  -38.43524 -38.42445  -2.21205  -2.20619  -2.20452
  Beta  occ. eigenvalues --   -2.20005  -2.19522  -2.19384  -2.18372  -1.14892
  Beta  occ. eigenvalues --   -1.14861  -1.14844  -1.14299  -1.14269  -1.14252
  Beta  occ. eigenvalues --   -1.14177  -1.14137  -1.14101  -1.13684  -1.13660
  Beta  occ. eigenvalues --   -1.13644  -1.13207  -1.13184  -1.13169  -1.13116
  Beta  occ. eigenvalues --   -1.13050  -1.13011  -1.12078  -1.12027  -1.11998
  Beta  occ. eigenvalues --   -0.17738  -0.14081  -0.10941
  Beta virt. eigenvalues --   -0.07261  -0.06829  -0.05815  -0.03418  -0.03008
  Beta virt. eigenvalues --   -0.02652  -0.01868  -0.01524  -0.01319  -0.00594
  Beta virt. eigenvalues --   -0.00203   0.00072   0.00163   0.00542   0.00649

 Mulliken charges and spin densities:
               1          2
     1  Na   0.412562   0.152516
     2  Na   0.463124  -0.003116
     3  Na  -0.198755  -0.043680
     4  Na  -0.509673   0.279973
     5  Na  -0.543997   0.575803
     6  Na   0.319597   0.108035
     7  Na   0.057142  -0.069532
 Sum of Mulliken charges =  -0.00000   1.00000

 Dipole moment (field-independent basis, Debye):
    X=              0.2403    Y=             -0.1452    Z=              0.4613  Tot=              0.5400
 Quadrupole moment (field-independent basis, Debye-Ang):
   XX=            -45.0490   YY=            -75.0712   ZZ=            -73.7297
   XY=              0.8538   XZ=             -2.3768   YZ=              1.2778

 Normal termination of Gaussian 16 at Fri Dec  8 03:41:52 2023.
