 Gaussian 16, Revision B.01,
 Gaussian 16:  ES64L-G16RevB.01 20-Dec-2017

 -------------------------
 #P B3LYP/6-311+g(d) force
 -------------------------

 -----
 DPGEN
 -----
 Symbolic Z-matrix:
 Charge =  0 Multiplicity = 2

                         Standard orientation:
 ---------------------------------------------------------------------
 Center     Atomic      Atomic             Coordinates (Angstroms)
 Number     Number       Type             X           Y           Z
 ---------------------------------------------------------------------
      1         11           0       -2.481300    2.234170   -0.232756
      2         11           0        0.530193    1.581517    0.571053
      3         11           0        2.071392   -0.962069    1.867682
      4         11           0        3.733797    1.077733   -1.133239
      5         11           0        0.922250   -2.014029   -0.854665
      6         11           0       -2.480038   -0.700024    1.253239
      7         11           0       -2.296295   -1.217298   -1.471314
 ---------------------------------------------------------------------

 SCF Done:  E(UB3LYP) =  -1136.11668027     A.U. after   23 cycles

 The electronic state is 2-A.
 Alpha  occ. eigenvalues --  -38.45360 -38.44716 -38.44188 -38.43717 -38.43591
 Alpha  occ. eigenvalues --  -38.43586 -38.43175  -2.21258  -2.20501  -2.20065
 Alpha  occ. eigenvalues --   -2.19635  -2.19446  -2.19440  -2.19061  -1.15049
 Alpha  occ. eigenvalues --   -1.14894  -1.14859  -1.14158  -1.14148  -1.14105
 Alpha  occ. eigenvalues --   -1.13750  -1.13733  -1.13663  -1.13347  -1.13282
 Alpha  occ. eigenvalues --   -1.13224  -1.13141  -1.13130  -1.13118  -1.13108
 Alpha  occ. eigenvalues --   -1.13080  -1.13038  -1.12763  -1.12745  -1.12672
 Alpha  occ. eigenvalues --   -0.18189  -0.14267  -0.11532  -0.10740
 Alpha virt. eigenvalues --   -0.06602  -0.05459  -0.04923  -0.03373  -0.02754
 Alpha virt. eigenvalues --   -0.02341  -0.01954  -0.01096  -0.00617  -0.00355
 Alpha virt. eigenvalues --    0.00068   0.00169   0.00288   0.00422   0.00595

  Beta  occ. eigenvalues --  -38.45359 -38.44637 -38.44130 -38.43694 -38.43593
  Beta  occ. eigenvalues --  -38.43576 -38.43169  -2.21258  -2.20354  -2.19960
  Beta  occ. eigenvalues --   -2.19591  -2.19458  -2.19417  -2.19054  -1.15041
  Beta  occ. eigenvalues --   -1.14884  -1.14860  -1.14054  -1.14045  -1.14010
  Beta  occ. eigenvalues --   -1.13682  -1.13657  -1.13582  -1.13322  -1.13250
  Beta  occ. eigenvalues --   -1.13192  -1.13153  -1.13110  -1.13109  -1.13087
  Beta  occ. eigenvalues --   -1.13080  -1.13026  -1.12751  -1.12725  -1.12663
  Beta  occ. eigenvalues --   -0.17687  -0.13876  -0.11361
  Beta virt. eigenvalues --   -0.07122  -0.06295  -0.05276  -0.04346  -0.03282
  Beta virt. eigenvalues --   -0.02263  -0.01927  -0.01431  -0.00947  -0.00289
  Beta virt. eigenvalues --   -0.00177   0.00197   0.00328   0.00339   0.00565

 Mulliken charges and spin densities:
               1          2
     1  Na   0.178399  -0.176352
     2  Na  -1.132039   0.289812
     3  Na   0.721955   0.148863
     4  Na   0.275266   0.282778
     5  Na  -0.430068   0.185998
     6  Na   0.192980   0.164346
     7  Na   0.193507   0.104556
 Sum of Mulliken charges =  -0.00000   1.00000

 Dipole moment (field-independent basis, Debye):
    X=             -0.1596    Y=             -0.1889    Z=              0.4228  Tot=              0.4898
 Quadrupole moment (field-independent basis, Debye-Ang):
   XX=            -55.1157   YY=            -75.5948   ZZ=            -66.7954
   XY=             -2.2292   XZ=             -0.5212   YZ=             -4.2038

 Normal termination of Gaussian 16 at Tue Dec  5 23:26:43 2023.
