 Gaussian 16, Revision B.01,
 Gaussian 16:  ES64L-G16RevB.01 20-Dec-2017

 -------------------------
 #P B3LYP/6-311+g(d) force
 -------------------------

 -----
 DPGEN
 -----
 Symbolic Z-matrix:
 Charge =  0 Multiplicity = 2

                         Standard orientation:
 ---------------------------------------------------------------------
 Center     Atomic      Atomic             Coordinates (Angstroms)
 Number     Number       Type             X           Y           Z
 ---------------------------------------------------------------------
      1         11           0       -1.040066   -2.569349    0.012633
      2         11           0        0.124495    0.263412    1.824237
      3         11           0        3.155889    1.407937   -0.093327
      4         11           0        2.260995   -1.927256   -0.052760
      5         11           0       -3.323826   -0.129429   -0.011373
      6         11           0       -0.043684    0.118310   -1.598053
      7         11           0       -1.133803    2.836375   -0.081356
 ---------------------------------------------------------------------

 SCF Done:  E(UB3LYP) =  -1136.13531516     A.U. after   20 cycles

 The electronic state is 2-A.
 Alpha  occ. eigenvalues --  -38.44649 -38.44624 -38.43643 -38.43581 -38.43098
 Alpha  occ. eigenvalues --  -38.43044 -38.42871  -2.20461  -2.20406  -2.19511
 Alpha  occ. eigenvalues --   -2.19411  -2.19022  -2.19020  -2.18769  -1.14131
 Alpha  occ. eigenvalues --   -1.14128  -1.14097  -1.14077  -1.14065  -1.14047
 Alpha  occ. eigenvalues --   -1.13194  -1.13177  -1.13148  -1.13106  -1.13083
 Alpha  occ. eigenvalues --   -1.13034  -1.12756  -1.12686  -1.12664  -1.12646
 Alpha  occ. eigenvalues --   -1.12634  -1.12625  -1.12445  -1.12422  -1.12411
 Alpha  occ. eigenvalues --   -0.18647  -0.13255  -0.12262  -0.10251
 Alpha virt. eigenvalues --   -0.06362  -0.05251  -0.04446  -0.03094  -0.02612
 Alpha virt. eigenvalues --   -0.02147  -0.02042  -0.01220  -0.00662  -0.00263
 Alpha virt. eigenvalues --   -0.00004   0.00312   0.00740   0.00793   0.00890

  Beta  occ. eigenvalues --  -38.44647 -38.44623 -38.43637 -38.43575 -38.43012
  Beta  occ. eigenvalues --  -38.42978 -38.42864  -2.20460  -2.20407  -2.19504
  Beta  occ. eigenvalues --   -2.19405  -2.18899  -2.18863  -2.18760  -1.14131
  Beta  occ. eigenvalues --   -1.14108  -1.14099  -1.14069  -1.14059  -1.14050
  Beta  occ. eigenvalues --   -1.13190  -1.13149  -1.13143  -1.13100  -1.13054
  Beta  occ. eigenvalues --   -1.13034  -1.12665  -1.12590  -1.12574  -1.12542
  Beta  occ. eigenvalues --   -1.12531  -1.12517  -1.12434  -1.12410  -1.12382
  Beta  occ. eigenvalues --   -0.17924  -0.13041  -0.12010
  Beta virt. eigenvalues --   -0.06376  -0.06326  -0.05238  -0.04444  -0.02339
  Beta virt. eigenvalues --   -0.01977  -0.01839  -0.01175  -0.01072  -0.00717
  Beta virt. eigenvalues --   -0.00306   0.00146   0.00342   0.00764   0.00818

 Mulliken charges and spin densities:
               1          2
     1  Na   0.129355  -0.013089
     2  Na  -0.429776   0.719886
     3  Na   0.148512  -0.111348
     4  Na   0.232489   0.023747
     5  Na   0.207146  -0.016752
     6  Na  -0.370412   0.575014
     7  Na   0.082686  -0.177458
 Sum of Mulliken charges =  -0.00000   1.00000

 Dipole moment (field-independent basis, Debye):
    X=              0.0559    Y=              0.4023    Z=              0.0578  Tot=              0.4103
 Quadrupole moment (field-independent basis, Debye-Ang):
   XX=            -50.4698   YY=            -63.3136   ZZ=            -77.1715
   XY=              0.6785   XZ=             -0.4207   YZ=             -0.3688

 Normal termination of Gaussian 16 at Tue Dec  5 14:57:43 2023.
