 Gaussian 16, Revision B.01,
 Gaussian 16:  ES64L-G16RevB.01 20-Dec-2017

 -------------------------
 #P B3LYP/6-311+g(d) force
 -------------------------

 -----
 DPGEN
 -----
 Symbolic Z-matrix:
 Charge =  0 Multiplicity = 2

                         Standard orientation:
 ---------------------------------------------------------------------
 Center     Atomic      Atomic             Coordinates (Angstroms)
 Number     Number       Type             X           Y           Z
 ---------------------------------------------------------------------
      1         11           0       -3.816743    0.372890   -1.179876
      2         11           0       -1.822141   -2.215626    0.805671
      3         11           0        1.291898   -0.722422    1.800322
      4         11           0        2.278718    1.908863    0.079122
      5         11           0        3.643849   -1.115823   -1.365890
      6         11           0       -0.476248   -0.026305   -1.151463
      7         11           0       -1.099333    1.798422    1.012114
 ---------------------------------------------------------------------

 SCF Done:  E(UB3LYP) =  -1136.12158473     A.U. after   25 cycles

 The electronic state is 2-A.
 Alpha  occ. eigenvalues --  -38.44799 -38.44322 -38.44248 -38.43983 -38.43489
 Alpha  occ. eigenvalues --  -38.43194 -38.42999  -2.20612  -2.20239  -2.20108
 Alpha  occ. eigenvalues --   -2.19875  -2.19360  -2.19034  -2.18916  -1.14288
 Alpha  occ. eigenvalues --   -1.14244  -1.14233  -1.14017  -1.13888  -1.13842
 Alpha  occ. eigenvalues --   -1.13768  -1.13756  -1.13722  -1.13563  -1.13518
 Alpha  occ. eigenvalues --   -1.13502  -1.13054  -1.13035  -1.12965  -1.12723
 Alpha  occ. eigenvalues --   -1.12698  -1.12655  -1.12649  -1.12563  -1.12498
 Alpha  occ. eigenvalues --   -0.18455  -0.14031  -0.11395  -0.10913
 Alpha virt. eigenvalues --   -0.06287  -0.05207  -0.04880  -0.02970  -0.02652
 Alpha virt. eigenvalues --   -0.02416  -0.02206  -0.01061  -0.00894  -0.00216
 Alpha virt. eigenvalues --    0.00092   0.00285   0.00431   0.00541   0.00630

  Beta  occ. eigenvalues --  -38.44754 -38.44258 -38.44241 -38.43933 -38.43482
  Beta  occ. eigenvalues --  -38.43174 -38.42990  -2.20527  -2.20227  -2.19990
  Beta  occ. eigenvalues --   -2.19787  -2.19351  -2.19000  -2.18903  -1.14225
  Beta  occ. eigenvalues --   -1.14189  -1.14179  -1.13996  -1.13880  -1.13832
  Beta  occ. eigenvalues --   -1.13686  -1.13670  -1.13648  -1.13504  -1.13445
  Beta  occ. eigenvalues --   -1.13431  -1.13043  -1.13033  -1.12940  -1.12705
  Beta  occ. eigenvalues --   -1.12670  -1.12650  -1.12612  -1.12534  -1.12482
  Beta  occ. eigenvalues --   -0.17837  -0.13503  -0.10636
  Beta virt. eigenvalues --   -0.07795  -0.05986  -0.04985  -0.04448  -0.02768
  Beta virt. eigenvalues --   -0.02294  -0.01979  -0.01550  -0.00908  -0.00664
  Beta virt. eigenvalues --   -0.00041   0.00164   0.00360   0.00475   0.00642

 Mulliken charges and spin densities:
               1          2
     1  Na   0.859741   0.147521
     2  Na  -0.194129   0.202264
     3  Na   0.133656   0.115207
     4  Na   0.412696   0.176756
     5  Na   0.012814   0.338911
     6  Na  -1.392364  -0.118677
     7  Na   0.167586   0.138019
 Sum of Mulliken charges =  -0.00000   1.00000

 Dipole moment (field-independent basis, Debye):
    X=             -0.5631    Y=              0.2090    Z=             -0.0055  Tot=              0.6007
 Quadrupole moment (field-independent basis, Debye-Ang):
   XX=            -51.8878   YY=            -76.2745   ZZ=            -65.8032
   XY=              0.5418   XZ=              1.0672   YZ=              0.4506

 Normal termination of Gaussian 16 at Tue Dec  5 10:46:42 2023.
