 Gaussian 16, Revision B.01,
 Gaussian 16:  ES64L-G16RevB.01 20-Dec-2017

 -------------------------
 #P B3LYP/6-311+g(d) force
 -------------------------

 -----
 DPGEN
 -----
 Symbolic Z-matrix:
 Charge =  0 Multiplicity = 2

                         Standard orientation:
 ---------------------------------------------------------------------
 Center     Atomic      Atomic             Coordinates (Angstroms)
 Number     Number       Type             X           Y           Z
 ---------------------------------------------------------------------
      1         11           0        3.545168    1.032561   -0.086349
      2         11           0        0.940415    3.985861   -0.659809
      3         11           0       -1.990799    3.213864    0.781508
      4         11           0       -3.163631   -3.014423   -0.110008
      5         11           0        0.578314   -3.204718   -0.249198
      6         11           0        4.084591   -2.071461    0.442157
      7         11           0       -3.994058    0.058317   -0.118302
 ---------------------------------------------------------------------

 SCF Done:  E(UB3LYP) =  -1136.10759998     A.U. after   25 cycles

 The electronic state is 2-A.
 Alpha  occ. eigenvalues --  -38.45686 -38.45218 -38.45158 -38.44446 -38.44196
 Alpha  occ. eigenvalues --  -38.43827 -38.43736  -2.21457  -2.20967  -2.20917
 Alpha  occ. eigenvalues --   -2.20227  -2.20008  -2.19635  -2.19531  -1.15135
 Alpha  occ. eigenvalues --   -1.15119  -1.15092  -1.14655  -1.14643  -1.14605
 Alpha  occ. eigenvalues --   -1.14593  -1.14582  -1.14513  -1.13919  -1.13905
 Alpha  occ. eigenvalues --   -1.13873  -1.13673  -1.13664  -1.13646  -1.13292
 Alpha  occ. eigenvalues --   -1.13283  -1.13264  -1.13185  -1.13176  -1.13171
 Alpha  occ. eigenvalues --   -0.15473  -0.13916  -0.13463  -0.10553
 Alpha virt. eigenvalues --   -0.07948  -0.04952  -0.04628  -0.03528  -0.03178
 Alpha virt. eigenvalues --   -0.02511  -0.02337  -0.01992  -0.01807  -0.00562
 Alpha virt. eigenvalues --   -0.00261  -0.00107   0.00046   0.00367   0.00372

  Beta  occ. eigenvalues --  -38.45657 -38.45222 -38.45092 -38.44459 -38.44175
  Beta  occ. eigenvalues --  -38.43775 -38.43692  -2.21408  -2.20978  -2.20795
  Beta  occ. eigenvalues --   -2.20255  -2.19972  -2.19537  -2.19448  -1.15105
  Beta  occ. eigenvalues --   -1.15091  -1.15027  -1.14666  -1.14654  -1.14581
  Beta  occ. eigenvalues --   -1.14511  -1.14500  -1.14421  -1.13939  -1.13927
  Beta  occ. eigenvalues --   -1.13865  -1.13642  -1.13637  -1.13621  -1.13225
  Beta  occ. eigenvalues --   -1.13218  -1.13203  -1.13129  -1.13121  -1.13119
  Beta  occ. eigenvalues --   -0.14947  -0.13426  -0.12918
  Beta virt. eigenvalues --   -0.07915  -0.07251  -0.04597  -0.04139  -0.03280
  Beta virt. eigenvalues --   -0.02758  -0.02314  -0.02170  -0.01901  -0.01646
  Beta virt. eigenvalues --   -0.00362  -0.00014   0.00116   0.00223   0.00418

 Mulliken charges and spin densities:
               1          2
     1  Na  -0.248790   0.227226
     2  Na   0.022600   0.194726
     3  Na  -0.141581  -0.041772
     4  Na   0.349601  -0.115113
     5  Na  -0.308291   0.363853
     6  Na   0.682071   0.102255
     7  Na  -0.355609   0.268825
 Sum of Mulliken charges =  -0.00000   1.00000

 Dipole moment (field-independent basis, Debye):
    X=              0.9339    Y=             -0.2655    Z=              0.1523  Tot=              0.9828
 Quadrupole moment (field-independent basis, Debye-Ang):
   XX=            -63.5609   YY=            -64.4220   ZZ=            -72.6466
   XY=             -0.4130   XZ=             -1.0115   YZ=             -0.3891

 Normal termination of Gaussian 16 at Sun Dec  3 15:46:56 2023.
