 Gaussian 16, Revision B.01,
 Gaussian 16:  ES64L-G16RevB.01 20-Dec-2017

 -------------------------
 #P B3LYP/6-311+g(d) force
 -------------------------

 -----
 DPGEN
 -----
 Symbolic Z-matrix:
 Charge =  0 Multiplicity = 2

                         Standard orientation:
 ---------------------------------------------------------------------
 Center     Atomic      Atomic             Coordinates (Angstroms)
 Number     Number       Type             X           Y           Z
 ---------------------------------------------------------------------
      1         11           0       -2.660614    1.562777   -0.122268
      2         11           0        1.444168   -2.643794   -0.454139
      3         11           0        1.252685    2.750628   -0.102015
      4         11           0        3.113140   -0.156234    0.036730
      5         11           0        0.113628   -0.018284    2.092034
      6         11           0       -2.915082   -1.752380    0.155164
      7         11           0       -0.347924    0.257286   -1.605505
 ---------------------------------------------------------------------

 SCF Done:  E(UB3LYP) =  -1136.13153831     A.U. after   19 cycles

 The electronic state is 2-A.
 Alpha  occ. eigenvalues --  -38.44386 -38.44290 -38.44163 -38.43820 -38.43383
 Alpha  occ. eigenvalues --  -38.43315 -38.43127  -2.20179  -2.20152  -2.20037
 Alpha  occ. eigenvalues --   -2.19677  -2.19343  -2.19162  -2.18967  -1.13894
 Alpha  occ. eigenvalues --   -1.13855  -1.13843  -1.13827  -1.13797  -1.13743
 Alpha  occ. eigenvalues --   -1.13738  -1.13696  -1.13678  -1.13345  -1.13305
 Alpha  occ. eigenvalues --   -1.13293  -1.13028  -1.12992  -1.12963  -1.12838
 Alpha  occ. eigenvalues --   -1.12813  -1.12796  -1.12645  -1.12622  -1.12608
 Alpha  occ. eigenvalues --   -0.18431  -0.13558  -0.11941  -0.10667
 Alpha virt. eigenvalues --   -0.05935  -0.05607  -0.04364  -0.03451  -0.02663
 Alpha virt. eigenvalues --   -0.02519  -0.01765  -0.01280  -0.00471  -0.00383
 Alpha virt. eigenvalues --   -0.00032   0.00343   0.00697   0.00804   0.00888

  Beta  occ. eigenvalues --  -38.44385 -38.44283 -38.44160 -38.43723 -38.43323
  Beta  occ. eigenvalues --  -38.43306 -38.43125  -2.20178  -2.20143  -2.20035
  Beta  occ. eigenvalues --   -2.19498  -2.19234  -2.19148  -2.18966  -1.13887
  Beta  occ. eigenvalues --   -1.13848  -1.13828  -1.13826  -1.13777  -1.13742
  Beta  occ. eigenvalues --   -1.13739  -1.13681  -1.13668  -1.13225  -1.13180
  Beta  occ. eigenvalues --   -1.13162  -1.12952  -1.12912  -1.12887  -1.12830
  Beta  occ. eigenvalues --   -1.12795  -1.12777  -1.12640  -1.12612  -1.12599
  Beta  occ. eigenvalues --   -0.17717  -0.13349  -0.11717
  Beta virt. eigenvalues --   -0.06786  -0.05832  -0.05585  -0.04320  -0.02677
  Beta virt. eigenvalues --   -0.01945  -0.01653  -0.01488  -0.01211  -0.00504
  Beta virt. eigenvalues --   -0.00420   0.00128   0.00377   0.00776   0.00812

 Mulliken charges and spin densities:
               1          2
     1  Na   0.284822  -0.050050
     2  Na  -0.006374  -0.014148
     3  Na   0.083882  -0.066449
     4  Na   0.211306   0.039486
     5  Na  -0.462266   0.712777
     6  Na  -0.049027  -0.013159
     7  Na  -0.062343   0.391541
 Sum of Mulliken charges =  -0.00000   1.00000

 Dipole moment (field-independent basis, Debye):
    X=             -0.5190    Y=             -0.0034    Z=              0.1962  Tot=              0.5549
 Quadrupole moment (field-independent basis, Debye-Ang):
   XX=            -54.6850   YY=            -64.3894   ZZ=            -75.0936
   XY=              1.5560   XZ=             -0.5791   YZ=              0.5315

 Normal termination of Gaussian 16 at Thu Dec  7 19:15:35 2023.
