 Gaussian 16, Revision B.01,
 Gaussian 16:  ES64L-G16RevB.01 20-Dec-2017

 -------------------------
 #P B3LYP/6-311+g(d) force
 -------------------------

 -----
 DPGEN
 -----
 Symbolic Z-matrix:
 Charge =  0 Multiplicity = 2

                         Standard orientation:
 ---------------------------------------------------------------------
 Center     Atomic      Atomic             Coordinates (Angstroms)
 Number     Number       Type             X           Y           Z
 ---------------------------------------------------------------------
      1         11           0        0.009714    0.274023    2.028934
      2         11           0        3.024607   -0.845148    0.046513
      3         11           0        1.919806    2.093583   -0.507641
      4         11           0       -0.076054   -2.871646    0.167309
      5         11           0       -0.316865   -0.620926   -1.628352
      6         11           0       -3.135086   -0.543471   -0.092851
      7         11           0       -1.426121    2.513585   -0.013912
 ---------------------------------------------------------------------

 SCF Done:  E(UB3LYP) =  -1136.13579650     A.U. after   19 cycles

 The electronic state is 2-A.
 Alpha  occ. eigenvalues --  -38.44238 -38.43996 -38.43588 -38.43509 -38.43368
 Alpha  occ. eigenvalues --  -38.43334 -38.43309  -2.20073  -2.19831  -2.19469
 Alpha  occ. eigenvalues --   -2.19409  -2.19300  -2.19240  -2.19198  -1.13770
 Alpha  occ. eigenvalues --   -1.13726  -1.13704  -1.13521  -1.13494  -1.13469
 Alpha  occ. eigenvalues --   -1.13316  -1.13124  -1.13083  -1.13067  -1.13040
 Alpha  occ. eigenvalues --   -1.13029  -1.12953  -1.12922  -1.12909  -1.12899
 Alpha  occ. eigenvalues --   -1.12893  -1.12886  -1.12865  -1.12850  -1.12820
 Alpha  occ. eigenvalues --   -0.18773  -0.13077  -0.12584  -0.10752
 Alpha virt. eigenvalues --   -0.05819  -0.04943  -0.04703  -0.03187  -0.03049
 Alpha virt. eigenvalues --   -0.02496  -0.01611  -0.00991  -0.00350  -0.00220
 Alpha virt. eigenvalues --   -0.00009   0.00360   0.00843   0.00872   0.00929

  Beta  occ. eigenvalues --  -38.44233 -38.43994 -38.43582 -38.43414 -38.43355
  Beta  occ. eigenvalues --  -38.43329 -38.43252  -2.20068  -2.19830  -2.19460
  Beta  occ. eigenvalues --   -2.19236  -2.19219  -2.19197  -2.19191  -1.13758
  Beta  occ. eigenvalues --   -1.13710  -1.13704  -1.13522  -1.13475  -1.13468
  Beta  occ. eigenvalues --   -1.13291  -1.13092  -1.13063  -1.12979  -1.12927
  Beta  occ. eigenvalues --   -1.12914  -1.12902  -1.12892  -1.12877  -1.12857
  Beta  occ. eigenvalues --   -1.12850  -1.12831  -1.12823  -1.12821  -1.12817
  Beta  occ. eigenvalues --   -0.18047  -0.12844  -0.12348
  Beta virt. eigenvalues --   -0.06847  -0.05794  -0.04937  -0.04614  -0.02427
  Beta virt. eigenvalues --   -0.02248  -0.01539  -0.01448  -0.00922  -0.00400
  Beta virt. eigenvalues --   -0.00243   0.00132   0.00392   0.00857   0.00907

 Mulliken charges and spin densities:
               1          2
     1  Na  -0.471874   0.721264
     2  Na   0.099534  -0.022289
     3  Na   0.025855   0.020595
     4  Na   0.207365  -0.091865
     5  Na  -0.237483   0.475965
     6  Na   0.215575  -0.098463
     7  Na   0.161029  -0.005206
 Sum of Mulliken charges =  -0.00000   1.00000

 Dipole moment (field-independent basis, Debye):
    X=             -0.2006    Y=             -0.2053    Z=              0.1687  Tot=              0.3329
 Quadrupole moment (field-independent basis, Debye-Ang):
   XX=            -56.1344   YY=            -63.7096   ZZ=            -74.0677
   XY=             -0.5597   XZ=             -0.4503   YZ=             -1.9526

 Normal termination of Gaussian 16 at Tue Dec  5 22:41:19 2023.
