 Gaussian 16, Revision B.01,
 Gaussian 16:  ES64L-G16RevB.01 20-Dec-2017

 -------------------------
 #P B3LYP/6-311+g(d) force
 -------------------------

 -----
 DPGEN
 -----
 Symbolic Z-matrix:
 Charge =  0 Multiplicity = 2

                         Standard orientation:
 ---------------------------------------------------------------------
 Center     Atomic      Atomic             Coordinates (Angstroms)
 Number     Number       Type             X           Y           Z
 ---------------------------------------------------------------------
      1         11           0       -2.799626   -1.234388   -0.111107
      2         11           0        0.613535   -2.468178    0.354572
      3         11           0        3.176144   -0.286517    0.286322
      4         11           0        1.550526    2.479926    0.058730
      5         11           0       -2.085362    2.091264   -0.664145
      6         11           0       -0.898562    0.191937    2.196554
      7         11           0        0.443346   -0.774043   -2.120927
 ---------------------------------------------------------------------

 SCF Done:  E(UB3LYP) =  -1136.13335922     A.U. after   19 cycles

 The electronic state is 2-A.
 Alpha  occ. eigenvalues --  -38.44244 -38.44218 -38.44039 -38.44016 -38.43738
 Alpha  occ. eigenvalues --  -38.43248 -38.43080  -2.20105  -2.20098  -2.19880
 Alpha  occ. eigenvalues --   -2.19859  -2.19551  -2.19061  -2.18987  -1.13807
 Alpha  occ. eigenvalues --   -1.13775  -1.13746  -1.13727  -1.13725  -1.13702
 Alpha  occ. eigenvalues --   -1.13554  -1.13546  -1.13531  -1.13524  -1.13522
 Alpha  occ. eigenvalues --   -1.13493  -1.13220  -1.13207  -1.13192  -1.12736
 Alpha  occ. eigenvalues --   -1.12729  -1.12702  -1.12691  -1.12651  -1.12596
 Alpha  occ. eigenvalues --   -0.18323  -0.13191  -0.12060  -0.11308
 Alpha virt. eigenvalues --   -0.05693  -0.05235  -0.04368  -0.03717  -0.03150
 Alpha virt. eigenvalues --   -0.02982  -0.01412  -0.00824  -0.00224  -0.00193
 Alpha virt. eigenvalues --   -0.00097   0.00414   0.00578   0.00727   0.00916

  Beta  occ. eigenvalues --  -38.44165 -38.44145 -38.44036 -38.44012 -38.43724
  Beta  occ. eigenvalues --  -38.43248 -38.43069  -2.19963  -2.19959  -2.19877
  Beta  occ. eigenvalues --   -2.19856  -2.19526  -2.19063  -2.18973  -1.13720
  Beta  occ. eigenvalues --   -1.13683  -1.13645  -1.13632  -1.13617  -1.13607
  Beta  occ. eigenvalues --   -1.13554  -1.13538  -1.13521  -1.13513  -1.13499
  Beta  occ. eigenvalues --   -1.13491  -1.13197  -1.13181  -1.13177  -1.12737
  Beta  occ. eigenvalues --   -1.12717  -1.12706  -1.12677  -1.12614  -1.12589
  Beta  occ. eigenvalues --   -0.17569  -0.13011  -0.11860
  Beta virt. eigenvalues --   -0.07444  -0.05542  -0.05189  -0.04103  -0.03113
  Beta virt. eigenvalues --   -0.02412  -0.02031  -0.01339  -0.00761  -0.00237
  Beta virt. eigenvalues --   -0.00134   0.00017   0.00449   0.00840   0.00866

 Mulliken charges and spin densities:
               1          2
     1  Na   0.458975   0.013853
     2  Na   0.423494   0.029293
     3  Na   0.125569  -0.059751
     4  Na  -0.081294  -0.051693
     5  Na  -0.111877   0.058220
     6  Na  -0.366831   0.497987
     7  Na  -0.448036   0.512091
 Sum of Mulliken charges =  -0.00000   1.00000

 Dipole moment (field-independent basis, Debye):
    X=             -0.2265    Y=             -0.1447    Z=             -0.0241  Tot=              0.2698
 Quadrupole moment (field-independent basis, Debye-Ang):
   XX=            -58.8027   YY=            -69.5847   ZZ=            -68.5155
   XY=             -0.2254   XZ=              1.8377   YZ=             -1.3379

 Normal termination of Gaussian 16 at Sun Dec  3 21:17:05 2023.
