 Gaussian 16, Revision B.01,
 Gaussian 16:  ES64L-G16RevB.01 20-Dec-2017

 -------------------------
 #P B3LYP/6-311+g(d) force
 -------------------------

 -----
 DPGEN
 -----
 Symbolic Z-matrix:
 Charge =  0 Multiplicity = 2

                         Standard orientation:
 ---------------------------------------------------------------------
 Center     Atomic      Atomic             Coordinates (Angstroms)
 Number     Number       Type             X           Y           Z
 ---------------------------------------------------------------------
      1         11           0        0.908148   -0.354911    1.571484
      2         11           0        3.747027   -1.448795   -0.634128
      3         11           0        2.996893    1.789523   -0.108031
      4         11           0       -3.867573    0.008086   -1.133937
      5         11           0       -2.005459   -1.722485    1.085138
      6         11           0       -1.605046    1.910735    0.749427
      7         11           0       -0.173990   -0.182154   -1.529954
 ---------------------------------------------------------------------

 SCF Done:  E(UB3LYP) =  -1136.11516263     A.U. after   55 cycles

 The electronic state is 2-A.
 Alpha  occ. eigenvalues --  -38.45665 -38.45283 -38.44297 -38.43923 -38.43691
 Alpha  occ. eigenvalues --  -38.43266 -38.42360  -2.21502  -2.21097  -2.20202
 Alpha  occ. eigenvalues --   -2.19723  -2.19567  -2.19104  -2.18324  -1.15230
 Alpha  occ. eigenvalues --   -1.15183  -1.15093  -1.14784  -1.14747  -1.14707
 Alpha  occ. eigenvalues --   -1.13890  -1.13837  -1.13813  -1.13392  -1.13386
 Alpha  occ. eigenvalues --   -1.13356  -1.13263  -1.13216  -1.13176  -1.12777
 Alpha  occ. eigenvalues --   -1.12767  -1.12735  -1.12049  -1.11980  -1.11926
 Alpha  occ. eigenvalues --   -0.18488  -0.14448  -0.11328  -0.10279
 Alpha virt. eigenvalues --   -0.07070  -0.06016  -0.04490  -0.03050  -0.02903
 Alpha virt. eigenvalues --   -0.02327  -0.01934  -0.01529  -0.01104  -0.00468
 Alpha virt. eigenvalues --   -0.00010   0.00118   0.00367   0.00467   0.00519

  Beta  occ. eigenvalues --  -38.45653 -38.45260 -38.44231 -38.43910 -38.43658
  Beta  occ. eigenvalues --  -38.43254 -38.42333  -2.21485  -2.21053  -2.20082
  Beta  occ. eigenvalues --   -2.19700  -2.19506  -2.19085  -2.18279  -1.15198
  Beta  occ. eigenvalues --   -1.15157  -1.15087  -1.14754  -1.14719  -1.14670
  Beta  occ. eigenvalues --   -1.13798  -1.13761  -1.13722  -1.13375  -1.13366
  Beta  occ. eigenvalues --   -1.13342  -1.13218  -1.13171  -1.13127  -1.12766
  Beta  occ. eigenvalues --   -1.12741  -1.12724  -1.12019  -1.11916  -1.11894
  Beta  occ. eigenvalues --   -0.17795  -0.14216  -0.10135
  Beta virt. eigenvalues --   -0.07501  -0.06893  -0.05391  -0.04302  -0.02840
  Beta virt. eigenvalues --   -0.02601  -0.01776  -0.01516  -0.01062  -0.00845
  Beta virt. eigenvalues --   -0.00302   0.00030   0.00234   0.00399   0.00519

 Mulliken charges and spin densities:
               1          2
     1  Na   0.094146   0.401777
     2  Na   0.098474  -0.033260
     3  Na   0.375497   0.123358
     4  Na   0.397131   0.062015
     5  Na  -0.122876  -0.036947
     6  Na  -0.261937   0.260649
     7  Na  -0.580435   0.222407
 Sum of Mulliken charges =  -0.00000   1.00000

 Dipole moment (field-independent basis, Debye):
    X=              0.5171    Y=              0.7335    Z=              0.4476  Tot=              1.0029
 Quadrupole moment (field-independent basis, Debye-Ang):
   XX=            -59.6099   YY=            -65.3155   ZZ=            -75.2229
   XY=              1.8990   XZ=             -2.1696   YZ=             -3.2107

 Normal termination of Gaussian 16 at Thu Dec  7 19:41:03 2023.
