 Gaussian 16, Revision B.01,
 Gaussian 16:  ES64L-G16RevB.01 20-Dec-2017

 -------------------------
 #P B3LYP/6-311+g(d) force
 -------------------------

 -----
 DPGEN
 -----
 Symbolic Z-matrix:
 Charge =  0 Multiplicity = 2

                         Standard orientation:
 ---------------------------------------------------------------------
 Center     Atomic      Atomic             Coordinates (Angstroms)
 Number     Number       Type             X           Y           Z
 ---------------------------------------------------------------------
      1         11           0       -3.996410   -0.543098   -0.990577
      2         11           0        2.350075    1.541544   -0.395044
      3         11           0        3.368897   -1.452940   -0.918940
      4         11           0       -0.160986   -0.828683   -1.111305
      5         11           0        1.433598   -0.556617    2.031826
      6         11           0       -0.778875    2.674024    0.028639
      7         11           0       -2.216300   -0.834231    1.355401
 ---------------------------------------------------------------------

 SCF Done:  E(UB3LYP) =  -1136.12195303     A.U. after   25 cycles

 The electronic state is 2-A.
 Alpha  occ. eigenvalues --  -38.44920 -38.44746 -38.44411 -38.44172 -38.43569
 Alpha  occ. eigenvalues --  -38.43452 -38.42251  -2.20800  -2.20581  -2.20287
 Alpha  occ. eigenvalues --   -2.20084  -2.19493  -2.19308  -2.18067  -1.14548
 Alpha  occ. eigenvalues --   -1.14454  -1.14411  -1.14313  -1.14211  -1.14206
 Alpha  occ. eigenvalues --   -1.13960  -1.13939  -1.13884  -1.13774  -1.13717
 Alpha  occ. eigenvalues --   -1.13697  -1.13185  -1.13174  -1.13126  -1.12964
 Alpha  occ. eigenvalues --   -1.12960  -1.12928  -1.11745  -1.11722  -1.11712
 Alpha  occ. eigenvalues --   -0.18439  -0.14387  -0.11251  -0.10946
 Alpha virt. eigenvalues --   -0.06826  -0.05108  -0.04710  -0.03244  -0.02757
 Alpha virt. eigenvalues --   -0.02577  -0.02014  -0.01230  -0.00834  -0.00265
 Alpha virt. eigenvalues --    0.00053   0.00252   0.00307   0.00605   0.00752

  Beta  occ. eigenvalues --  -38.44907 -38.44723 -38.44327 -38.44143 -38.43552
  Beta  occ. eigenvalues --  -38.43435 -38.42249  -2.20778  -2.20538  -2.20134
  Beta  occ. eigenvalues --   -2.20035  -2.19463  -2.19278  -2.18064  -1.14502
  Beta  occ. eigenvalues --   -1.14440  -1.14399  -1.14286  -1.14181  -1.14173
  Beta  occ. eigenvalues --   -1.13853  -1.13830  -1.13773  -1.13742  -1.13679
  Beta  occ. eigenvalues --   -1.13636  -1.13158  -1.13151  -1.13101  -1.12944
  Beta  occ. eigenvalues --   -1.12926  -1.12913  -1.11738  -1.11718  -1.11710
  Beta  occ. eigenvalues --   -0.17745  -0.14144  -0.10811
  Beta virt. eigenvalues --   -0.07296  -0.06601  -0.04813  -0.04323  -0.03050
  Beta virt. eigenvalues --   -0.02604  -0.01745  -0.01593  -0.00890  -0.00518
  Beta virt. eigenvalues --   -0.00191   0.00133   0.00330   0.00438   0.00705

 Mulliken charges and spin densities:
               1          2
     1  Na   0.854005   0.177539
     2  Na   0.244926   0.156912
     3  Na   1.167611   0.112571
     4  Na  -1.575378   0.262053
     5  Na  -0.267185   0.266526
     6  Na  -0.440052  -0.017934
     7  Na   0.016072   0.042333
 Sum of Mulliken charges =  -0.00000   1.00000

 Dipole moment (field-independent basis, Debye):
    X=             -0.5467    Y=             -0.2712    Z=             -0.0187  Tot=              0.6106
 Quadrupole moment (field-independent basis, Debye-Ang):
   XX=            -51.7549   YY=            -77.4995   ZZ=            -67.0137
   XY=             -1.1503   XZ=              2.3853   YZ=              0.5011

 Normal termination of Gaussian 16 at Fri Dec  8 18:36:05 2023.
