 Gaussian 16, Revision B.01,
 Gaussian 16:  ES64L-G16RevB.01 20-Dec-2017

 -------------------------
 #P B3LYP/6-311+g(d) force
 -------------------------

 -----
 DPGEN
 -----
 Symbolic Z-matrix:
 Charge =  0 Multiplicity = 2

                         Standard orientation:
 ---------------------------------------------------------------------
 Center     Atomic      Atomic             Coordinates (Angstroms)
 Number     Number       Type             X           Y           Z
 ---------------------------------------------------------------------
      1         11           0       -3.197705    1.034778    0.119446
      2         11           0        1.973503   -2.221421    0.280754
      3         11           0       -0.212883   -0.326087    1.998568
      4         11           0       -1.801524   -2.280421   -0.508943
      5         11           0        0.359040    2.941549    0.073700
      6         11           0        2.908868    0.845447   -0.254417
      7         11           0       -0.029299    0.006154   -1.709107
 ---------------------------------------------------------------------

 SCF Done:  E(UB3LYP) =  -1136.13708353     A.U. after   19 cycles

 The electronic state is 2-A.
 Alpha  occ. eigenvalues --  -38.44432 -38.43711 -38.43673 -38.43642 -38.43388
 Alpha  occ. eigenvalues --  -38.43317 -38.43309  -2.20210  -2.19587  -2.19536
 Alpha  occ. eigenvalues --   -2.19532  -2.19283  -2.19254  -2.19139  -1.13887
 Alpha  occ. eigenvalues --   -1.13858  -1.13857  -1.13278  -1.13270  -1.13246
 Alpha  occ. eigenvalues --   -1.13245  -1.13217  -1.13189  -1.13160  -1.13148
 Alpha  occ. eigenvalues --   -1.13143  -1.12960  -1.12927  -1.12921  -1.12914
 Alpha  occ. eigenvalues --   -1.12895  -1.12879  -1.12809  -1.12805  -1.12769
 Alpha  occ. eigenvalues --   -0.18600  -0.13106  -0.12293  -0.10824
 Alpha virt. eigenvalues --   -0.05861  -0.05084  -0.04570  -0.03267  -0.02873
 Alpha virt. eigenvalues --   -0.02611  -0.01660  -0.01102  -0.00352  -0.00318
 Alpha virt. eigenvalues --   -0.00007   0.00352   0.00775   0.00856   0.00907

  Beta  occ. eigenvalues --  -38.44431 -38.43707 -38.43656 -38.43554 -38.43381
  Beta  occ. eigenvalues --  -38.43308 -38.43247  -2.20210  -2.19581  -2.19507
  Beta  occ. eigenvalues --   -2.19371  -2.19244  -2.19156  -2.19139  -1.13874
  Beta  occ. eigenvalues --   -1.13861  -1.13856  -1.13270  -1.13246  -1.13239
  Beta  occ. eigenvalues --   -1.13221  -1.13159  -1.13130  -1.13097  -1.13048
  Beta  occ. eigenvalues --   -1.13038  -1.12917  -1.12887  -1.12880  -1.12869
  Beta  occ. eigenvalues --   -1.12841  -1.12808  -1.12802  -1.12780  -1.12766
  Beta  occ. eigenvalues --   -0.17873  -0.12870  -0.12051
  Beta virt. eigenvalues --   -0.06912  -0.05830  -0.05051  -0.04521  -0.02505
  Beta virt. eigenvalues --   -0.02124  -0.01593  -0.01531  -0.01012  -0.00385
  Beta virt. eigenvalues --   -0.00358   0.00121   0.00380   0.00822   0.00880

 Mulliken charges and spin densities:
               1          2
     1  Na  -0.047653  -0.085881
     2  Na   0.287774   0.009902
     3  Na  -0.423859   0.765279
     4  Na   0.203081  -0.044840
     5  Na  -0.058012  -0.090995
     6  Na   0.111026  -0.030105
     7  Na  -0.072357   0.476640
 Sum of Mulliken charges =  -0.00000   1.00000

 Dipole moment (field-independent basis, Debye):
    X=             -0.4229    Y=              0.0172    Z=              0.1206  Tot=              0.4401
 Quadrupole moment (field-independent basis, Debye-Ang):
   XX=            -55.7562   YY=            -63.6648   ZZ=            -74.1335
   XY=             -0.9292   XZ=             -0.0114   YZ=              0.7874

 Normal termination of Gaussian 16 at Tue Dec  5 17:38:18 2023.
