 Gaussian 16, Revision B.01,
 Gaussian 16:  ES64L-G16RevB.01 20-Dec-2017

 -------------------------
 #P B3LYP/6-311+g(d) force
 -------------------------

 -----
 DPGEN
 -----
 Symbolic Z-matrix:
 Charge =  0 Multiplicity = 2

                         Standard orientation:
 ---------------------------------------------------------------------
 Center     Atomic      Atomic             Coordinates (Angstroms)
 Number     Number       Type             X           Y           Z
 ---------------------------------------------------------------------
      1         11           0       -1.673469    3.299486    0.741108
      2         11           0       -4.110644    1.120408   -0.154353
      3         11           0        4.106247    0.433398   -0.456244
      4         11           0        3.642825   -2.594051    0.560262
      5         11           0       -3.723213   -2.776479   -0.346298
      6         11           0       -0.254729   -2.830431    0.069529
      7         11           0        2.012984    3.347670   -0.414004
 ---------------------------------------------------------------------

 SCF Done:  E(UB3LYP) =  -1136.10830435     A.U. after   23 cycles

 The electronic state is 2-A.
 Alpha  occ. eigenvalues --  -38.45681 -38.45086 -38.45020 -38.44393 -38.44254
 Alpha  occ. eigenvalues --  -38.44157 -38.43958  -2.21411  -2.20857  -2.20802
 Alpha  occ. eigenvalues --   -2.20154  -2.20030  -2.19937  -2.19770  -1.15105
 Alpha  occ. eigenvalues --   -1.15096  -1.15016  -1.14527  -1.14518  -1.14486
 Alpha  occ. eigenvalues --   -1.14475  -1.14471  -1.14454  -1.13835  -1.13829
 Alpha  occ. eigenvalues --   -1.13789  -1.13695  -1.13676  -1.13671  -1.13598
 Alpha  occ. eigenvalues --   -1.13589  -1.13554  -1.13424  -1.13417  -1.13400
 Alpha  occ. eigenvalues --   -0.15393  -0.14014  -0.13262  -0.11012
 Alpha virt. eigenvalues --   -0.07633  -0.05015  -0.04485  -0.03593  -0.03398
 Alpha virt. eigenvalues --   -0.02495  -0.02391  -0.01941  -0.01478  -0.00783
 Alpha virt. eigenvalues --   -0.00505  -0.00338  -0.00016   0.00396   0.00481

  Beta  occ. eigenvalues --  -38.45663 -38.45040 -38.45010 -38.44388 -38.44223
  Beta  occ. eigenvalues --  -38.44093 -38.43908  -2.21381  -2.20789  -2.20774
  Beta  occ. eigenvalues --   -2.20149  -2.19975  -2.19818  -2.19677  -1.15089
  Beta  occ. eigenvalues --   -1.15080  -1.14970  -1.14483  -1.14474  -1.14469
  Beta  occ. eigenvalues --   -1.14462  -1.14406  -1.14399  -1.13835  -1.13829
  Beta  occ. eigenvalues --   -1.13761  -1.13658  -1.13639  -1.13628  -1.13518
  Beta  occ. eigenvalues --   -1.13510  -1.13473  -1.13364  -1.13354  -1.13337
  Beta  occ. eigenvalues --   -0.14839  -0.13281  -0.12525
  Beta virt. eigenvalues --   -0.07885  -0.07766  -0.04611  -0.04002  -0.03428
  Beta virt. eigenvalues --   -0.03023  -0.02309  -0.02157  -0.01741  -0.01253
  Beta virt. eigenvalues --   -0.00477  -0.00299  -0.00053   0.00120   0.00414

 Mulliken charges and spin densities:
               1          2
     1  Na  -0.080961  -0.054054
     2  Na  -0.176205   0.246274
     3  Na  -0.036300   0.085275
     4  Na   0.537389   0.262051
     5  Na   0.728565  -0.080793
     6  Na  -1.058135   0.295104
     7  Na   0.085648   0.246144
 Sum of Mulliken charges =  -0.00000   1.00000

 Dipole moment (field-independent basis, Debye):
    X=             -0.4685    Y=             -0.5625    Z=             -0.0134  Tot=              0.7322
 Quadrupole moment (field-independent basis, Debye-Ang):
   XX=            -57.2110   YY=            -69.0420   ZZ=            -73.3661
   XY=              1.1381   XZ=              1.1331   YZ=             -0.2774

 Normal termination of Gaussian 16 at Mon Dec  4 03:19:25 2023.
