 Gaussian 16, Revision B.01,
 Gaussian 16:  ES64L-G16RevB.01 20-Dec-2017

 -------------------------
 #P B3LYP/6-311+g(d) force
 -------------------------

 -----
 DPGEN
 -----
 Symbolic Z-matrix:
 Charge =  0 Multiplicity = 2

                         Standard orientation:
 ---------------------------------------------------------------------
 Center     Atomic      Atomic             Coordinates (Angstroms)
 Number     Number       Type             X           Y           Z
 ---------------------------------------------------------------------
      1         11           0       -2.927579    1.140751   -0.378781
      2         11           0        0.322353    0.496752   -1.592381
      3         11           0       -0.153852   -0.701959    1.938744
      4         11           0       -3.296608   -2.144472    0.029619
      5         11           0        3.365661    0.528818    0.525475
      6         11           0        2.634209   -2.255575   -0.752048
      7         11           0        0.055817    2.935685    0.229373
 ---------------------------------------------------------------------

 SCF Done:  E(UB3LYP) =  -1136.12443510     A.U. after   21 cycles

 The electronic state is 2-A.
 Alpha  occ. eigenvalues --  -38.45085 -38.44188 -38.44173 -38.43991 -38.43860
 Alpha  occ. eigenvalues --  -38.43850 -38.42852  -2.20901  -2.20013  -2.19994
 Alpha  occ. eigenvalues --   -2.19818  -2.19768  -2.19623  -2.18713  -1.14576
 Alpha  occ. eigenvalues --   -1.14564  -1.14543  -1.13706  -1.13685  -1.13673
 Alpha  occ. eigenvalues --   -1.13641  -1.13634  -1.13591  -1.13482  -1.13470
 Alpha  occ. eigenvalues --   -1.13466  -1.13456  -1.13437  -1.13372  -1.13294
 Alpha  occ. eigenvalues --   -1.13288  -1.13263  -1.12407  -1.12366  -1.12341
 Alpha  occ. eigenvalues --   -0.17856  -0.13714  -0.11682  -0.10409
 Alpha virt. eigenvalues --   -0.06503  -0.05717  -0.04498  -0.03367  -0.02795
 Alpha virt. eigenvalues --   -0.02278  -0.02152  -0.01357  -0.00890  -0.00376
 Alpha virt. eigenvalues --   -0.00178   0.00240   0.00507   0.00604   0.00702

  Beta  occ. eigenvalues --  -38.45081 -38.44162 -38.44101 -38.43967 -38.43858
  Beta  occ. eigenvalues --  -38.43817 -38.42848  -2.20895  -2.19995  -2.19835
  Beta  occ. eigenvalues --   -2.19774  -2.19689  -2.19639  -2.18708  -1.14571
  Beta  occ. eigenvalues --   -1.14554  -1.14524  -1.13685  -1.13667  -1.13627
  Beta  occ. eigenvalues --   -1.13566  -1.13530  -1.13473  -1.13456  -1.13436
  Beta  occ. eigenvalues --   -1.13416  -1.13403  -1.13384  -1.13312  -1.13306
  Beta  occ. eigenvalues --   -1.13293  -1.13272  -1.12403  -1.12363  -1.12318
  Beta  occ. eigenvalues --   -0.17180  -0.13525  -0.11521
  Beta virt. eigenvalues --   -0.06671  -0.06278  -0.05613  -0.04321  -0.02832
  Beta virt. eigenvalues --   -0.02231  -0.01979  -0.01550  -0.01084  -0.00849
  Beta virt. eigenvalues --   -0.00334   0.00010   0.00285   0.00646   0.00702

 Mulliken charges and spin densities:
               1          2
     1  Na   0.109509   0.032658
     2  Na   0.125240   0.165112
     3  Na  -0.448904   0.546609
     4  Na   0.038719  -0.083858
     5  Na   0.218713   0.134150
     6  Na   0.033755   0.107846
     7  Na  -0.077031   0.097484
 Sum of Mulliken charges =  -0.00000   1.00000

 Dipole moment (field-independent basis, Debye):
    X=              0.6070    Y=              0.0268    Z=              0.1449  Tot=              0.6247
 Quadrupole moment (field-independent basis, Debye-Ang):
   XX=            -55.7271   YY=            -64.3672   ZZ=            -75.4154
   XY=              0.8295   XZ=              2.2783   YZ=              3.1436

 Normal termination of Gaussian 16 at Thu Dec  7 11:48:34 2023.
