 Gaussian 16, Revision B.01,
 Gaussian 16:  ES64L-G16RevB.01 20-Dec-2017

 -------------------------
 #P B3LYP/6-311+g(d) force
 -------------------------

 -----
 DPGEN
 -----
 Symbolic Z-matrix:
 Charge =  0 Multiplicity = 2

                         Standard orientation:
 ---------------------------------------------------------------------
 Center     Atomic      Atomic             Coordinates (Angstroms)
 Number     Number       Type             X           Y           Z
 ---------------------------------------------------------------------
      1         11           0        1.614124   -2.038837    1.131250
      2         11           0       -4.796272   -1.420667   -0.020568
      3         11           0       -1.199415   -2.340043   -0.195887
      4         11           0        4.549090   -1.695365   -1.041325
      5         11           0       -2.832325    1.521077   -0.328188
      6         11           0        2.543727    2.050495    0.657508
      7         11           0        0.121071    3.923341   -0.202790
 ---------------------------------------------------------------------

 SCF Done:  E(UB3LYP) =  -1136.11292021     A.U. after   21 cycles

 The electronic state is 2-A.
 Alpha  occ. eigenvalues --  -38.45474 -38.45373 -38.44709 -38.44200 -38.44010
 Alpha  occ. eigenvalues --  -38.43664 -38.43527  -2.21229  -2.21115  -2.20488
 Alpha  occ. eigenvalues --   -2.19982  -2.19842  -2.19464  -2.19352  -1.14918
 Alpha  occ. eigenvalues --   -1.14900  -1.14854  -1.14817  -1.14800  -1.14715
 Alpha  occ. eigenvalues --   -1.14154  -1.14144  -1.14110  -1.13629  -1.13624
 Alpha  occ. eigenvalues --   -1.13588  -1.13531  -1.13505  -1.13457  -1.13135
 Alpha  occ. eigenvalues --   -1.13124  -1.13109  -1.13034  -1.13019  -1.12977
 Alpha  occ. eigenvalues --   -0.15885  -0.13655  -0.13086  -0.10557
 Alpha virt. eigenvalues --   -0.07152  -0.05548  -0.04653  -0.03399  -0.02725
 Alpha virt. eigenvalues --   -0.02422  -0.02277  -0.01806  -0.01396  -0.01090
 Alpha virt. eigenvalues --   -0.00316  -0.00129   0.00270   0.00387   0.00434

  Beta  occ. eigenvalues --  -38.45471 -38.45366 -38.44685 -38.44101 -38.43950
  Beta  occ. eigenvalues --  -38.43663 -38.43504  -2.21225  -2.21103  -2.20442
  Beta  occ. eigenvalues --   -2.19797  -2.19735  -2.19464  -2.19317  -1.14916
  Beta  occ. eigenvalues --   -1.14896  -1.14845  -1.14809  -1.14789  -1.14701
  Beta  occ. eigenvalues --   -1.14123  -1.14107  -1.14081  -1.13503  -1.13496
  Beta  occ. eigenvalues --   -1.13467  -1.13450  -1.13433  -1.13375  -1.13132
  Beta  occ. eigenvalues --   -1.13123  -1.13111  -1.13004  -1.13000  -1.12915
  Beta  occ. eigenvalues --   -0.15468  -0.13208  -0.12523
  Beta virt. eigenvalues --   -0.07147  -0.06959  -0.05220  -0.04459  -0.03075
  Beta virt. eigenvalues --   -0.02539  -0.02152  -0.02000  -0.01607  -0.01208
  Beta virt. eigenvalues --   -0.00672   0.00036   0.00103   0.00350   0.00471

 Mulliken charges and spin densities:
               1          2
     1  Na   0.152470  -0.137838
     2  Na   0.709239   0.106490
     3  Na  -0.528802   0.288368
     4  Na   0.116158   0.567941
     5  Na  -0.436307   0.085722
     6  Na  -0.263797   0.062814
     7  Na   0.251040   0.026503
 Sum of Mulliken charges =  -0.00000   1.00000

 Dipole moment (field-independent basis, Debye):
    X=             -1.3416    Y=              0.3507    Z=             -0.0353  Tot=              1.3871
 Quadrupole moment (field-independent basis, Debye-Ang):
   XX=            -62.4973   YY=            -66.2057   ZZ=            -70.8047
   XY=              5.5944   XZ=              0.9166   YZ=              0.5514

 Normal termination of Gaussian 16 at Sun Dec  3 12:07:46 2023.
