 Gaussian 16, Revision B.01,
 Gaussian 16:  ES64L-G16RevB.01 20-Dec-2017

 -------------------------
 #P B3LYP/6-311+g(d) force
 -------------------------

 -----
 DPGEN
 -----
 Symbolic Z-matrix:
 Charge =  0 Multiplicity = 2

                         Standard orientation:
 ---------------------------------------------------------------------
 Center     Atomic      Atomic             Coordinates (Angstroms)
 Number     Number       Type             X           Y           Z
 ---------------------------------------------------------------------
      1         11           0       -1.119309    0.179863    1.806094
      2         11           0        2.088778   -1.459068    0.887747
      3         11           0       -3.752016   -0.986616   -0.144053
      4         11           0        1.423118    1.215633   -0.929488
      5         11           0       -2.593968    2.354697   -0.227201
      6         11           0       -0.551266   -1.938633   -1.312449
      7         11           0        4.504664    0.634123   -0.080651
 ---------------------------------------------------------------------

 SCF Done:  E(UB3LYP) =  -1136.11609729     A.U. after   44 cycles

 The electronic state is 2-A.
 Alpha  occ. eigenvalues --  -38.45057 -38.44265 -38.44228 -38.44148 -38.43874
 Alpha  occ. eigenvalues --  -38.43519 -38.43308  -2.20897  -2.20151  -2.20073
 Alpha  occ. eigenvalues --   -2.20036  -2.19726  -2.19329  -2.19141  -1.14597
 Alpha  occ. eigenvalues --   -1.14571  -1.14527  -1.13835  -1.13819  -1.13763
 Alpha  occ. eigenvalues --   -1.13742  -1.13716  -1.13713  -1.13706  -1.13682
 Alpha  occ. eigenvalues --   -1.13662  -1.13381  -1.13362  -1.13353  -1.13005
 Alpha  occ. eigenvalues --   -1.12991  -1.12973  -1.12840  -1.12785  -1.12771
 Alpha  occ. eigenvalues --   -0.18045  -0.14585  -0.11155  -0.10504
 Alpha virt. eigenvalues --   -0.07646  -0.05475  -0.04103  -0.03697  -0.03059
 Alpha virt. eigenvalues --   -0.02282  -0.01790  -0.01616  -0.00840  -0.00685
 Alpha virt. eigenvalues --   -0.00507   0.00120   0.00228   0.00595   0.00674

  Beta  occ. eigenvalues --  -38.45063 -38.44209 -38.44159 -38.44135 -38.43824
  Beta  occ. eigenvalues --  -38.43518 -38.43295  -2.20911  -2.20052  -2.20016
  Beta  occ. eigenvalues --   -2.19944  -2.19631  -2.19330  -2.19119  -1.14610
  Beta  occ. eigenvalues --   -1.14579  -1.14514  -1.13756  -1.13748  -1.13708
  Beta  occ. eigenvalues --   -1.13696  -1.13681  -1.13651  -1.13629  -1.13623
  Beta  occ. eigenvalues --   -1.13588  -1.13316  -1.13298  -1.13292  -1.13006
  Beta  occ. eigenvalues --   -1.12990  -1.12958  -1.12828  -1.12774  -1.12735
  Beta  occ. eigenvalues --   -0.17485  -0.14032  -0.10882
  Beta virt. eigenvalues --   -0.07448  -0.06944  -0.05422  -0.03392  -0.03363
  Beta virt. eigenvalues --   -0.02923  -0.02040  -0.01563  -0.01232  -0.00463
  Beta virt. eigenvalues --   -0.00387  -0.00261   0.00177   0.00383   0.00627

 Mulliken charges and spin densities:
               1          2
     1  Na  -0.089808   0.224797
     2  Na   0.217887   0.146368
     3  Na   0.098990   0.342302
     4  Na  -0.462493  -0.053486
     5  Na   0.102959   0.079211
     6  Na  -0.120250   0.099100
     7  Na   0.252714   0.161707
 Sum of Mulliken charges =  -0.00000   1.00000

 Dipole moment (field-independent basis, Debye):
    X=              0.4277    Y=             -0.2495    Z=              0.5710  Tot=              0.7557
 Quadrupole moment (field-independent basis, Debye-Ang):
   XX=            -63.4693   YY=            -76.1812   ZZ=            -64.0896
   XY=             -3.2747   XZ=              1.0764   YZ=             -5.2483

 Normal termination of Gaussian 16 at Wed Nov 29 03:21:51 2023.
