 Gaussian 16, Revision B.01,
 Gaussian 16:  ES64L-G16RevB.01 20-Dec-2017

 -------------------------
 #P B3LYP/6-311+g(d) force
 -------------------------

 -----
 DPGEN
 -----
 Symbolic Z-matrix:
 Charge =  0 Multiplicity = 2

                         Standard orientation:
 ---------------------------------------------------------------------
 Center     Atomic      Atomic             Coordinates (Angstroms)
 Number     Number       Type             X           Y           Z
 ---------------------------------------------------------------------
      1         11           0       -3.589574    0.162357   -1.431143
      2         11           0        0.999031   -1.171265    1.866765
      3         11           0        3.350469   -1.252500   -0.935944
      4         11           0       -0.384368   -1.676027   -1.237286
      5         11           0       -0.692718    2.443205    0.230718
      6         11           0        2.595421    2.134293   -0.153674
      7         11           0       -2.278262   -0.640064    1.660565
 ---------------------------------------------------------------------

 SCF Done:  E(UB3LYP) =  -1136.12744511     A.U. after   21 cycles

 The electronic state is 2-A.
 Alpha  occ. eigenvalues --  -38.44733 -38.44407 -38.44324 -38.44272 -38.44136
 Alpha  occ. eigenvalues --  -38.43157 -38.43045  -2.20542  -2.20205  -2.20194
 Alpha  occ. eigenvalues --   -2.20088  -2.19995  -2.18956  -2.18840  -1.14208
 Alpha  occ. eigenvalues --   -1.14179  -1.14166  -1.13895  -1.13880  -1.13852
 Alpha  occ. eigenvalues --   -1.13842  -1.13834  -1.13823  -1.13786  -1.13770
 Alpha  occ. eigenvalues --   -1.13693  -1.13668  -1.13626  -1.13611  -1.12642
 Alpha  occ. eigenvalues --   -1.12632  -1.12600  -1.12525  -1.12519  -1.12451
 Alpha  occ. eigenvalues --   -0.17776  -0.13749  -0.11569  -0.11265
 Alpha virt. eigenvalues --   -0.06383  -0.05241  -0.05035  -0.03381  -0.02833
 Alpha virt. eigenvalues --   -0.02451  -0.02221  -0.01069  -0.00834  -0.00260
 Alpha virt. eigenvalues --    0.00091   0.00216   0.00237   0.00365   0.00712

  Beta  occ. eigenvalues --  -38.44681 -38.44383 -38.44281 -38.44254 -38.44079
  Beta  occ. eigenvalues --  -38.43159 -38.43040  -2.20443  -2.20160  -2.20121
  Beta  occ. eigenvalues --   -2.20055  -2.19894  -2.18962  -2.18833  -1.14139
  Beta  occ. eigenvalues --   -1.14109  -1.14102  -1.13846  -1.13831  -1.13822
  Beta  occ. eigenvalues --   -1.13807  -1.13793  -1.13762  -1.13750  -1.13735
  Beta  occ. eigenvalues --   -1.13666  -1.13603  -1.13560  -1.13517  -1.12646
  Beta  occ. eigenvalues --   -1.12632  -1.12603  -1.12520  -1.12502  -1.12450
  Beta  occ. eigenvalues --   -0.17090  -0.13419  -0.11213
  Beta virt. eigenvalues --   -0.07680  -0.06125  -0.05066  -0.04488  -0.03247
  Beta virt. eigenvalues --   -0.02082  -0.02017  -0.01889  -0.00837  -0.00593
  Beta virt. eigenvalues --   -0.00160   0.00170   0.00267   0.00441   0.00463

 Mulliken charges and spin densities:
               1          2
     1  Na   0.639059   0.224652
     2  Na  -0.160412   0.281861
     3  Na   0.464296   0.199663
     4  Na  -0.639385   0.211990
     5  Na  -0.514993   0.114999
     6  Na  -0.064775  -0.129357
     7  Na   0.276209   0.096191
 Sum of Mulliken charges =  -0.00000   1.00000

 Dipole moment (field-independent basis, Debye):
    X=             -0.4979    Y=             -0.9067    Z=             -0.2055  Tot=              1.0546
 Quadrupole moment (field-independent basis, Debye-Ang):
   XX=            -51.3763   YY=            -78.5948   ZZ=            -66.2193
   XY=             -2.7471   XZ=             -0.2482   YZ=             -0.2922

 Normal termination of Gaussian 16 at Sun Dec  3 12:18:24 2023.
