 Gaussian 16, Revision B.01,
 Gaussian 16:  ES64L-G16RevB.01 20-Dec-2017

 -------------------------
 #P B3LYP/6-311+g(d) force
 -------------------------

 -----
 DPGEN
 -----
 Symbolic Z-matrix:
 Charge =  0 Multiplicity = 2

                         Standard orientation:
 ---------------------------------------------------------------------
 Center     Atomic      Atomic             Coordinates (Angstroms)
 Number     Number       Type             X           Y           Z
 ---------------------------------------------------------------------
      1         11           0       -2.589577    1.830645   -0.255640
      2         11           0       -4.073333   -1.448253    0.014215
      3         11           0       -0.771178   -0.272291    2.173282
      4         11           0        5.470038   -0.160193    0.218114
      5         11           0       -0.969970   -0.883443   -1.315677
      6         11           0        2.296875   -1.171308   -0.521653
      7         11           0        0.637145    2.104842   -0.312642
 ---------------------------------------------------------------------

 SCF Done:  E(UB3LYP) =  -1136.11012759     A.U. after   30 cycles

 The electronic state is 2-A.
 Alpha  occ. eigenvalues --  -38.47338 -38.44972 -38.44098 -38.43416 -38.43168
 Alpha  occ. eigenvalues --  -38.43132 -38.42995  -2.23117  -2.20896  -2.19890
 Alpha  occ. eigenvalues --   -2.19328  -2.18983  -2.18965  -2.18866  -1.16778
 Alpha  occ. eigenvalues --   -1.16768  -1.16739  -1.14578  -1.14566  -1.14516
 Alpha  occ. eigenvalues --   -1.13532  -1.13529  -1.13509  -1.13031  -1.12990
 Alpha  occ. eigenvalues --   -1.12921  -1.12666  -1.12657  -1.12638  -1.12635
 Alpha  occ. eigenvalues --   -1.12623  -1.12614  -1.12558  -1.12523  -1.12488
 Alpha  occ. eigenvalues --   -0.18335  -0.13668  -0.11316  -0.10773
 Alpha virt. eigenvalues --   -0.08351  -0.04793  -0.04388  -0.03132  -0.03095
 Alpha virt. eigenvalues --   -0.02486  -0.02174  -0.01642  -0.01463  -0.00953
 Alpha virt. eigenvalues --   -0.00288   0.00158   0.00197   0.00510   0.00672

  Beta  occ. eigenvalues --  -38.47302 -38.44939 -38.44015 -38.43370 -38.43160
  Beta  occ. eigenvalues --  -38.43132 -38.43001  -2.23051  -2.20841  -2.19734
  Beta  occ. eigenvalues --   -2.19243  -2.18974  -2.18969  -2.18877  -1.16726
  Beta  occ. eigenvalues --   -1.16714  -1.16696  -1.14535  -1.14513  -1.14474
  Beta  occ. eigenvalues --   -1.13427  -1.13424  -1.13409  -1.12977  -1.12935
  Beta  occ. eigenvalues --   -1.12854  -1.12677  -1.12647  -1.12646  -1.12620
  Beta  occ. eigenvalues --   -1.12617  -1.12573  -1.12567  -1.12523  -1.12491
  Beta  occ. eigenvalues --   -0.17825  -0.13118  -0.10883
  Beta virt. eigenvalues --   -0.08009  -0.07428  -0.04663  -0.03900  -0.02947
  Beta virt. eigenvalues --   -0.02857  -0.02158  -0.01930  -0.01277  -0.01064
  Beta virt. eigenvalues --   -0.00537  -0.00137   0.00275   0.00290   0.00563

 Mulliken charges and spin densities:
               1          2
     1  Na   0.313263   0.402579
     2  Na   0.307172  -0.006324
     3  Na  -0.015849   0.056242
     4  Na   0.308669   0.396844
     5  Na  -0.002109   0.110775
     6  Na  -0.539709   0.067452
     7  Na  -0.371436  -0.027569
 Sum of Mulliken charges =  -0.00000   1.00000

 Dipole moment (field-independent basis, Debye):
    X=             -0.9108    Y=              0.3030    Z=              1.6982  Tot=              1.9507
 Quadrupole moment (field-independent basis, Debye-Ang):
   XX=            -70.9419   YY=            -78.0756   ZZ=            -58.3282
   XY=              3.0075   XZ=             -0.5712   YZ=              0.1926

 Normal termination of Gaussian 16 at Thu Dec  7 12:12:45 2023.
