 Gaussian 16, Revision B.01,
 Gaussian 16:  ES64L-G16RevB.01 20-Dec-2017

 -------------------------
 #P B3LYP/6-311+g(d) force
 -------------------------

 -----
 DPGEN
 -----
 Symbolic Z-matrix:
 Charge =  0 Multiplicity = 2

                         Standard orientation:
 ---------------------------------------------------------------------
 Center     Atomic      Atomic             Coordinates (Angstroms)
 Number     Number       Type             X           Y           Z
 ---------------------------------------------------------------------
      1         11           0        0.935075   -2.137488   -0.632629
      2         11           0        0.046083    0.080398    1.713961
      3         11           0       -2.456486    0.351065   -0.799851
      4         11           0       -1.158000    3.192272    0.548607
      5         11           0        3.750556   -0.150858    0.383764
      6         11           0        1.028376    1.340470   -1.531433
      7         11           0       -2.145605   -2.675860    0.317582
 ---------------------------------------------------------------------

 SCF Done:  E(UB3LYP) =  -1136.13582333     A.U. after   19 cycles

 The electronic state is 2-A.
 Alpha  occ. eigenvalues --  -38.44386 -38.43832 -38.43758 -38.43591 -38.43434
 Alpha  occ. eigenvalues --  -38.43428 -38.43362  -2.20165  -2.19710  -2.19636
 Alpha  occ. eigenvalues --   -2.19423  -2.19306  -2.19282  -2.19271  -1.13838
 Alpha  occ. eigenvalues --   -1.13829  -1.13795  -1.13397  -1.13383  -1.13353
 Alpha  occ. eigenvalues --   -1.13347  -1.13316  -1.13247  -1.13091  -1.13084
 Alpha  occ. eigenvalues --   -1.13065  -1.13006  -1.12973  -1.12954  -1.12949
 Alpha  occ. eigenvalues --   -1.12930  -1.12922  -1.12895  -1.12890  -1.12884
 Alpha  occ. eigenvalues --   -0.18330  -0.12952  -0.12703  -0.10273
 Alpha virt. eigenvalues --   -0.05971  -0.05231  -0.04814  -0.03163  -0.02919
 Alpha virt. eigenvalues --   -0.02159  -0.01854  -0.01365  -0.00459  -0.00354
 Alpha virt. eigenvalues --    0.00145   0.00305   0.00763   0.00795   0.00801

  Beta  occ. eigenvalues --  -38.44387 -38.43814 -38.43745 -38.43584 -38.43428
  Beta  occ. eigenvalues --  -38.43381 -38.43285  -2.20169  -2.19678  -2.19616
  Beta  occ. eigenvalues --   -2.19412  -2.19282  -2.19209  -2.19132  -1.13842
  Beta  occ. eigenvalues --   -1.13818  -1.13799  -1.13378  -1.13340  -1.13338
  Beta  occ. eigenvalues --   -1.13327  -1.13273  -1.13238  -1.13085  -1.13066
  Beta  occ. eigenvalues --   -1.13046  -1.12952  -1.12941  -1.12926  -1.12911
  Beta  occ. eigenvalues --   -1.12888  -1.12860  -1.12829  -1.12791  -1.12786
  Beta  occ. eigenvalues --   -0.17622  -0.12775  -0.12505
  Beta virt. eigenvalues --   -0.06447  -0.05875  -0.05142  -0.04738  -0.02496
  Beta virt. eigenvalues --   -0.02299  -0.01790  -0.01293  -0.01219  -0.00453
  Beta virt. eigenvalues --   -0.00145   0.00218   0.00353   0.00777   0.00804

 Mulliken charges and spin densities:
               1          2
     1  Na  -0.173021   0.097738
     2  Na  -0.399568   0.609678
     3  Na  -0.179966   0.148880
     4  Na   0.206715  -0.044193
     5  Na   0.141510  -0.059609
     6  Na  -0.085693   0.282895
     7  Na   0.490023  -0.035389
 Sum of Mulliken charges =  -0.00000   1.00000

 Dipole moment (field-independent basis, Debye):
    X=              0.4218    Y=              0.1148    Z=              0.0878  Tot=              0.4459
 Quadrupole moment (field-independent basis, Debye-Ang):
   XX=            -55.5746   YY=            -60.9900   ZZ=            -75.0852
   XY=              0.4352   XZ=              0.9083   YZ=              0.5238

 Normal termination of Gaussian 16 at Thu Dec  7 07:24:44 2023.
