 Gaussian 16, Revision B.01,
 Gaussian 16:  ES64L-G16RevB.01 20-Dec-2017

 -------------------------
 #P B3LYP/6-311+g(d) force
 -------------------------

 -----
 DPGEN
 -----
 Symbolic Z-matrix:
 Charge =  0 Multiplicity = 2

                         Standard orientation:
 ---------------------------------------------------------------------
 Center     Atomic      Atomic             Coordinates (Angstroms)
 Number     Number       Type             X           Y           Z
 ---------------------------------------------------------------------
      1         11           0       -1.708087    2.395774   -0.461591
      2         11           0        3.099955   -1.491962    0.009007
      3         11           0        3.189636    1.628702   -0.064921
      4         11           0        0.629945   -0.170480   -0.212810
      5         11           0       -2.044815   -0.571906   -1.943016
      6         11           0       -1.455539   -2.359111    0.492997
      7         11           0       -1.711094    0.568984    2.180334
 ---------------------------------------------------------------------

 SCF Done:  E(UB3LYP) =  -1136.11522043     A.U. after   22 cycles

 The electronic state is 2-A.
 Alpha  occ. eigenvalues --  -38.44861 -38.44740 -38.43967 -38.43929 -38.43016
 Alpha  occ. eigenvalues --  -38.42855 -38.42825  -2.20749  -2.20585  -2.19901
 Alpha  occ. eigenvalues --   -2.19826  -2.19166  -2.18777  -2.18699  -1.14538
 Alpha  occ. eigenvalues --   -1.14390  -1.14377  -1.14262  -1.14232  -1.14181
 Alpha  occ. eigenvalues --   -1.13585  -1.13550  -1.13507  -1.13488  -1.13458
 Alpha  occ. eigenvalues --   -1.13444  -1.12865  -1.12853  -1.12806  -1.12448
 Alpha  occ. eigenvalues --   -1.12434  -1.12398  -1.12366  -1.12362  -1.12341
 Alpha  occ. eigenvalues --   -0.18597  -0.14248  -0.11428  -0.11263
 Alpha virt. eigenvalues --   -0.05827  -0.05584  -0.03611  -0.03361  -0.03049
 Alpha virt. eigenvalues --   -0.02661  -0.01814  -0.01060  -0.00444  -0.00130
 Alpha virt. eigenvalues --    0.00104   0.00330   0.00678   0.00766   0.00865

  Beta  occ. eigenvalues --  -38.44864 -38.44743 -38.43887 -38.43838 -38.43002
  Beta  occ. eigenvalues --  -38.42839 -38.42812  -2.20754  -2.20591  -2.19755
  Beta  occ. eigenvalues --   -2.19659  -2.19146  -2.18752  -2.18680  -1.14541
  Beta  occ. eigenvalues --   -1.14396  -1.14377  -1.14266  -1.14234  -1.14186
  Beta  occ. eigenvalues --   -1.13489  -1.13447  -1.13401  -1.13375  -1.13350
  Beta  occ. eigenvalues --   -1.13318  -1.12852  -1.12813  -1.12783  -1.12438
  Beta  occ. eigenvalues --   -1.12403  -1.12359  -1.12358  -1.12336  -1.12310
  Beta  occ. eigenvalues --   -0.17917  -0.14016  -0.11224
  Beta virt. eigenvalues --   -0.07166  -0.05779  -0.05368  -0.03514  -0.02974
  Beta virt. eigenvalues --   -0.02286  -0.01854  -0.01543  -0.01066  -0.00120
  Beta virt. eigenvalues --   -0.00019   0.00126   0.00383   0.00748   0.00887

 Mulliken charges and spin densities:
               1          2
     1  Na   1.657254   0.376741
     2  Na  -0.964197  -0.566610
     3  Na   0.065536  -0.177509
     4  Na  -2.135578   0.827656
     5  Na   0.643898   0.091948
     6  Na   1.187635   0.338990
     7  Na  -0.454547   0.108785
 Sum of Mulliken charges =  -0.00000   1.00000

 Dipole moment (field-independent basis, Debye):
    X=              1.3689    Y=              0.0527    Z=              0.1042  Tot=              1.3738
 Quadrupole moment (field-independent basis, Debye-Ang):
   XX=            -54.9175   YY=            -67.6771   ZZ=            -69.7006
   XY=              1.1731   XZ=              0.8200   YZ=             -1.2561

 Normal termination of Gaussian 16 at Thu Dec  7 13:34:38 2023.
