 Gaussian 16, Revision B.01,
 Gaussian 16:  ES64L-G16RevB.01 20-Dec-2017

 -------------------------
 #P B3LYP/6-311+g(d) force
 -------------------------

 -----
 DPGEN
 -----
 Symbolic Z-matrix:
 Charge =  0 Multiplicity = 2

                         Standard orientation:
 ---------------------------------------------------------------------
 Center     Atomic      Atomic             Coordinates (Angstroms)
 Number     Number       Type             X           Y           Z
 ---------------------------------------------------------------------
      1         11           0       -1.864960   -1.985767   -1.140296
      2         11           0       -4.724452   -1.708459    0.221491
      3         11           0       -2.973190    0.730878    1.230885
      4         11           0       -1.423956    3.587888   -0.571473
      5         11           0        0.120609    0.561172   -0.190842
      6         11           0        4.124486   -1.311771    0.476316
      7         11           0        6.741465    0.126059   -0.026081
 ---------------------------------------------------------------------

 SCF Done:  E(UB3LYP) =  -1136.11457928     A.U. after   20 cycles

 The electronic state is 2-A.
 Alpha  occ. eigenvalues --  -38.44610 -38.44323 -38.44141 -38.44139 -38.43963
 Alpha  occ. eigenvalues --  -38.43842 -38.43649  -2.20483  -2.20186  -2.19942
 Alpha  occ. eigenvalues --   -2.19930  -2.19753  -2.19710  -2.19513  -1.14186
 Alpha  occ. eigenvalues --   -1.14152  -1.14088  -1.13856  -1.13846  -1.13818
 Alpha  occ. eigenvalues --   -1.13664  -1.13596  -1.13595  -1.13587  -1.13586
 Alpha  occ. eigenvalues --   -1.13554  -1.13413  -1.13407  -1.13399  -1.13381
 Alpha  occ. eigenvalues --   -1.13366  -1.13301  -1.13181  -1.13159  -1.13148
 Alpha  occ. eigenvalues --   -0.17095  -0.13377  -0.12381  -0.11156
 Alpha virt. eigenvalues --   -0.06433  -0.05516  -0.04189  -0.03718  -0.02940
 Alpha virt. eigenvalues --   -0.02418  -0.02077  -0.01841  -0.01289  -0.00711
 Alpha virt. eigenvalues --   -0.00437  -0.00206   0.00378   0.00421   0.00642

  Beta  occ. eigenvalues --  -38.44566 -38.44272 -38.44122 -38.44117 -38.43969
  Beta  occ. eigenvalues --  -38.43796 -38.43627  -2.20405  -2.20094  -2.19900
  Beta  occ. eigenvalues --   -2.19894  -2.19767  -2.19629  -2.19474  -1.14123
  Beta  occ. eigenvalues --   -1.14099  -1.14025  -1.13791  -1.13782  -1.13742
  Beta  occ. eigenvalues --   -1.13642  -1.13571  -1.13567  -1.13559  -1.13557
  Beta  occ. eigenvalues --   -1.13530  -1.13424  -1.13416  -1.13356  -1.13350
  Beta  occ. eigenvalues --   -1.13324  -1.13219  -1.13142  -1.13132  -1.13122
  Beta  occ. eigenvalues --   -0.16351  -0.13133  -0.12213
  Beta virt. eigenvalues --   -0.07428  -0.06072  -0.05245  -0.03874  -0.03407
  Beta virt. eigenvalues --   -0.02486  -0.02178  -0.01977  -0.01553  -0.00858
  Beta virt. eigenvalues --   -0.00617  -0.00193  -0.00082   0.00472   0.00532

 Mulliken charges and spin densities:
               1          2
     1  Na   0.465407   0.159794
     2  Na   0.132334   0.146775
     3  Na   0.164846   0.317380
     4  Na   0.745082   0.142304
     5  Na  -1.397550   0.202115
     6  Na  -0.396079  -0.055010
     7  Na   0.285960   0.086642
 Sum of Mulliken charges =  -0.00000   1.00000

 Dipole moment (field-independent basis, Debye):
    X=             -0.6621    Y=              0.5207    Z=             -0.4263  Tot=              0.9441
 Quadrupole moment (field-independent basis, Debye-Ang):
   XX=            -61.5385   YY=            -64.3883   ZZ=            -69.6934
   XY=              5.0814   XZ=             -0.8259   YZ=             -1.8212

 Normal termination of Gaussian 16 at Tue Nov 28 20:16:49 2023.
