 Gaussian 16, Revision B.01,
 Gaussian 16:  ES64L-G16RevB.01 20-Dec-2017

 -------------------------
 #P B3LYP/6-311+g(d) force
 -------------------------

 -----
 DPGEN
 -----
 Symbolic Z-matrix:
 Charge =  0 Multiplicity = 2

                         Standard orientation:
 ---------------------------------------------------------------------
 Center     Atomic      Atomic             Coordinates (Angstroms)
 Number     Number       Type             X           Y           Z
 ---------------------------------------------------------------------
      1         11           0       -2.781784   -0.500734   -0.597318
      2         11           0       -0.301950    0.037763    2.054610
      3         11           0        2.494015   -1.386083    0.013647
      4         11           0       -1.647251    2.556366    0.037702
      5         11           0        2.267969    2.162380   -0.042706
      6         11           0       -0.520242   -2.759944    0.197225
      7         11           0        0.489243   -0.109747   -1.663161
 ---------------------------------------------------------------------

 SCF Done:  E(UB3LYP) =  -1136.13673541     A.U. after   19 cycles

 The electronic state is 2-A.
 Alpha  occ. eigenvalues --  -38.43790 -38.43692 -38.43659 -38.43653 -38.43493
 Alpha  occ. eigenvalues --  -38.43326 -38.43146  -2.19611  -2.19608  -2.19557
 Alpha  occ. eigenvalues --   -2.19487  -2.19378  -2.19338  -2.19060  -1.13430
 Alpha  occ. eigenvalues --   -1.13302  -1.13280  -1.13257  -1.13247  -1.13228
 Alpha  occ. eigenvalues --   -1.13206  -1.13202  -1.13182  -1.13168  -1.13143
 Alpha  occ. eigenvalues --   -1.13125  -1.13067  -1.13035  -1.13006  -1.12991
 Alpha  occ. eigenvalues --   -1.12950  -1.12938  -1.12730  -1.12713  -1.12698
 Alpha  occ. eigenvalues --   -0.18968  -0.13017  -0.12606  -0.10998
 Alpha virt. eigenvalues --   -0.05429  -0.04961  -0.04729  -0.03290  -0.03034
 Alpha virt. eigenvalues --   -0.02671  -0.01233  -0.01125  -0.00256  -0.00126
 Alpha virt. eigenvalues --    0.00020   0.00370   0.00880   0.00914   0.00934

  Beta  occ. eigenvalues --  -38.43789 -38.43686 -38.43657 -38.43559 -38.43476
  Beta  occ. eigenvalues --  -38.43263 -38.43137  -2.19611  -2.19601  -2.19486
  Beta  occ. eigenvalues --   -2.19385  -2.19351  -2.19224  -2.19049  -1.13408
  Beta  occ. eigenvalues --   -1.13296  -1.13271  -1.13245  -1.13226  -1.13206
  Beta  occ. eigenvalues --   -1.13180  -1.13142  -1.13131  -1.13112  -1.13064
  Beta  occ. eigenvalues --   -1.13047  -1.13039  -1.13003  -1.12983  -1.12921
  Beta  occ. eigenvalues --   -1.12874  -1.12856  -1.12722  -1.12696  -1.12668
  Beta  occ. eigenvalues --   -0.18220  -0.12769  -0.12368
  Beta virt. eigenvalues --   -0.07048  -0.05436  -0.04867  -0.04717  -0.02495
  Beta virt. eigenvalues --   -0.02246  -0.01615  -0.01155  -0.01052  -0.00281
  Beta virt. eigenvalues --   -0.00148   0.00131   0.00394   0.00878   0.00930

 Mulliken charges and spin densities:
               1          2
     1  Na   0.116997   0.042452
     2  Na  -0.535360   0.694323
     3  Na   0.338596  -0.024312
     4  Na   0.005511  -0.078750
     5  Na  -0.019662  -0.119944
     6  Na   0.342629   0.079041
     7  Na  -0.248711   0.407190
 Sum of Mulliken charges =  -0.00000   1.00000

 Dipole moment (field-independent basis, Debye):
    X=              0.1309    Y=              0.2730    Z=              0.1803  Tot=              0.3524
 Quadrupole moment (field-independent basis, Debye-Ang):
   XX=            -60.4256   YY=            -61.0530   ZZ=            -72.8908
   XY=              0.3531   XZ=              1.7195   YZ=             -0.1722

 Normal termination of Gaussian 16 at Wed Nov 29 16:15:10 2023.
