 Gaussian 16, Revision B.01,
 Gaussian 16:  ES64L-G16RevB.01 20-Dec-2017

 -------------------------
 #P B3LYP/6-311+g(d) force
 -------------------------

 -----
 DPGEN
 -----
 Symbolic Z-matrix:
 Charge =  0 Multiplicity = 2

                         Standard orientation:
 ---------------------------------------------------------------------
 Center     Atomic      Atomic             Coordinates (Angstroms)
 Number     Number       Type             X           Y           Z
 ---------------------------------------------------------------------
      1         11           0       -0.284450    0.005044   -1.693700
      2         11           0       -3.055699    0.480140   -0.005402
      3         11           0        0.256316   -0.384984    1.753446
      4         11           0       -0.498002    2.949695    0.381609
      5         11           0        2.767080    1.349634   -0.409704
      6         11           0        2.354903   -1.918907    0.086157
      7         11           0       -1.540148   -2.480623   -0.112406
 ---------------------------------------------------------------------

 SCF Done:  E(UB3LYP) =  -1136.13766798     A.U. after   19 cycles

 The electronic state is 2-A.
 Alpha  occ. eigenvalues --  -38.44051 -38.43909 -38.43754 -38.43453 -38.43282
 Alpha  occ. eigenvalues --  -38.43185 -38.43158  -2.19912  -2.19745  -2.19627
 Alpha  occ. eigenvalues --   -2.19344  -2.19162  -2.19126  -2.19104  -1.13602
 Alpha  occ. eigenvalues --   -1.13573  -1.13548  -1.13427  -1.13413  -1.13389
 Alpha  occ. eigenvalues --   -1.13345  -1.13274  -1.13245  -1.13060  -1.13019
 Alpha  occ. eigenvalues --   -1.12963  -1.12855  -1.12795  -1.12792  -1.12781
 Alpha  occ. eigenvalues --   -1.12777  -1.12754  -1.12748  -1.12744  -1.12730
 Alpha  occ. eigenvalues --   -0.18856  -0.13319  -0.12416  -0.10541
 Alpha virt. eigenvalues --   -0.05621  -0.05283  -0.04694  -0.03250  -0.02793
 Alpha virt. eigenvalues --   -0.02229  -0.01554  -0.01147  -0.00385  -0.00333
 Alpha virt. eigenvalues --    0.00026   0.00360   0.00805   0.00878   0.00890

  Beta  occ. eigenvalues --  -38.44047 -38.43898 -38.43748 -38.43445 -38.43274
  Beta  occ. eigenvalues --  -38.43115 -38.43080  -2.19908  -2.19729  -2.19621
  Beta  occ. eigenvalues --   -2.19334  -2.19093  -2.19034  -2.18983  -1.13594
  Beta  occ. eigenvalues --   -1.13565  -1.13535  -1.13418  -1.13387  -1.13376
  Beta  occ. eigenvalues --   -1.13327  -1.13255  -1.13239  -1.13048  -1.12986
  Beta  occ. eigenvalues --   -1.12953  -1.12781  -1.12756  -1.12752  -1.12736
  Beta  occ. eigenvalues --   -1.12696  -1.12691  -1.12678  -1.12649  -1.12630
  Beta  occ. eigenvalues --   -0.18148  -0.13052  -0.12157
  Beta virt. eigenvalues --   -0.06688  -0.05571  -0.05262  -0.04648  -0.02449
  Beta virt. eigenvalues --   -0.02051  -0.01458  -0.01231  -0.01079  -0.00420
  Beta virt. eigenvalues --   -0.00373   0.00154   0.00390   0.00860   0.00878

 Mulliken charges and spin densities:
               1          2
     1  Na  -0.226379   0.568954
     2  Na   0.112128  -0.043365
     3  Na  -0.275665   0.724613
     4  Na  -0.091274  -0.034949
     5  Na  -0.028616   0.008186
     6  Na   0.281832  -0.090857
     7  Na   0.227974  -0.132582
 Sum of Mulliken charges =  -0.00000   1.00000

 Dipole moment (field-independent basis, Debye):
    X=             -0.0157    Y=             -0.0571    Z=             -0.0184  Tot=              0.0620
 Quadrupole moment (field-independent basis, Debye-Ang):
   XX=            -55.3845   YY=            -62.0941   ZZ=            -75.3521
   XY=              0.0697   XZ=             -1.2820   YZ=              0.7692

 Normal termination of Gaussian 16 at Thu Dec  7 02:46:30 2023.
