 Gaussian 16, Revision B.01,
 Gaussian 16:  ES64L-G16RevB.01 20-Dec-2017

 -------------------------
 #P B3LYP/6-311+g(d) force
 -------------------------

 -----
 DPGEN
 -----
 Symbolic Z-matrix:
 Charge =  0 Multiplicity = 2

                         Standard orientation:
 ---------------------------------------------------------------------
 Center     Atomic      Atomic             Coordinates (Angstroms)
 Number     Number       Type             X           Y           Z
 ---------------------------------------------------------------------
      1         11           0        2.461995    1.911158   -0.360577
      2         11           0       -1.341758    2.801920    0.318613
      3         11           0       -3.015837   -0.331201   -0.391628
      4         11           0       -0.697868   -2.864467    0.120610
      5         11           0        2.607166   -1.508396    0.171907
      6         11           0       -0.075047    0.076563    1.748738
      7         11           0        0.061349   -0.085578   -1.607663
 ---------------------------------------------------------------------

 SCF Done:  E(UB3LYP) =  -1136.14027663     A.U. after   19 cycles

 The electronic state is 2-A.
 Alpha  occ. eigenvalues --  -38.43787 -38.43775 -38.43686 -38.43629 -38.43334
 Alpha  occ. eigenvalues --  -38.43064 -38.43007  -2.19632  -2.19618  -2.19547
 Alpha  occ. eigenvalues --   -2.19454  -2.19208  -2.19031  -2.19007  -1.13322
 Alpha  occ. eigenvalues --   -1.13305  -1.13292  -1.13285  -1.13262  -1.13255
 Alpha  occ. eigenvalues --   -1.13222  -1.13219  -1.13169  -1.13144  -1.13109
 Alpha  occ. eigenvalues --   -1.13086  -1.12900  -1.12883  -1.12836  -1.12752
 Alpha  occ. eigenvalues --   -1.12668  -1.12649  -1.12645  -1.12628  -1.12623
 Alpha  occ. eigenvalues --   -0.18838  -0.13034  -0.12599  -0.10483
 Alpha virt. eigenvalues --   -0.05385  -0.05246  -0.04929  -0.03031  -0.02827
 Alpha virt. eigenvalues --   -0.02175  -0.01473  -0.01296  -0.00460  -0.00312
 Alpha virt. eigenvalues --    0.00037   0.00352   0.00833   0.00869   0.00880

  Beta  occ. eigenvalues --  -38.43778 -38.43763 -38.43680 -38.43621 -38.43328
  Beta  occ. eigenvalues --  -38.42985 -38.42941  -2.19613  -2.19604  -2.19540
  Beta  occ. eigenvalues --   -2.19443  -2.19202  -2.18887  -2.18885  -1.13302
  Beta  occ. eigenvalues --   -1.13290  -1.13271  -1.13269  -1.13246  -1.13241
  Beta  occ. eigenvalues --   -1.13218  -1.13197  -1.13158  -1.13124  -1.13091
  Beta  occ. eigenvalues --   -1.13082  -1.12894  -1.12860  -1.12821  -1.12662
  Beta  occ. eigenvalues --   -1.12576  -1.12551  -1.12548  -1.12533  -1.12531
  Beta  occ. eigenvalues --   -0.18139  -0.12754  -0.12323
  Beta virt. eigenvalues --   -0.06633  -0.05334  -0.05225  -0.04899  -0.02272
  Beta virt. eigenvalues --   -0.02078  -0.01365  -0.01221  -0.01158  -0.00487
  Beta virt. eigenvalues --   -0.00364   0.00157   0.00385   0.00862   0.00878

 Mulliken charges and spin densities:
               1          2
     1  Na   0.039309  -0.046977
     2  Na   0.001347  -0.059790
     3  Na   0.155769  -0.006670
     4  Na   0.120817  -0.055173
     5  Na   0.118361  -0.052729
     6  Na  -0.218879   0.681274
     7  Na  -0.216724   0.540065
 Sum of Mulliken charges =  -0.00000   1.00000

 Dipole moment (field-independent basis, Debye):
    X=              0.0438    Y=              0.0945    Z=              0.0318  Tot=              0.1089
 Quadrupole moment (field-independent basis, Debye-Ang):
   XX=            -56.7960   YY=            -59.3076   ZZ=            -75.7722
   XY=             -0.0084   XZ=              0.4825   YZ=             -0.5384

 Normal termination of Gaussian 16 at Thu Dec  7 07:42:12 2023.
