 Gaussian 16, Revision B.01,
 Gaussian 16:  ES64L-G16RevB.01 20-Dec-2017

 -------------------------
 #P B3LYP/6-311+g(d) force
 -------------------------

 -----
 DPGEN
 -----
 Symbolic Z-matrix:
 Charge =  0 Multiplicity = 2

                         Standard orientation:
 ---------------------------------------------------------------------
 Center     Atomic      Atomic             Coordinates (Angstroms)
 Number     Number       Type             X           Y           Z
 ---------------------------------------------------------------------
      1         11           0        1.389075   -2.303958   -0.880734
      2         11           0        1.931763    2.665455   -0.709874
      3         11           0       -3.568668   -0.355927    1.635701
      4         11           0       -1.963218    1.775214   -0.598275
      5         11           0        0.249074    0.011040    1.130674
      6         11           0        3.773702   -0.534025    1.061612
      7         11           0       -1.811729   -1.257798   -1.639105
 ---------------------------------------------------------------------

 SCF Done:  E(UB3LYP) =  -1136.12419232     A.U. after   23 cycles

 The electronic state is 2-A.
 Alpha  occ. eigenvalues --  -38.44780 -38.44564 -38.44230 -38.43865 -38.43723
 Alpha  occ. eigenvalues --  -38.43589 -38.43106  -2.20572  -2.20387  -2.20135
 Alpha  occ. eigenvalues --   -2.19740  -2.19596  -2.19348  -2.18946  -1.14250
 Alpha  occ. eigenvalues --   -1.14206  -1.14199  -1.14040  -1.14031  -1.13993
 Alpha  occ. eigenvalues --   -1.13864  -1.13800  -1.13756  -1.13462  -1.13422
 Alpha  occ. eigenvalues --   -1.13343  -1.13262  -1.13241  -1.13208  -1.13029
 Alpha  occ. eigenvalues --   -1.13002  -1.12985  -1.12644  -1.12614  -1.12566
 Alpha  occ. eigenvalues --   -0.17898  -0.13957  -0.11424  -0.10876
 Alpha virt. eigenvalues --   -0.06395  -0.05645  -0.04824  -0.03136  -0.02575
 Alpha virt. eigenvalues --   -0.02551  -0.02225  -0.01186  -0.00890  -0.00228
 Alpha virt. eigenvalues --    0.00041   0.00134   0.00202   0.00379   0.00759

  Beta  occ. eigenvalues --  -38.44751 -38.44479 -38.44222 -38.43851 -38.43677
  Beta  occ. eigenvalues --  -38.43586 -38.43102  -2.20517  -2.20229  -2.20122
  Beta  occ. eigenvalues --   -2.19719  -2.19515  -2.19342  -2.18941  -1.14210
  Beta  occ. eigenvalues --   -1.14171  -1.14165  -1.13930  -1.13920  -1.13893
  Beta  occ. eigenvalues --   -1.13832  -1.13796  -1.13749  -1.13439  -1.13404
  Beta  occ. eigenvalues --   -1.13307  -1.13201  -1.13186  -1.13149  -1.13025
  Beta  occ. eigenvalues --   -1.13000  -1.12974  -1.12644  -1.12611  -1.12541
  Beta  occ. eigenvalues --   -0.17340  -0.13567  -0.11084
  Beta virt. eigenvalues --   -0.07404  -0.06117  -0.05227  -0.04528  -0.02953
  Beta virt. eigenvalues --   -0.02312  -0.02111  -0.01528  -0.00934  -0.00597
  Beta virt. eigenvalues --   -0.00078   0.00131   0.00212   0.00378   0.00530

 Mulliken charges and spin densities:
               1          2
     1  Na  -0.074593   0.071662
     2  Na   0.031826  -0.014945
     3  Na   0.410624   0.358392
     4  Na   0.328979   0.322932
     5  Na  -1.553460   0.072956
     6  Na   0.994164   0.058671
     7  Na  -0.137541   0.130332
 Sum of Mulliken charges =  -0.00000   1.00000

 Dipole moment (field-independent basis, Debye):
    X=              0.2430    Y=             -0.1616    Z=             -0.0001  Tot=              0.2918
 Quadrupole moment (field-independent basis, Debye-Ang):
   XX=            -50.9574   YY=            -75.0728   ZZ=            -68.6031
   XY=             -0.0851   XZ=              1.6815   YZ=             -2.2158

 Normal termination of Gaussian 16 at Fri Dec  8 06:22:49 2023.
