 Gaussian 16, Revision B.01,
 Gaussian 16:  ES64L-G16RevB.01 20-Dec-2017

 -------------------------
 #P B3LYP/6-311+g(d) force
 -------------------------

 -----
 DPGEN
 -----
 Symbolic Z-matrix:
 Charge =  0 Multiplicity = 2

                         Standard orientation:
 ---------------------------------------------------------------------
 Center     Atomic      Atomic             Coordinates (Angstroms)
 Number     Number       Type             X           Y           Z
 ---------------------------------------------------------------------
      1         11           0        0.416913    0.095447    1.916407
      2         11           0        1.896322   -2.463222   -0.365108
      3         11           0       -3.120073    0.734429   -0.164863
      4         11           0       -1.796632   -2.294092    0.447010
      5         11           0        2.883557    1.129337   -0.013006
      6         11           0       -0.119369   -0.137793   -1.764530
      7         11           0       -0.160719    2.935894   -0.055910
 ---------------------------------------------------------------------

 SCF Done:  E(UB3LYP) =  -1136.14054014     A.U. after   19 cycles

 The electronic state is 2-A.
 Alpha  occ. eigenvalues --  -38.43972 -38.43833 -38.43603 -38.43565 -38.43457
 Alpha  occ. eigenvalues --  -38.43405 -38.43282  -2.19812  -2.19656  -2.19427
 Alpha  occ. eigenvalues --   -2.19411  -2.19370  -2.19245  -2.19220  -1.13505
 Alpha  occ. eigenvalues --   -1.13476  -1.13440  -1.13332  -1.13322  -1.13302
 Alpha  occ. eigenvalues --   -1.13118  -1.13098  -1.13083  -1.13078  -1.13065
 Alpha  occ. eigenvalues --   -1.13042  -1.13034  -1.12999  -1.12990  -1.12933
 Alpha  occ. eigenvalues --   -1.12914  -1.12892  -1.12870  -1.12844  -1.12835
 Alpha  occ. eigenvalues --   -0.18546  -0.12962  -0.12459  -0.10703
 Alpha virt. eigenvalues --   -0.05527  -0.05233  -0.04804  -0.03190  -0.02923
 Alpha virt. eigenvalues --   -0.02500  -0.01467  -0.01201  -0.00423  -0.00361
 Alpha virt. eigenvalues --   -0.00006   0.00365   0.00805   0.00864   0.00889

  Beta  occ. eigenvalues --  -38.43967 -38.43831 -38.43595 -38.43553 -38.43401
  Beta  occ. eigenvalues --  -38.43375 -38.43210  -2.19808  -2.19656  -2.19414
  Beta  occ. eigenvalues --   -2.19393  -2.19241  -2.19218  -2.19088  -1.13493
  Beta  occ. eigenvalues --   -1.13461  -1.13436  -1.13332  -1.13307  -1.13303
  Beta  occ. eigenvalues --   -1.13100  -1.13076  -1.13065  -1.13058  -1.13045
  Beta  occ. eigenvalues --   -1.13026  -1.12954  -1.12918  -1.12906  -1.12890
  Beta  occ. eigenvalues --   -1.12875  -1.12857  -1.12808  -1.12756  -1.12738
  Beta  occ. eigenvalues --   -0.17822  -0.12734  -0.12205
  Beta virt. eigenvalues --   -0.06830  -0.05496  -0.05212  -0.04734  -0.02421
  Beta virt. eigenvalues --   -0.02171  -0.01471  -0.01381  -0.01118  -0.00459
  Beta virt. eigenvalues --   -0.00404   0.00124   0.00388   0.00848   0.00876

 Mulliken charges and spin densities:
               1          2
     1  Na  -0.216699   0.691557
     2  Na   0.076734  -0.060277
     3  Na   0.027217  -0.082935
     4  Na   0.077584   0.002830
     5  Na   0.197172  -0.093926
     6  Na  -0.170973   0.670654
     7  Na   0.008965  -0.127903
 Sum of Mulliken charges =  -0.00000   1.00000

 Dipole moment (field-independent basis, Debye):
    X=              0.1250    Y=              0.0402    Z=              0.0260  Tot=              0.1339
 Quadrupole moment (field-independent basis, Debye-Ang):
   XX=            -56.8946   YY=            -61.9015   ZZ=            -74.4604
   XY=             -0.3560   XZ=             -1.0150   YZ=             -0.6012

 Normal termination of Gaussian 16 at Fri Dec  8 07:31:53 2023.
