 Gaussian 16, Revision B.01,
 Gaussian 16:  ES64L-G16RevB.01 20-Dec-2017

 -------------------------
 #P B3LYP/6-311+g(d) force
 -------------------------

 -----
 DPGEN
 -----
 Symbolic Z-matrix:
 Charge =  0 Multiplicity = 2

                         Standard orientation:
 ---------------------------------------------------------------------
 Center     Atomic      Atomic             Coordinates (Angstroms)
 Number     Number       Type             X           Y           Z
 ---------------------------------------------------------------------
      1         11           0        0.174906   -2.423565    0.667650
      2         11           0        3.271739   -2.677015   -0.324575
      3         11           0        3.431429    0.635902   -0.510618
      4         11           0       -0.080194    0.910849   -0.156682
      5         11           0       -3.248169    0.316298    1.223442
      6         11           0        2.141521    3.386589    0.196742
      7         11           0       -5.691231   -0.149057   -1.095958
 ---------------------------------------------------------------------

 SCF Done:  E(UB3LYP) =  -1136.12241654     A.U. after   18 cycles

 The electronic state is 2-A.
 Alpha  occ. eigenvalues --  -38.44641 -38.44322 -38.44070 -38.44011 -38.43945
 Alpha  occ. eigenvalues --  -38.43688 -38.43526  -2.20436  -2.20134  -2.19951
 Alpha  occ. eigenvalues --   -2.19823  -2.19793  -2.19534  -2.19363  -1.14073
 Alpha  occ. eigenvalues --   -1.14072  -1.14052  -1.13820  -1.13810  -1.13751
 Alpha  occ. eigenvalues --   -1.13631  -1.13622  -1.13600  -1.13518  -1.13502
 Alpha  occ. eigenvalues --   -1.13484  -1.13465  -1.13451  -1.13408  -1.13192
 Alpha  occ. eigenvalues --   -1.13182  -1.13165  -1.13027  -1.13016  -1.12997
 Alpha  occ. eigenvalues --   -0.16904  -0.13903  -0.12512  -0.11141
 Alpha virt. eigenvalues --   -0.05960  -0.05260  -0.04878  -0.03849  -0.02787
 Alpha virt. eigenvalues --   -0.02121  -0.01811  -0.01665  -0.01091  -0.00632
 Alpha virt. eigenvalues --   -0.00263  -0.00060   0.00115   0.00296   0.00727

  Beta  occ. eigenvalues --  -38.44537 -38.44301 -38.44036 -38.44023 -38.43905
  Beta  occ. eigenvalues --  -38.43686 -38.43503  -2.20242  -2.20096  -2.19889
  Beta  occ. eigenvalues --   -2.19822  -2.19751  -2.19531  -2.19323  -1.13941
  Beta  occ. eigenvalues --   -1.13938  -1.13926  -1.13791  -1.13784  -1.13719
  Beta  occ. eigenvalues --   -1.13591  -1.13581  -1.13550  -1.13512  -1.13489
  Beta  occ. eigenvalues --   -1.13466  -1.13453  -1.13419  -1.13359  -1.13185
  Beta  occ. eigenvalues --   -1.13177  -1.13162  -1.12989  -1.12988  -1.12975
  Beta  occ. eigenvalues --   -0.16385  -0.13058  -0.12457
  Beta virt. eigenvalues --   -0.07652  -0.05457  -0.05028  -0.04539  -0.03601
  Beta virt. eigenvalues --   -0.02457  -0.01804  -0.01712  -0.01267  -0.01015
  Beta virt. eigenvalues --   -0.00250  -0.00006   0.00136   0.00247   0.00463

 Mulliken charges and spin densities:
               1          2
     1  Na   0.119697   0.080250
     2  Na   0.078753   0.075951
     3  Na   0.047264   0.331586
     4  Na  -1.664522  -0.034235
     5  Na   0.091728  -0.073225
     6  Na   1.149248   0.093272
     7  Na   0.177832   0.526402
 Sum of Mulliken charges =  -0.00000   1.00000

 Dipole moment (field-independent basis, Debye):
    X=              0.2252    Y=              0.1095    Z=              0.0654  Tot=              0.2588
 Quadrupole moment (field-independent basis, Debye-Ang):
   XX=            -66.2913   YY=            -63.3485   ZZ=            -68.2009
   XY=              1.9884   XZ=              1.1574   YZ=              1.4665

 Normal termination of Gaussian 16 at Wed Nov 29 02:43:49 2023.
