 Gaussian 16, Revision B.01,
 Gaussian 16:  ES64L-G16RevB.01 20-Dec-2017

 -------------------------
 #P B3LYP/6-311+g(d) force
 -------------------------

 -----
 DPGEN
 -----
 Symbolic Z-matrix:
 Charge =  0 Multiplicity = 2

                         Standard orientation:
 ---------------------------------------------------------------------
 Center     Atomic      Atomic             Coordinates (Angstroms)
 Number     Number       Type             X           Y           Z
 ---------------------------------------------------------------------
      1         11           0        0.316018   -2.942063    0.224845
      2         11           0       -1.537656    2.489948   -0.068823
      3         11           0        2.857037   -0.893637   -0.253892
      4         11           0        1.855639    2.332342   -0.169238
      5         11           0       -0.279811   -0.212951   -1.700386
      6         11           0       -3.065171   -0.962969   -0.230933
      7         11           0       -0.146056    0.189329    2.198427
 ---------------------------------------------------------------------

 SCF Done:  E(UB3LYP) =  -1136.13944143     A.U. after   18 cycles

 The electronic state is 2-A.
 Alpha  occ. eigenvalues --  -38.43918 -38.43907 -38.43645 -38.43617 -38.43486
 Alpha  occ. eigenvalues --  -38.43398 -38.43308  -2.19767  -2.19732  -2.19498
 Alpha  occ. eigenvalues --   -2.19461  -2.19341  -2.19269  -2.19246  -1.13432
 Alpha  occ. eigenvalues --   -1.13424  -1.13398  -1.13392  -1.13379  -1.13366
 Alpha  occ. eigenvalues --   -1.13190  -1.13167  -1.13159  -1.13128  -1.13126
 Alpha  occ. eigenvalues --   -1.13103  -1.13027  -1.13003  -1.12979  -1.12942
 Alpha  occ. eigenvalues --   -1.12918  -1.12904  -1.12893  -1.12884  -1.12881
 Alpha  occ. eigenvalues --   -0.18552  -0.12794  -0.12597  -0.10963
 Alpha virt. eigenvalues --   -0.05508  -0.05003  -0.04867  -0.03178  -0.03045
 Alpha virt. eigenvalues --   -0.02822  -0.01369  -0.01135  -0.00333  -0.00293
 Alpha virt. eigenvalues --   -0.00043   0.00364   0.00833   0.00877   0.00899

  Beta  occ. eigenvalues --  -38.43914 -38.43805 -38.43639 -38.43612 -38.43482
  Beta  occ. eigenvalues --  -38.43395 -38.43247  -2.19728  -2.19577  -2.19492
  Beta  occ. eigenvalues --   -2.19454  -2.19337  -2.19243  -2.19157  -1.13417
  Beta  occ. eigenvalues --   -1.13374  -1.13365  -1.13299  -1.13264  -1.13254
  Beta  occ. eigenvalues --   -1.13182  -1.13155  -1.13138  -1.13125  -1.13104
  Beta  occ. eigenvalues --   -1.13098  -1.13020  -1.12988  -1.12972  -1.12906
  Beta  occ. eigenvalues --   -1.12892  -1.12875  -1.12867  -1.12818  -1.12807
  Beta  occ. eigenvalues --   -0.17819  -0.12569  -0.12378
  Beta virt. eigenvalues --   -0.07018  -0.05508  -0.04963  -0.04793  -0.02373
  Beta virt. eigenvalues --   -0.02292  -0.01745  -0.01289  -0.01057  -0.00378
  Beta virt. eigenvalues --   -0.00351   0.00110   0.00391   0.00856   0.00896

 Mulliken charges and spin densities:
               1          2
     1  Na   0.132675   0.002270
     2  Na   0.242714  -0.045192
     3  Na   0.099591  -0.026368
     4  Na   0.084938  -0.025645
     5  Na  -0.193282   0.437276
     6  Na   0.196965  -0.080984
     7  Na  -0.563601   0.738643
 Sum of Mulliken charges =  -0.00000   1.00000

 Dipole moment (field-independent basis, Debye):
    X=             -0.2991    Y=             -0.0702    Z=              0.1656  Tot=              0.3490
 Quadrupole moment (field-independent basis, Debye-Ang):
   XX=            -59.4776   YY=            -61.8064   ZZ=            -73.2036
   XY=              0.3502   XZ=             -0.4305   YZ=             -0.8953

 Normal termination of Gaussian 16 at Thu Dec  7 03:33:11 2023.
