 Gaussian 16, Revision B.01,
 Gaussian 16:  ES64L-G16RevB.01 20-Dec-2017

 -------------------------
 #P B3LYP/6-311+g(d) force
 -------------------------

 -----
 DPGEN
 -----
 Symbolic Z-matrix:
 Charge =  0 Multiplicity = 2

                         Standard orientation:
 ---------------------------------------------------------------------
 Center     Atomic      Atomic             Coordinates (Angstroms)
 Number     Number       Type             X           Y           Z
 ---------------------------------------------------------------------
      1         11           0        2.730516    1.055546   -0.591277
      2         11           0       -0.617937    2.968025   -0.832947
      3         11           0        2.237934   -0.325979    2.056742
      4         11           0        1.832213   -2.258005   -0.713394
      5         11           0       -2.261440   -1.315235   -1.943374
      6         11           0       -0.266353    0.115006    0.238358
      7         11           0       -3.654933   -0.239359    1.785893
 ---------------------------------------------------------------------

 SCF Done:  E(UB3LYP) =  -1136.11126660     A.U. after   24 cycles

 The electronic state is 2-A.
 Alpha  occ. eigenvalues --  -38.44952 -38.44774 -38.44513 -38.44474 -38.43734
 Alpha  occ. eigenvalues --  -38.42828 -38.42547  -2.20712  -2.20693  -2.20377
 Alpha  occ. eigenvalues --   -2.20280  -2.19591  -2.18641  -2.18626  -1.14409
 Alpha  occ. eigenvalues --   -1.14376  -1.14367  -1.14358  -1.14315  -1.14275
 Alpha  occ. eigenvalues --   -1.14068  -1.14049  -1.13965  -1.13952  -1.13931
 Alpha  occ. eigenvalues --   -1.13906  -1.13283  -1.13265  -1.13194  -1.12436
 Alpha  occ. eigenvalues --   -1.12353  -1.12290  -1.12280  -1.12251  -1.12195
 Alpha  occ. eigenvalues --   -0.18147  -0.13481  -0.11156  -0.10877
 Alpha virt. eigenvalues --   -0.06481  -0.05704  -0.04582  -0.03223  -0.02406
 Alpha virt. eigenvalues --   -0.02292  -0.02019  -0.01095  -0.00802  -0.00259
 Alpha virt. eigenvalues --   -0.00067   0.00108   0.00277   0.00531   0.00578

  Beta  occ. eigenvalues --  -38.44875 -38.44728 -38.44493 -38.44474 -38.43715
  Beta  occ. eigenvalues --  -38.42823 -38.42530  -2.20606  -2.20569  -2.20380
  Beta  occ. eigenvalues --   -2.20245  -2.19558  -2.18630  -2.18605  -1.14358
  Beta  occ. eigenvalues --   -1.14315  -1.14266  -1.14259  -1.14222  -1.14218
  Beta  occ. eigenvalues --   -1.14062  -1.14035  -1.13956  -1.13938  -1.13908
  Beta  occ. eigenvalues --   -1.13873  -1.13260  -1.13243  -1.13161  -1.12423
  Beta  occ. eigenvalues --   -1.12298  -1.12278  -1.12257  -1.12245  -1.12189
  Beta  occ. eigenvalues --   -0.17641  -0.13079  -0.10918
  Beta virt. eigenvalues --   -0.07456  -0.05880  -0.05278  -0.04428  -0.02994
  Beta virt. eigenvalues --   -0.01972  -0.01940  -0.01683  -0.00720  -0.00585
  Beta virt. eigenvalues --   -0.00024   0.00156   0.00254   0.00346   0.00561

 Mulliken charges and spin densities:
               1          2
     1  Na   1.033544   0.125736
     2  Na   0.196145  -0.172701
     3  Na   0.378958  -0.135043
     4  Na   0.192459  -0.013515
     5  Na   0.545068   0.086560
     6  Na  -2.759350   0.847031
     7  Na   0.413177   0.261933
 Sum of Mulliken charges =  -0.00000   1.00000

 Dipole moment (field-independent basis, Debye):
    X=              0.4283    Y=             -0.3863    Z=              0.0022  Tot=              0.5768
 Quadrupole moment (field-independent basis, Debye-Ang):
   XX=            -54.4123   YY=            -74.4516   ZZ=            -63.4648
   XY=             -0.8000   XZ=              0.4044   YZ=              1.0595

 Normal termination of Gaussian 16 at Fri Dec  8 19:23:50 2023.
