 Gaussian 16, Revision B.01,
 Gaussian 16:  ES64L-G16RevB.01 20-Dec-2017

 -------------------------
 #P B3LYP/6-311+g(d) force
 -------------------------

 -----
 DPGEN
 -----
 Symbolic Z-matrix:
 Charge =  0 Multiplicity = 2

                         Standard orientation:
 ---------------------------------------------------------------------
 Center     Atomic      Atomic             Coordinates (Angstroms)
 Number     Number       Type             X           Y           Z
 ---------------------------------------------------------------------
      1         11           0       -0.235318   -0.810377   -1.065824
      2         11           0        1.512690    2.363830    0.030878
      3         11           0       -3.212140    1.637141   -0.318975
      4         11           0       -3.334632   -1.512371   -0.228998
      5         11           0       -0.690013   -0.394080    1.824860
      6         11           0        2.948929   -0.699474    1.595293
      7         11           0        3.010484   -0.584669   -1.837234
 ---------------------------------------------------------------------

 SCF Done:  E(UB3LYP) =  -1136.11050633     A.U. after   45 cycles

 The electronic state is 2-A.
 Alpha  occ. eigenvalues --  -38.45484 -38.45311 -38.44668 -38.44570 -38.43867
 Alpha  occ. eigenvalues --  -38.43307 -38.42643  -2.21299  -2.21108  -2.20458
 Alpha  occ. eigenvalues --   -2.20451  -2.19789  -2.19218  -2.18487  -1.14968
 Alpha  occ. eigenvalues --   -1.14952  -1.14924  -1.14790  -1.14756  -1.14741
 Alpha  occ. eigenvalues --   -1.14142  -1.14121  -1.14103  -1.14090  -1.14086
 Alpha  occ. eigenvalues --   -1.14083  -1.13572  -1.13474  -1.13388  -1.12948
 Alpha  occ. eigenvalues --   -1.12841  -1.12791  -1.12159  -1.12144  -1.12131
 Alpha  occ. eigenvalues --   -0.18331  -0.14662  -0.11143  -0.10277
 Alpha virt. eigenvalues --   -0.07291  -0.05924  -0.04838  -0.03152  -0.02914
 Alpha virt. eigenvalues --   -0.02293  -0.01915  -0.01443  -0.00907  -0.00678
 Alpha virt. eigenvalues --    0.00052   0.00198   0.00215   0.00435   0.00587

  Beta  occ. eigenvalues --  -38.45440 -38.45302 -38.44623 -38.44549 -38.43867
  Beta  occ. eigenvalues --  -38.43252 -38.42635  -2.21216  -2.21093  -2.20413
  Beta  occ. eigenvalues --   -2.20374  -2.19795  -2.19120  -2.18472  -1.14906
  Beta  occ. eigenvalues --   -1.14895  -1.14866  -1.14770  -1.14747  -1.14726
  Beta  occ. eigenvalues --   -1.14086  -1.14084  -1.14073  -1.14057  -1.14032
  Beta  occ. eigenvalues --   -1.14018  -1.13560  -1.13446  -1.13402  -1.12888
  Beta  occ. eigenvalues --   -1.12749  -1.12725  -1.12146  -1.12138  -1.12117
  Beta  occ. eigenvalues --   -0.17665  -0.14380  -0.10128
  Beta virt. eigenvalues --   -0.07552  -0.06927  -0.05345  -0.04607  -0.02788
  Beta virt. eigenvalues --   -0.02680  -0.01920  -0.01419  -0.00931  -0.00833
  Beta virt. eigenvalues --   -0.00391   0.00138   0.00288   0.00314   0.00468

 Mulliken charges and spin densities:
               1          2
     1  Na  -2.282264   0.082805
     2  Na  -0.247098   0.318301
     3  Na  -0.054782   0.272342
     4  Na   2.141553   0.005670
     5  Na  -0.220537   0.173522
     6  Na   0.169968  -0.006395
     7  Na   0.493160   0.153755
 Sum of Mulliken charges =  -0.00000   1.00000

 Dipole moment (field-independent basis, Debye):
    X=             -0.8903    Y=              0.4306    Z=              0.8057  Tot=              1.2756
 Quadrupole moment (field-independent basis, Debye-Ang):
   XX=            -46.5181   YY=            -68.7941   ZZ=            -78.9883
   XY=              0.0612   XZ=              4.2050   YZ=             -7.0679

 Normal termination of Gaussian 16 at Thu Dec  7 20:59:56 2023.
