 Gaussian 16, Revision B.01,
 Gaussian 16:  ES64L-G16RevB.01 20-Dec-2017

 -------------------------
 #P B3LYP/6-311+g(d) force
 -------------------------

 -----
 DPGEN
 -----
 Symbolic Z-matrix:
 Charge =  0 Multiplicity = 2

                         Standard orientation:
 ---------------------------------------------------------------------
 Center     Atomic      Atomic             Coordinates (Angstroms)
 Number     Number       Type             X           Y           Z
 ---------------------------------------------------------------------
      1         11           0        0.524120   -0.329710    1.654586
      2         11           0       -1.425017    1.555531   -0.262604
      3         11           0       -3.545375   -0.622110    0.221539
      4         11           0       -0.849509   -1.502457   -0.488237
      5         11           0        1.278024    2.147331    0.346086
      6         11           0        1.093878    0.101710   -1.633368
      7         11           0        2.923879   -1.350294    0.161997
 ---------------------------------------------------------------------

 SCF Done:  E(UB3LYP) =  -1136.09463301     A.U. after   21 cycles

 The electronic state is 2-A.
 Alpha  occ. eigenvalues --  -38.44946 -38.44237 -38.44004 -38.43804 -38.43779
 Alpha  occ. eigenvalues --  -38.43025 -38.42898  -2.20829  -2.20168  -2.20147
 Alpha  occ. eigenvalues --   -2.19982  -2.19918  -2.19104  -2.18995  -1.14550
 Alpha  occ. eigenvalues --   -1.14501  -1.14448  -1.14071  -1.13955  -1.13930
 Alpha  occ. eigenvalues --   -1.13898  -1.13826  -1.13759  -1.13649  -1.13643
 Alpha  occ. eigenvalues --   -1.13520  -1.13508  -1.13470  -1.13396  -1.12948
 Alpha  occ. eigenvalues --   -1.12735  -1.12728  -1.12677  -1.12618  -1.12507
 Alpha  occ. eigenvalues --   -0.20637  -0.14301  -0.12023  -0.11462
 Alpha virt. eigenvalues --   -0.06650  -0.04545  -0.03681  -0.03418  -0.02505
 Alpha virt. eigenvalues --   -0.02406  -0.02231  -0.00854  -0.00220   0.00155
 Alpha virt. eigenvalues --    0.00377   0.00519   0.00782   0.00952   0.00962

  Beta  occ. eigenvalues --  -38.44951 -38.44228 -38.43924 -38.43774 -38.43694
  Beta  occ. eigenvalues --  -38.43009 -38.42885  -2.20840  -2.20153  -2.20007
  Beta  occ. eigenvalues --   -2.19891  -2.19808  -2.19081  -2.18977  -1.14557
  Beta  occ. eigenvalues --   -1.14511  -1.14446  -1.14007  -1.13919  -1.13856
  Beta  occ. eigenvalues --   -1.13813  -1.13760  -1.13722  -1.13567  -1.13544
  Beta  occ. eigenvalues --   -1.13473  -1.13430  -1.13381  -1.13326  -1.12939
  Beta  occ. eigenvalues --   -1.12717  -1.12667  -1.12666  -1.12559  -1.12499
  Beta  occ. eigenvalues --   -0.19835  -0.14095  -0.11716
  Beta virt. eigenvalues --   -0.07266  -0.06515  -0.04541  -0.03420  -0.02894
  Beta virt. eigenvalues --   -0.02180  -0.01707  -0.01338  -0.00791   0.00015
  Beta virt. eigenvalues --    0.00187   0.00367   0.00543   0.00934   0.00968

 Mulliken charges and spin densities:
               1          2
     1  Na  -0.594412   0.524283
     2  Na  -0.241017   0.095620
     3  Na   0.300650  -0.096227
     4  Na   0.123753   0.212665
     5  Na   0.487177   0.089150
     6  Na  -0.269353   0.236716
     7  Na   0.193202  -0.062207
 Sum of Mulliken charges =  -0.00000   1.00000

 Dipole moment (field-independent basis, Debye):
    X=             -0.3361    Y=             -0.1247    Z=              0.2376  Tot=              0.4301
 Quadrupole moment (field-independent basis, Debye-Ang):
   XX=            -47.8930   YY=            -73.4036   ZZ=            -71.7297
   XY=             -0.2293   XZ=             -0.7595   YZ=             -0.1265

 Normal termination of Gaussian 16 at Fri Dec  8 17:06:09 2023.
