 Gaussian 16, Revision B.01,
 Gaussian 16:  ES64L-G16RevB.01 20-Dec-2017

 -------------------------
 #P B3LYP/6-311+g(d) force
 -------------------------

 -----
 DPGEN
 -----
 Symbolic Z-matrix:
 Charge =  0 Multiplicity = 2

                         Standard orientation:
 ---------------------------------------------------------------------
 Center     Atomic      Atomic             Coordinates (Angstroms)
 Number     Number       Type             X           Y           Z
 ---------------------------------------------------------------------
      1         11           0       -2.421271    2.332073   -0.467468
      2         11           0        0.432499   -0.200098   -1.464380
      3         11           0        0.278302    0.244701    2.173964
      4         11           0        2.052745    2.666844   -0.131062
      5         11           0       -3.115785   -0.877523    0.202290
      6         11           0        3.020502   -1.093337   -0.086185
      7         11           0       -0.246993   -3.072659   -0.227160
 ---------------------------------------------------------------------

 SCF Done:  E(UB3LYP) =  -1136.13011767     A.U. after   19 cycles

 The electronic state is 2-A.
 Alpha  occ. eigenvalues --  -38.44595 -38.44222 -38.44057 -38.44025 -38.43667
 Alpha  occ. eigenvalues --  -38.43477 -38.43290  -2.20428  -2.19996  -2.19833
 Alpha  occ. eigenvalues --   -2.19826  -2.19505  -2.19304  -2.19252  -1.14149
 Alpha  occ. eigenvalues --   -1.14086  -1.14034  -1.13673  -1.13655  -1.13637
 Alpha  occ. eigenvalues --   -1.13536  -1.13507  -1.13496  -1.13481  -1.13472
 Alpha  occ. eigenvalues --   -1.13439  -1.13167  -1.13133  -1.13116  -1.13041
 Alpha  occ. eigenvalues --   -1.12963  -1.12939  -1.12927  -1.12894  -1.12850
 Alpha  occ. eigenvalues --   -0.17977  -0.13031  -0.12176  -0.10394
 Alpha virt. eigenvalues --   -0.06065  -0.05556  -0.04845  -0.03096  -0.02764
 Alpha virt. eigenvalues --   -0.02384  -0.01682  -0.01452  -0.00857  -0.00644
 Alpha virt. eigenvalues --   -0.00032   0.00314   0.00717   0.00757   0.00822

  Beta  occ. eigenvalues --  -38.44588 -38.44221 -38.44050 -38.44025 -38.43560
  Beta  occ. eigenvalues --  -38.43474 -38.43243  -2.20418  -2.19996  -2.19827
  Beta  occ. eigenvalues --   -2.19820  -2.19308  -2.19301  -2.19168  -1.14136
  Beta  occ. eigenvalues --   -1.14060  -1.14030  -1.13662  -1.13650  -1.13639
  Beta  occ. eigenvalues --   -1.13533  -1.13492  -1.13481  -1.13480  -1.13465
  Beta  occ. eigenvalues --   -1.13437  -1.13037  -1.13023  -1.12995  -1.12976
  Beta  occ. eigenvalues --   -1.12946  -1.12933  -1.12873  -1.12829  -1.12797
  Beta  occ. eigenvalues --   -0.17298  -0.12851  -0.11966
  Beta virt. eigenvalues --   -0.06519  -0.06028  -0.05459  -0.04776  -0.02408
  Beta virt. eigenvalues --   -0.02037  -0.01604  -0.01445  -0.01310  -0.00875
  Beta virt. eigenvalues --   -0.00669   0.00142   0.00367   0.00729   0.00830

 Mulliken charges and spin densities:
               1          2
     1  Na  -0.037308   0.010375
     2  Na  -0.054756   0.298300
     3  Na  -0.429729   0.767918
     4  Na   0.000784  -0.065071
     5  Na   0.053413   0.012181
     6  Na   0.324484  -0.017384
     7  Na   0.143112  -0.006319
 Sum of Mulliken charges =  -0.00000   1.00000

 Dipole moment (field-independent basis, Debye):
    X=              0.4451    Y=              0.0865    Z=              0.0956  Tot=              0.4634
 Quadrupole moment (field-independent basis, Debye-Ang):
   XX=            -55.9997   YY=            -60.3116   ZZ=            -76.8003
   XY=              0.6070   XZ=              0.0396   YZ=             -1.3698

 Normal termination of Gaussian 16 at Thu Dec  7 22:49:19 2023.
