 Gaussian 16, Revision B.01,
 Gaussian 16:  ES64L-G16RevB.01 20-Dec-2017

 -------------------------
 #P B3LYP/6-311+g(d) force
 -------------------------

 -----
 DPGEN
 -----
 Symbolic Z-matrix:
 Charge =  0 Multiplicity = 2

                         Standard orientation:
 ---------------------------------------------------------------------
 Center     Atomic      Atomic             Coordinates (Angstroms)
 Number     Number       Type             X           Y           Z
 ---------------------------------------------------------------------
      1         11           0        1.621725    2.900269   -0.701276
      2         11           0        1.499524   -2.623744    0.496389
      3         11           0       -1.961789   -1.924553   -0.699481
      4         11           0       -0.677488    0.765777    1.760790
      5         11           0        3.187704    0.125375    0.507947
      6         11           0       -4.163676    1.030426    0.157070
      7         11           0        0.493999   -0.273551   -1.521438
 ---------------------------------------------------------------------

 SCF Done:  E(UB3LYP) =  -1136.12425999     A.U. after   22 cycles

 The electronic state is 2-A.
 Alpha  occ. eigenvalues --  -38.44970 -38.44886 -38.44271 -38.43739 -38.43300
 Alpha  occ. eigenvalues --  -38.43255 -38.43039  -2.20706  -2.20668  -2.20148
 Alpha  occ. eigenvalues --   -2.19599  -2.19244  -2.19127  -2.18914  -1.14381
 Alpha  occ. eigenvalues --   -1.14375  -1.14364  -1.14334  -1.14329  -1.14264
 Alpha  occ. eigenvalues --   -1.13835  -1.13811  -1.13774  -1.13349  -1.13258
 Alpha  occ. eigenvalues --   -1.13184  -1.12926  -1.12908  -1.12860  -1.12784
 Alpha  occ. eigenvalues --   -1.12776  -1.12760  -1.12597  -1.12569  -1.12540
 Alpha  occ. eigenvalues --   -0.18108  -0.13388  -0.12020  -0.10521
 Alpha virt. eigenvalues --   -0.06882  -0.05069  -0.04460  -0.03191  -0.02902
 Alpha virt. eigenvalues --   -0.02571  -0.01961  -0.01310  -0.00688  -0.00248
 Alpha virt. eigenvalues --   -0.00221   0.00152   0.00428   0.00638   0.00746

  Beta  occ. eigenvalues --  -38.44971 -38.44844 -38.44245 -38.43710 -38.43278
  Beta  occ. eigenvalues --  -38.43194 -38.43023  -2.20709  -2.20590  -2.20104
  Beta  occ. eigenvalues --   -2.19547  -2.19134  -2.19088  -2.18888  -1.14383
  Beta  occ. eigenvalues --   -1.14372  -1.14335  -1.14307  -1.14274  -1.14209
  Beta  occ. eigenvalues --   -1.13811  -1.13772  -1.13726  -1.13299  -1.13217
  Beta  occ. eigenvalues --   -1.13152  -1.12854  -1.12829  -1.12788  -1.12756
  Beta  occ. eigenvalues --   -1.12740  -1.12723  -1.12580  -1.12551  -1.12497
  Beta  occ. eigenvalues --   -0.17476  -0.13117  -0.11676
  Beta virt. eigenvalues --   -0.06964  -0.06595  -0.04915  -0.04292  -0.02702
  Beta virt. eigenvalues --   -0.02389  -0.02221  -0.01366  -0.01120  -0.00628
  Beta virt. eigenvalues --   -0.00142  -0.00041   0.00221   0.00577   0.00700

 Mulliken charges and spin densities:
               1          2
     1  Na   0.151268   0.050553
     2  Na  -0.302510   0.126326
     3  Na   0.135045   0.061110
     4  Na  -0.384674   0.404487
     5  Na   0.140751   0.243600
     6  Na   0.019794  -0.041505
     7  Na   0.240327   0.155428
 Sum of Mulliken charges =  -0.00000   1.00000

 Dipole moment (field-independent basis, Debye):
    X=             -0.6346    Y=              0.3350    Z=              0.1832  Tot=              0.7406
 Quadrupole moment (field-independent basis, Debye-Ang):
   XX=            -54.0344   YY=            -66.3772   ZZ=            -73.5354
   XY=             -0.1255   XZ=              2.5878   YZ=             -1.5193

 Normal termination of Gaussian 16 at Sun Dec  3 18:31:47 2023.
