 Gaussian 16, Revision B.01,
 Gaussian 16:  ES64L-G16RevB.01 20-Dec-2017

 -------------------------
 #P B3LYP/6-311+g(d) force
 -------------------------

 -----
 DPGEN
 -----
 Symbolic Z-matrix:
 Charge =  0 Multiplicity = 2

                         Standard orientation:
 ---------------------------------------------------------------------
 Center     Atomic      Atomic             Coordinates (Angstroms)
 Number     Number       Type             X           Y           Z
 ---------------------------------------------------------------------
      1         11           0       -2.809131   -1.457360   -0.044676
      2         11           0       -1.982673    2.513077   -0.615156
      3         11           0       -1.124000    0.779409    2.156829
      4         11           0        0.009697   -1.631528   -1.982094
      5         11           0        3.606191    0.395038    0.481241
      6         11           0        0.845876   -2.016603    1.056798
      7         11           0        1.454041    1.417967   -1.052942
 ---------------------------------------------------------------------

 SCF Done:  E(UB3LYP) =  -1136.12476161     A.U. after   20 cycles

 The electronic state is 2-A.
 Alpha  occ. eigenvalues --  -38.44620 -38.44523 -38.44118 -38.43780 -38.43747
 Alpha  occ. eigenvalues --  -38.43465 -38.43395  -2.20417  -2.20363  -2.19962
 Alpha  occ. eigenvalues --   -2.19657  -2.19609  -2.19369  -2.19196  -1.14140
 Alpha  occ. eigenvalues --   -1.14107  -1.14078  -1.14042  -1.13993  -1.13977
 Alpha  occ. eigenvalues --   -1.13628  -1.13603  -1.13588  -1.13388  -1.13314
 Alpha  occ. eigenvalues --   -1.13288  -1.13273  -1.13236  -1.13201  -1.13056
 Alpha  occ. eigenvalues --   -1.13014  -1.12983  -1.12859  -1.12854  -1.12839
 Alpha  occ. eigenvalues --   -0.18090  -0.13121  -0.11851  -0.11501
 Alpha virt. eigenvalues --   -0.06244  -0.05043  -0.04097  -0.03528  -0.03447
 Alpha virt. eigenvalues --   -0.02900  -0.01815  -0.00894  -0.00350  -0.00059
 Alpha virt. eigenvalues --    0.00160   0.00261   0.00347   0.00726   0.00834

  Beta  occ. eigenvalues --  -38.44617 -38.44522 -38.44059 -38.43722 -38.43717
  Beta  occ. eigenvalues --  -38.43441 -38.43388  -2.20414  -2.20361  -2.19853
  Beta  occ. eigenvalues --   -2.19557  -2.19548  -2.19326  -2.19184  -1.14139
  Beta  occ. eigenvalues --   -1.14086  -1.14074  -1.14045  -1.13985  -1.13973
  Beta  occ. eigenvalues --   -1.13555  -1.13530  -1.13503  -1.13331  -1.13247
  Beta  occ. eigenvalues --   -1.13229  -1.13199  -1.13182  -1.13154  -1.13009
  Beta  occ. eigenvalues --   -1.12988  -1.12953  -1.12848  -1.12841  -1.12830
  Beta  occ. eigenvalues --   -0.17325  -0.12982  -0.11680
  Beta virt. eigenvalues --   -0.07629  -0.06097  -0.04718  -0.03590  -0.03266
  Beta virt. eigenvalues --   -0.02943  -0.01999  -0.01728  -0.00780  -0.00150
  Beta virt. eigenvalues --   -0.00009   0.00224   0.00352   0.00456   0.00794

 Mulliken charges and spin densities:
               1          2
     1  Na   0.181981  -0.047317
     2  Na   0.003849  -0.036282
     3  Na  -0.258113   0.436774
     4  Na  -0.033821   0.479241
     5  Na   0.174017  -0.048738
     6  Na   0.118930   0.149831
     7  Na  -0.186844   0.066491
 Sum of Mulliken charges =  -0.00000   1.00000

 Dipole moment (field-independent basis, Debye):
    X=             -0.1935    Y=             -0.4472    Z=              0.2672  Tot=              0.5557
 Quadrupole moment (field-independent basis, Debye-Ang):
   XX=            -56.3837   YY=            -72.9083   ZZ=            -66.8851
   XY=              0.4117   XZ=              2.9308   YZ=             -1.3985

 Normal termination of Gaussian 16 at Mon Dec  4 03:10:24 2023.
