 Gaussian 16, Revision B.01,
 Gaussian 16:  ES64L-G16RevB.01 20-Dec-2017

 -------------------------
 #P B3LYP/6-311+g(d) force
 -------------------------

 -----
 DPGEN
 -----
 Symbolic Z-matrix:
 Charge =  0 Multiplicity = 2

                         Standard orientation:
 ---------------------------------------------------------------------
 Center     Atomic      Atomic             Coordinates (Angstroms)
 Number     Number       Type             X           Y           Z
 ---------------------------------------------------------------------
      1         11           0        1.220952    0.186683    1.405209
      2         11           0       -2.268082   -1.691143    1.922485
      3         11           0       -1.460765   -1.397389   -1.762104
      4         11           0        2.132717   -1.928544   -0.905698
      5         11           0        4.071877    0.737303    0.078940
      6         11           0       -3.165198    1.070181   -0.489090
      7         11           0       -0.531500    3.022910   -0.249741
 ---------------------------------------------------------------------

 SCF Done:  E(UB3LYP) =  -1136.11841043     A.U. after   22 cycles

 The electronic state is 2-A.
 Alpha  occ. eigenvalues --  -38.45502 -38.44366 -38.44221 -38.44172 -38.44161
 Alpha  occ. eigenvalues --  -38.43697 -38.43236  -2.21307  -2.20236  -2.20063
 Alpha  occ. eigenvalues --   -2.19993  -2.19972  -2.19517  -2.19016  -1.14986
 Alpha  occ. eigenvalues --   -1.14959  -1.14943  -1.13939  -1.13886  -1.13869
 Alpha  occ. eigenvalues --   -1.13757  -1.13715  -1.13697  -1.13673  -1.13661
 Alpha  occ. eigenvalues --   -1.13620  -1.13618  -1.13598  -1.13583  -1.13186
 Alpha  occ. eigenvalues --   -1.13168  -1.13151  -1.12690  -1.12686  -1.12663
 Alpha  occ. eigenvalues --   -0.17381  -0.14138  -0.11446  -0.10843
 Alpha virt. eigenvalues --   -0.06951  -0.05487  -0.04757  -0.03424  -0.02644
 Alpha virt. eigenvalues --   -0.02505  -0.02371  -0.01278  -0.00803  -0.00472
 Alpha virt. eigenvalues --   -0.00267   0.00155   0.00227   0.00659   0.00726

  Beta  occ. eigenvalues --  -38.45500 -38.44337 -38.44205 -38.44136 -38.44087
  Beta  occ. eigenvalues --  -38.43661 -38.43247  -2.21305  -2.20182  -2.20036
  Beta  occ. eigenvalues --   -2.19948  -2.19815  -2.19451  -2.19038  -1.14978
  Beta  occ. eigenvalues --   -1.14957  -1.14943  -1.13899  -1.13855  -1.13820
  Beta  occ. eigenvalues --   -1.13729  -1.13698  -1.13675  -1.13644  -1.13624
  Beta  occ. eigenvalues --   -1.13562  -1.13513  -1.13504  -1.13480  -1.13142
  Beta  occ. eigenvalues --   -1.13116  -1.13101  -1.12706  -1.12699  -1.12671
  Beta  occ. eigenvalues --   -0.16870  -0.13918  -0.11189
  Beta virt. eigenvalues --   -0.07108  -0.06786  -0.05184  -0.04326  -0.03238
  Beta virt. eigenvalues --   -0.02339  -0.02137  -0.01583  -0.01159  -0.00482
  Beta virt. eigenvalues --   -0.00345  -0.00174   0.00241   0.00364   0.00758

 Mulliken charges and spin densities:
               1          2
     1  Na   0.444182   0.223739
     2  Na  -0.468987   0.292209
     3  Na   0.097413   0.240695
     4  Na  -0.633554   0.117359
     5  Na   0.513694  -0.004005
     6  Na   0.534123   0.244064
     7  Na  -0.486871  -0.114060
 Sum of Mulliken charges =  -0.00000   1.00000

 Dipole moment (field-independent basis, Debye):
    X=              1.5814    Y=             -0.0118    Z=             -0.1929  Tot=              1.5931
 Quadrupole moment (field-independent basis, Debye-Ang):
   XX=            -47.5502   YY=            -74.4882   ZZ=            -73.1369
   XY=              3.1094   XZ=             -1.6044   YZ=             -0.9827

 Normal termination of Gaussian 16 at Wed Nov 29 03:23:36 2023.
