 Gaussian 16, Revision B.01,
 Gaussian 16:  ES64L-G16RevB.01 20-Dec-2017

 -------------------------
 #P B3LYP/6-311+g(d) force
 -------------------------

 -----
 DPGEN
 -----
 Symbolic Z-matrix:
 Charge =  0 Multiplicity = 2

                         Standard orientation:
 ---------------------------------------------------------------------
 Center     Atomic      Atomic             Coordinates (Angstroms)
 Number     Number       Type             X           Y           Z
 ---------------------------------------------------------------------
      1         11           0        1.171314    1.018412    1.330099
      2         11           0        0.940604   -1.522259   -1.063975
      3         11           0       -1.816963   -2.246423    0.629098
      4         11           0       -0.065606    2.474361   -1.364653
      5         11           0       -2.046365   -0.252321   -1.419050
      6         11           0        4.079594   -0.473269    0.294106
      7         11           0       -2.262577    1.001500    1.594374
 ---------------------------------------------------------------------

 SCF Done:  E(UB3LYP) =  -1136.12645907     A.U. after   20 cycles

 The electronic state is 2-A.
 Alpha  occ. eigenvalues --  -38.44483 -38.44008 -38.43811 -38.43510 -38.43497
 Alpha  occ. eigenvalues --  -38.43419 -38.43394  -2.20265  -2.19893  -2.19820
 Alpha  occ. eigenvalues --   -2.19398  -2.19348  -2.19321  -2.19309  -1.13937
 Alpha  occ. eigenvalues --   -1.13923  -1.13897  -1.13616  -1.13573  -1.13546
 Alpha  occ. eigenvalues --   -1.13499  -1.13487  -1.13417  -1.13116  -1.13091
 Alpha  occ. eigenvalues --   -1.13031  -1.13014  -1.13011  -1.12990  -1.12981
 Alpha  occ. eigenvalues --   -1.12970  -1.12955  -1.12949  -1.12939  -1.12883
 Alpha  occ. eigenvalues --   -0.18716  -0.13383  -0.11853  -0.11568
 Alpha virt. eigenvalues --   -0.06335  -0.04636  -0.04219  -0.03367  -0.03078
 Alpha virt. eigenvalues --   -0.02659  -0.02065  -0.00766  -0.00639   0.00005
 Alpha virt. eigenvalues --    0.00247   0.00258   0.00371   0.00877   0.00920

  Beta  occ. eigenvalues --  -38.44481 -38.43950 -38.43771 -38.43489 -38.43454
  Beta  occ. eigenvalues --  -38.43396 -38.43381  -2.20262  -2.19787  -2.19751
  Beta  occ. eigenvalues --   -2.19360  -2.19300  -2.19271  -2.19266  -1.13931
  Beta  occ. eigenvalues --   -1.13922  -1.13896  -1.13560  -1.13495  -1.13487
  Beta  occ. eigenvalues --   -1.13425  -1.13408  -1.13368  -1.13086  -1.13058
  Beta  occ. eigenvalues --   -1.13009  -1.12979  -1.12961  -1.12956  -1.12941
  Beta  occ. eigenvalues --   -1.12933  -1.12926  -1.12900  -1.12896  -1.12853
  Beta  occ. eigenvalues --   -0.17950  -0.13185  -0.11647
  Beta virt. eigenvalues --   -0.07558  -0.06148  -0.04482  -0.03855  -0.02931
  Beta virt. eigenvalues --   -0.02649  -0.02046  -0.01594  -0.00683  -0.00310
  Beta virt. eigenvalues --    0.00077   0.00288   0.00312   0.00475   0.00891

 Mulliken charges and spin densities:
               1          2
     1  Na  -0.324589   0.173032
     2  Na  -0.372401   0.152755
     3  Na   0.294809   0.125568
     4  Na  -0.138274   0.049077
     5  Na   0.211263   0.207028
     6  Na   0.307035  -0.093074
     7  Na   0.022157   0.385614
 Sum of Mulliken charges =  -0.00000   1.00000

 Dipole moment (field-independent basis, Debye):
    X=              0.5321    Y=              0.1891    Z=              0.1142  Tot=              0.5761
 Quadrupole moment (field-independent basis, Debye-Ang):
   XX=            -54.7006   YY=            -71.6528   ZZ=            -67.7372
   XY=             -0.3760   XZ=             -1.1192   YZ=             -2.4403

 Normal termination of Gaussian 16 at Thu Dec  7 09:54:31 2023.
