 Gaussian 16, Revision B.01,
 Gaussian 16:  ES64L-G16RevB.01 20-Dec-2017

 -------------------------
 #P B3LYP/6-311+g(d) force
 -------------------------

 -----
 DPGEN
 -----
 Symbolic Z-matrix:
 Charge =  0 Multiplicity = 2

                         Standard orientation:
 ---------------------------------------------------------------------
 Center     Atomic      Atomic             Coordinates (Angstroms)
 Number     Number       Type             X           Y           Z
 ---------------------------------------------------------------------
      1         11           0       -6.579733   -1.049107    0.026965
      2         11           0        6.290966    1.264195   -0.613468
      3         11           0        0.634890    0.754519    1.070256
      4         11           0       -2.741985   -0.791359   -0.011167
      5         11           0        2.677289   -0.683078   -0.764762
      6         11           0        8.190946   -0.684071    0.471066
      7         11           0       -8.472373    1.188900   -0.178891
 ---------------------------------------------------------------------

 SCF Done:  E(UB3LYP) =  -1136.10403347     A.U. after   17 cycles

 The electronic state is 2-A.
 Alpha  occ. eigenvalues --  -38.44834 -38.44635 -38.44551 -38.44438 -38.44429
 Alpha  occ. eigenvalues --  -38.44131 -38.43625  -2.20639  -2.20414  -2.20369
 Alpha  occ. eigenvalues --   -2.20249  -2.20220  -2.19961  -2.19441  -1.14321
 Alpha  occ. eigenvalues --   -1.14293  -1.14259  -1.14165  -1.14068  -1.14066
 Alpha  occ. eigenvalues --   -1.14009  -1.14005  -1.14003  -1.13901  -1.13890
 Alpha  occ. eigenvalues --   -1.13884  -1.13882  -1.13862  -1.13831  -1.13681
 Alpha  occ. eigenvalues --   -1.13588  -1.13586  -1.13107  -1.13100  -1.13082
 Alpha  occ. eigenvalues --   -0.15132  -0.14136  -0.13028  -0.10914
 Alpha virt. eigenvalues --   -0.06605  -0.05285  -0.04550  -0.03210  -0.03033
 Alpha virt. eigenvalues --   -0.02894  -0.02285  -0.01880  -0.01630  -0.00960
 Alpha virt. eigenvalues --   -0.00627  -0.00476  -0.00058   0.00225   0.00464

  Beta  occ. eigenvalues --  -38.44785 -38.44527 -38.44527 -38.44442 -38.44441
  Beta  occ. eigenvalues --  -38.44074 -38.43631  -2.20548  -2.20325  -2.20259
  Beta  occ. eigenvalues --   -2.20246  -2.20212  -2.19855  -2.19460  -1.14263
  Beta  occ. eigenvalues --   -1.14230  -1.14201  -1.14146  -1.13980  -1.13975
  Beta  occ. eigenvalues --   -1.13930  -1.13930  -1.13911  -1.13908  -1.13896
  Beta  occ. eigenvalues --   -1.13886  -1.13874  -1.13851  -1.13818  -1.13617
  Beta  occ. eigenvalues --   -1.13516  -1.13513  -1.13119  -1.13115  -1.13055
  Beta  occ. eigenvalues --   -0.14615  -0.13442  -0.12684
  Beta virt. eigenvalues --   -0.07660  -0.06048  -0.05155  -0.04204  -0.02979
  Beta virt. eigenvalues --   -0.02820  -0.02722  -0.02187  -0.01680  -0.01249
  Beta virt. eigenvalues --   -0.00743  -0.00459  -0.00148   0.00238   0.00347

 Mulliken charges and spin densities:
               1          2
     1  Na  -0.166132  -0.051088
     2  Na  -0.105438  -0.001613
     3  Na   0.250510  -0.033621
     4  Na  -0.248480   0.538296
     5  Na  -0.101739   0.193667
     6  Na   0.175088   0.114794
     7  Na   0.196191   0.239565
 Sum of Mulliken charges =  -0.00000   1.00000

 Dipole moment (field-independent basis, Debye):
    X=              1.9524    Y=              0.1893    Z=              0.0478  Tot=              1.9621
 Quadrupole moment (field-independent basis, Debye-Ang):
   XX=            -66.4041   YY=            -62.9561   ZZ=            -71.0735
   XY=             -9.7463   XZ=              2.0704   YZ=              0.6887

 Normal termination of Gaussian 16 at Sun Dec  3 11:54:50 2023.
