 Gaussian 16, Revision B.01,
 Gaussian 16:  ES64L-G16RevB.01 20-Dec-2017

 -------------------------
 #P B3LYP/6-311+g(d) force
 -------------------------

 -----
 DPGEN
 -----
 Symbolic Z-matrix:
 Charge =  0 Multiplicity = 2

                         Standard orientation:
 ---------------------------------------------------------------------
 Center     Atomic      Atomic             Coordinates (Angstroms)
 Number     Number       Type             X           Y           Z
 ---------------------------------------------------------------------
      1         11           0       -1.774905   -1.316049    1.113993
      2         11           0       -5.339316   -1.099451   -0.523309
      3         11           0       -5.168601    1.888560    0.291409
      4         11           0       -0.766937    1.107307   -0.860877
      5         11           0        1.120712   -1.327762   -0.453429
      6         11           0        4.921141    0.644711    1.194041
      7         11           0        7.007907    0.102683   -0.761829
 ---------------------------------------------------------------------

 SCF Done:  E(UB3LYP) =  -1136.10639094     A.U. after   18 cycles

 The electronic state is 2-A.
 Alpha  occ. eigenvalues --  -38.44632 -38.44578 -38.44536 -38.44078 -38.44063
 Alpha  occ. eigenvalues --  -38.44031 -38.44019  -2.20474  -2.20392  -2.20346
 Alpha  occ. eigenvalues --   -2.19928  -2.19891  -2.19880  -2.19817  -1.14227
 Alpha  occ. eigenvalues --   -1.14166  -1.14134  -1.14118  -1.14040  -1.14037
 Alpha  occ. eigenvalues --   -1.13985  -1.13977  -1.13890  -1.13634  -1.13616
 Alpha  occ. eigenvalues --   -1.13586  -1.13560  -1.13545  -1.13542  -1.13529
 Alpha  occ. eigenvalues --   -1.13519  -1.13477  -1.13473  -1.13455  -1.13412
 Alpha  occ. eigenvalues --   -0.16362  -0.13895  -0.12676  -0.09807
 Alpha virt. eigenvalues --   -0.06374  -0.05662  -0.05347  -0.03441  -0.02846
 Alpha virt. eigenvalues --   -0.02631  -0.02193  -0.02029  -0.01017  -0.00886
 Alpha virt. eigenvalues --   -0.00491  -0.00141   0.00237   0.00317   0.00477

  Beta  occ. eigenvalues --  -38.44630 -38.44577 -38.44536 -38.44066 -38.44004
  Beta  occ. eigenvalues --  -38.43996 -38.43971  -2.20472  -2.20390  -2.20346
  Beta  occ. eigenvalues --   -2.19860  -2.19818  -2.19780  -2.19772  -1.14226
  Beta  occ. eigenvalues --   -1.14153  -1.14136  -1.14102  -1.14039  -1.14036
  Beta  occ. eigenvalues --   -1.13985  -1.13977  -1.13890  -1.13597  -1.13554
  Beta  occ. eigenvalues --   -1.13531  -1.13511  -1.13500  -1.13479  -1.13463
  Beta  occ. eigenvalues --   -1.13444  -1.13441  -1.13420  -1.13399  -1.13385
  Beta  occ. eigenvalues --   -0.15777  -0.13807  -0.12556
  Beta virt. eigenvalues --   -0.06294  -0.06146  -0.05379  -0.04853  -0.03171
  Beta virt. eigenvalues --   -0.02741  -0.02484  -0.01904  -0.01523  -0.00982
  Beta virt. eigenvalues --   -0.00413  -0.00306   0.00090   0.00353   0.00470

 Mulliken charges and spin densities:
               1          2
     1  Na  -0.021929   0.502109
     2  Na   0.145724   0.018528
     3  Na   0.013625   0.103438
     4  Na  -0.059583   0.314643
     5  Na  -0.123524   0.064404
     6  Na  -0.141391  -0.013250
     7  Na   0.187077   0.010127
 Sum of Mulliken charges =  -0.00000   1.00000

 Dipole moment (field-independent basis, Debye):
    X=              1.4543    Y=             -0.2731    Z=             -0.3375  Tot=              1.5177
 Quadrupole moment (field-independent basis, Debye-Ang):
   XX=            -59.4492   YY=            -72.2822   ZZ=            -67.0752
   XY=             -2.9433   XZ=             -4.4971   YZ=              6.3998

 Normal termination of Gaussian 16 at Tue Nov 28 23:31:24 2023.
