 Gaussian 16, Revision B.01,
 Gaussian 16:  ES64L-G16RevB.01 20-Dec-2017

 -------------------------
 #P B3LYP/6-311+g(d) force
 -------------------------

 -----
 DPGEN
 -----
 Symbolic Z-matrix:
 Charge =  0 Multiplicity = 2

                         Standard orientation:
 ---------------------------------------------------------------------
 Center     Atomic      Atomic             Coordinates (Angstroms)
 Number     Number       Type             X           Y           Z
 ---------------------------------------------------------------------
      1         11           0        0.664272   -0.203479    2.044401
      2         11           0       -3.586708   -1.575837   -0.205089
      3         11           0        0.859128    3.305083   -0.068170
      4         11           0        2.216599   -2.747121    0.023123
      5         11           0       -0.077105   -0.803239   -0.974511
      6         11           0        2.361697    0.543102   -0.866727
      7         11           0       -2.437884    1.481491    0.046973
 ---------------------------------------------------------------------

 SCF Done:  E(UB3LYP) =  -1136.12348856     A.U. after   20 cycles

 The electronic state is 2-A.
 Alpha  occ. eigenvalues --  -38.44180 -38.44142 -38.44100 -38.43707 -38.43614
 Alpha  occ. eigenvalues --  -38.43553 -38.43369  -2.19974  -2.19971  -2.19955
 Alpha  occ. eigenvalues --   -2.19707  -2.19646  -2.19456  -2.19180  -1.13695
 Alpha  occ. eigenvalues --   -1.13679  -1.13661  -1.13646  -1.13641  -1.13631
 Alpha  occ. eigenvalues --   -1.13619  -1.13604  -1.13595  -1.13544  -1.13391
 Alpha  occ. eigenvalues --   -1.13311  -1.13289  -1.13246  -1.13155  -1.13122
 Alpha  occ. eigenvalues --   -1.13083  -1.13033  -1.12857  -1.12838  -1.12813
 Alpha  occ. eigenvalues --   -0.18527  -0.13456  -0.12287  -0.10348
 Alpha virt. eigenvalues --   -0.05837  -0.05712  -0.04697  -0.02967  -0.02499
 Alpha virt. eigenvalues --   -0.02266  -0.01897  -0.01655  -0.00634  -0.00197
 Alpha virt. eigenvalues --   -0.00061   0.00235   0.00727   0.00735   0.00833

  Beta  occ. eigenvalues --  -38.44179 -38.44140 -38.44096 -38.43667 -38.43581
  Beta  occ. eigenvalues --  -38.43448 -38.43369  -2.19973  -2.19969  -2.19951
  Beta  occ. eigenvalues --   -2.19641  -2.19589  -2.19262  -2.19182  -1.13685
  Beta  occ. eigenvalues --   -1.13665  -1.13658  -1.13635  -1.13633  -1.13624
  Beta  occ. eigenvalues --   -1.13616  -1.13589  -1.13567  -1.13545  -1.13309
  Beta  occ. eigenvalues --   -1.13248  -1.13237  -1.13206  -1.13112  -1.12998
  Beta  occ. eigenvalues --   -1.12950  -1.12893  -1.12858  -1.12829  -1.12813
  Beta  occ. eigenvalues --   -0.17806  -0.13264  -0.12101
  Beta virt. eigenvalues --   -0.06415  -0.05666  -0.05635  -0.04640  -0.02366
  Beta virt. eigenvalues --   -0.01981  -0.01755  -0.01626  -0.01191  -0.00641
  Beta virt. eigenvalues --   -0.00110   0.00147   0.00309   0.00734   0.00792

 Mulliken charges and spin densities:
               1          2
     1  Na  -0.474984   0.622815
     2  Na   0.219228   0.011758
     3  Na  -0.171568  -0.026287
     4  Na   0.143446   0.050909
     5  Na  -0.617702   0.193471
     6  Na   0.755193   0.146661
     7  Na   0.146388   0.000673
 Sum of Mulliken charges =  -0.00000   1.00000

 Dipole moment (field-independent basis, Debye):
    X=             -0.3108    Y=             -0.6278    Z=              0.3927  Tot=              0.8031
 Quadrupole moment (field-independent basis, Debye-Ang):
   XX=            -57.5918   YY=            -57.2231   ZZ=            -76.7220
   XY=             -1.7560   XZ=             -0.3842   YZ=              0.1424

 Normal termination of Gaussian 16 at Tue Dec  5 23:53:16 2023.
