 Gaussian 16, Revision B.01,
 Gaussian 16:  ES64L-G16RevB.01 20-Dec-2017

 -------------------------
 #P B3LYP/6-311+g(d) force
 -------------------------

 -----
 DPGEN
 -----
 Symbolic Z-matrix:
 Charge =  0 Multiplicity = 2

                         Standard orientation:
 ---------------------------------------------------------------------
 Center     Atomic      Atomic             Coordinates (Angstroms)
 Number     Number       Type             X           Y           Z
 ---------------------------------------------------------------------
      1         11           0       -0.217284    0.058254   -1.503446
      2         11           0       -2.872099   -1.183395   -0.193882
      3         11           0       -2.124229    2.259717   -0.350765
      4         11           0        1.854984    2.308612    0.349393
      5         11           0        0.296689   -2.678649    0.137341
      6         11           0        3.152226   -0.660833   -0.671246
      7         11           0       -0.090287   -0.103706    2.232605
 ---------------------------------------------------------------------

 SCF Done:  E(UB3LYP) =  -1136.13613440     A.U. after   19 cycles

 The electronic state is 2-A.
 Alpha  occ. eigenvalues --  -38.44030 -38.43974 -38.43944 -38.43584 -38.43578
 Alpha  occ. eigenvalues --  -38.43209 -38.42917  -2.19888  -2.19820  -2.19799
 Alpha  occ. eigenvalues --   -2.19415  -2.19407  -2.19227  -2.18807  -1.13590
 Alpha  occ. eigenvalues --   -1.13548  -1.13511  -1.13480  -1.13472  -1.13452
 Alpha  occ. eigenvalues --   -1.13445  -1.13442  -1.13435  -1.13149  -1.13081
 Alpha  occ. eigenvalues --   -1.13076  -1.13069  -1.13043  -1.13031  -1.12918
 Alpha  occ. eigenvalues --   -1.12864  -1.12842  -1.12496  -1.12479  -1.12421
 Alpha  occ. eigenvalues --   -0.18638  -0.13147  -0.12180  -0.11061
 Alpha virt. eigenvalues --   -0.05578  -0.05296  -0.04334  -0.03264  -0.02904
 Alpha virt. eigenvalues --   -0.02814  -0.01617  -0.01075  -0.00369  -0.00127
 Alpha virt. eigenvalues --   -0.00012   0.00334   0.00772   0.00871   0.00914

  Beta  occ. eigenvalues --  -38.44026 -38.43958 -38.43835 -38.43577 -38.43574
  Beta  occ. eigenvalues --  -38.43161 -38.42909  -2.19882  -2.19772  -2.19619
  Beta  occ. eigenvalues --   -2.19411  -2.19398  -2.19141  -2.18798  -1.13580
  Beta  occ. eigenvalues --   -1.13536  -1.13502  -1.13444  -1.13432  -1.13426
  Beta  occ. eigenvalues --   -1.13347  -1.13307  -1.13289  -1.13135  -1.13074
  Beta  occ. eigenvalues --   -1.13061  -1.13053  -1.13037  -1.13025  -1.12859
  Beta  occ. eigenvalues --   -1.12806  -1.12777  -1.12493  -1.12446  -1.12412
  Beta  occ. eigenvalues --   -0.17925  -0.12882  -0.11944
  Beta virt. eigenvalues --   -0.07124  -0.05523  -0.05234  -0.04282  -0.02556
  Beta virt. eigenvalues --   -0.02127  -0.01747  -0.01510  -0.01015  -0.00362
  Beta virt. eigenvalues --   -0.00144   0.00112   0.00372   0.00864   0.00869

 Mulliken charges and spin densities:
               1          2
     1  Na  -0.333883   0.172784
     2  Na   0.234566  -0.012811
     3  Na   0.130158  -0.009108
     4  Na   0.073816   0.072702
     5  Na   0.286465   0.099639
     6  Na   0.081949   0.035810
     7  Na  -0.473070   0.640984
 Sum of Mulliken charges =  -0.00000   1.00000

 Dipole moment (field-independent basis, Debye):
    X=             -0.1435    Y=              0.0409    Z=              0.1971  Tot=              0.2472
 Quadrupole moment (field-independent basis, Debye-Ang):
   XX=            -55.7454   YY=            -65.1325   ZZ=            -72.8255
   XY=              0.1813   XZ=             -0.8725   YZ=              0.8170

 Normal termination of Gaussian 16 at Thu Dec  7 19:37:15 2023.
