 Gaussian 16, Revision B.01,
 Gaussian 16:  ES64L-G16RevB.01 20-Dec-2017

 -------------------------
 #P B3LYP/6-311+g(d) force
 -------------------------

 -----
 DPGEN
 -----
 Symbolic Z-matrix:
 Charge =  0 Multiplicity = 2

                         Standard orientation:
 ---------------------------------------------------------------------
 Center     Atomic      Atomic             Coordinates (Angstroms)
 Number     Number       Type             X           Y           Z
 ---------------------------------------------------------------------
      1         11           0       -0.132129   -0.035370   -1.588931
      2         11           0       -2.029011   -2.165081    0.146510
      3         11           0        2.993784    0.792463   -0.081529
      4         11           0        1.586091   -2.524095   -0.350819
      5         11           0       -2.832109    1.010734   -0.042870
      6         11           0        0.038368    2.969603   -0.140505
      7         11           0        0.375006   -0.048254    2.058144
 ---------------------------------------------------------------------

 SCF Done:  E(UB3LYP) =  -1136.14053379     A.U. after   18 cycles

 The electronic state is 2-A.
 Alpha  occ. eigenvalues --  -38.43942 -38.43619 -38.43574 -38.43532 -38.43517
 Alpha  occ. eigenvalues --  -38.43415 -38.43001  -2.19773  -2.19488  -2.19426
 Alpha  occ. eigenvalues --   -2.19419  -2.19380  -2.19261  -2.19012  -1.13450
 Alpha  occ. eigenvalues --   -1.13441  -1.13408  -1.13194  -1.13154  -1.13140
 Alpha  occ. eigenvalues --   -1.13127  -1.13098  -1.13076  -1.13061  -1.13050
 Alpha  occ. eigenvalues --   -1.13044  -1.13037  -1.13025  -1.13000  -1.12952
 Alpha  occ. eigenvalues --   -1.12922  -1.12888  -1.12690  -1.12640  -1.12633
 Alpha  occ. eigenvalues --   -0.18767  -0.12996  -0.12582  -0.10708
 Alpha virt. eigenvalues --   -0.05487  -0.05104  -0.04849  -0.03147  -0.02888
 Alpha virt. eigenvalues --   -0.02518  -0.01390  -0.01172  -0.00359  -0.00328
 Alpha virt. eigenvalues --   -0.00001   0.00368   0.00832   0.00887   0.00912

  Beta  occ. eigenvalues --  -38.43938 -38.43616 -38.43565 -38.43512 -38.43437
  Beta  occ. eigenvalues --  -38.43411 -38.42939  -2.19769  -2.19485  -2.19410
  Beta  occ. eigenvalues --   -2.19374  -2.19257  -2.19243  -2.18898  -1.13442
  Beta  occ. eigenvalues --   -1.13421  -1.13409  -1.13192  -1.13146  -1.13125
  Beta  occ. eigenvalues --   -1.13110  -1.13059  -1.13053  -1.13039  -1.13013
  Beta  occ. eigenvalues --   -1.13000  -1.12969  -1.12942  -1.12921  -1.12912
  Beta  occ. eigenvalues --   -1.12901  -1.12884  -1.12611  -1.12556  -1.12554
  Beta  occ. eigenvalues --   -0.18042  -0.12763  -0.12337
  Beta virt. eigenvalues --   -0.06781  -0.05471  -0.05100  -0.04798  -0.02348
  Beta virt. eigenvalues --   -0.02118  -0.01445  -0.01307  -0.01096  -0.00417
  Beta virt. eigenvalues --   -0.00382   0.00141   0.00392   0.00862   0.00893

 Mulliken charges and spin densities:
               1          2
     1  Na  -0.304158   0.423649
     2  Na   0.195307   0.003491
     3  Na   0.192747  -0.068059
     4  Na   0.199849  -0.041536
     5  Na   0.148253  -0.028211
     6  Na   0.129328  -0.075427
     7  Na  -0.561326   0.786092
 Sum of Mulliken charges =  -0.00000   1.00000

 Dipole moment (field-independent basis, Debye):
    X=              0.1946    Y=             -0.0002    Z=              0.1565  Tot=              0.2498
 Quadrupole moment (field-independent basis, Debye-Ang):
   XX=            -57.6227   YY=            -60.9633   ZZ=            -74.6193
   XY=              0.1871   XZ=             -1.1287   YZ=             -0.0028

 Normal termination of Gaussian 16 at Thu Dec  7 04:18:15 2023.
