 Gaussian 16, Revision B.01,
 Gaussian 16:  ES64L-G16RevB.01 20-Dec-2017

 -------------------------
 #P B3LYP/6-311+g(d) force
 -------------------------

 -----
 DPGEN
 -----
 Symbolic Z-matrix:
 Charge =  0 Multiplicity = 2

                         Standard orientation:
 ---------------------------------------------------------------------
 Center     Atomic      Atomic             Coordinates (Angstroms)
 Number     Number       Type             X           Y           Z
 ---------------------------------------------------------------------
      1         11           0        0.594344   -2.993091   -0.740583
      2         11           0        0.119636   -0.216845   -1.572409
      3         11           0       -0.135541   -0.142172    2.146252
      4         11           0       -3.210928   -1.094232    0.199312
      5         11           0       -1.783397    2.335297   -0.241547
      6         11           0        2.870273   -0.623556    0.607998
      7         11           0        1.545614    2.734600   -0.399022
 ---------------------------------------------------------------------

 SCF Done:  E(UB3LYP) =  -1136.13448608     A.U. after   19 cycles

 The electronic state is 2-A.
 Alpha  occ. eigenvalues --  -38.44105 -38.43955 -38.43825 -38.43715 -38.43661
 Alpha  occ. eigenvalues --  -38.43392 -38.43348  -2.19962  -2.19726  -2.19685
 Alpha  occ. eigenvalues --   -2.19563  -2.19499  -2.19332  -2.19221  -1.13629
 Alpha  occ. eigenvalues --   -1.13596  -1.13578  -1.13476  -1.13403  -1.13377
 Alpha  occ. eigenvalues --   -1.13373  -1.13314  -1.13295  -1.13242  -1.13222
 Alpha  occ. eigenvalues --   -1.13195  -1.13186  -1.13176  -1.13120  -1.12999
 Alpha  occ. eigenvalues --   -1.12968  -1.12942  -1.12889  -1.12871  -1.12859
 Alpha  occ. eigenvalues --   -0.18326  -0.12823  -0.12356  -0.11078
 Alpha virt. eigenvalues --   -0.05497  -0.05011  -0.04896  -0.03249  -0.02992
 Alpha virt. eigenvalues --   -0.02767  -0.01458  -0.01268  -0.00462  -0.00252
 Alpha virt. eigenvalues --   -0.00011   0.00333   0.00817   0.00843   0.00866

  Beta  occ. eigenvalues --  -38.44010 -38.43956 -38.43800 -38.43698 -38.43656
  Beta  occ. eigenvalues --  -38.43388 -38.43290  -2.19788  -2.19729  -2.19642
  Beta  occ. eigenvalues --   -2.19535  -2.19493  -2.19228  -2.19217  -1.13514
  Beta  occ. eigenvalues --   -1.13479  -1.13447  -1.13429  -1.13395  -1.13377
  Beta  occ. eigenvalues --   -1.13374  -1.13276  -1.13269  -1.13215  -1.13190
  Beta  occ. eigenvalues --   -1.13184  -1.13167  -1.13165  -1.13112  -1.12928
  Beta  occ. eigenvalues --   -1.12908  -1.12879  -1.12873  -1.12850  -1.12848
  Beta  occ. eigenvalues --   -0.17626  -0.12552  -0.12114
  Beta virt. eigenvalues --   -0.07172  -0.05437  -0.04924  -0.04824  -0.02518
  Beta virt. eigenvalues --   -0.02316  -0.01769  -0.01345  -0.01153  -0.00437
  Beta virt. eigenvalues --   -0.00273   0.00107   0.00374   0.00833   0.00868

 Mulliken charges and spin densities:
               1          2
     1  Na   0.150121   0.013910
     2  Na  -0.055136   0.293515
     3  Na  -0.316050   0.612790
     4  Na  -0.040491  -0.036417
     5  Na   0.049554  -0.027168
     6  Na   0.164980   0.160926
     7  Na   0.047023  -0.017555
 Sum of Mulliken charges =  -0.00000   1.00000

 Dipole moment (field-independent basis, Debye):
    X=             -0.1056    Y=             -0.1706    Z=              0.2735  Tot=              0.3392
 Quadrupole moment (field-independent basis, Debye-Ang):
   XX=            -59.3489   YY=            -61.4821   ZZ=            -73.2244
   XY=              0.6565   XZ=              0.6312   YZ=             -0.0434

 Normal termination of Gaussian 16 at Thu Dec  7 04:19:35 2023.
