 Gaussian 16, Revision B.01,
 Gaussian 16:  ES64L-G16RevB.01 20-Dec-2017

 -------------------------
 #P B3LYP/6-311+g(d) force
 -------------------------

 -----
 DPGEN
 -----
 Symbolic Z-matrix:
 Charge =  0 Multiplicity = 2

                         Standard orientation:
 ---------------------------------------------------------------------
 Center     Atomic      Atomic             Coordinates (Angstroms)
 Number     Number       Type             X           Y           Z
 ---------------------------------------------------------------------
      1         11           0        0.925821    2.734885   -0.167233
      2         11           0        0.866876   -2.497561    0.542048
      3         11           0       -0.136351   -0.073327   -1.658027
      4         11           0       -2.517191   -1.881476   -0.358580
      5         11           0       -2.266416    1.736124    0.069441
      6         11           0        3.102097   -0.382760   -0.430926
      7         11           0        0.025164    0.364115    2.003277
 ---------------------------------------------------------------------

 SCF Done:  E(UB3LYP) =  -1136.13880853     A.U. after   19 cycles

 The electronic state is 2-A.
 Alpha  occ. eigenvalues --  -38.43697 -38.43627 -38.43619 -38.43468 -38.43426
 Alpha  occ. eigenvalues --  -38.43283 -38.43173  -2.19565  -2.19538  -2.19513
 Alpha  occ. eigenvalues --   -2.19307  -2.19304  -2.19184  -2.19179  -1.13271
 Alpha  occ. eigenvalues --   -1.13231  -1.13219  -1.13205  -1.13203  -1.13197
 Alpha  occ. eigenvalues --   -1.13176  -1.13147  -1.13131  -1.13014  -1.12990
 Alpha  occ. eigenvalues --   -1.12970  -1.12958  -1.12948  -1.12920  -1.12879
 Alpha  occ. eigenvalues --   -1.12856  -1.12839  -1.12800  -1.12791  -1.12783
 Alpha  occ. eigenvalues --   -0.18996  -0.12950  -0.12617  -0.11056
 Alpha virt. eigenvalues --   -0.05252  -0.05039  -0.04669  -0.03272  -0.03003
 Alpha virt. eigenvalues --   -0.02678  -0.01341  -0.01117  -0.00167  -0.00084
 Alpha virt. eigenvalues --    0.00062   0.00362   0.00853   0.00908   0.00947

  Beta  occ. eigenvalues --  -38.43691 -38.43611 -38.43533 -38.43464 -38.43419
  Beta  occ. eigenvalues --  -38.43268 -38.43108  -2.19530  -2.19504  -2.19393
  Beta  occ. eigenvalues --   -2.19301  -2.19296  -2.19161  -2.19060  -1.13229
  Beta  occ. eigenvalues --   -1.13221  -1.13178  -1.13174  -1.13170  -1.13133
  Beta  occ. eigenvalues --   -1.13114  -1.13080  -1.13052  -1.12996  -1.12976
  Beta  occ. eigenvalues --   -1.12947  -1.12944  -1.12943  -1.12911  -1.12855
  Beta  occ. eigenvalues --   -1.12805  -1.12788  -1.12770  -1.12720  -1.12697
  Beta  occ. eigenvalues --   -0.18254  -0.12698  -0.12355
  Beta virt. eigenvalues --   -0.07110  -0.05236  -0.04991  -0.04617  -0.02453
  Beta virt. eigenvalues --   -0.02275  -0.01613  -0.01248  -0.01065  -0.00143
  Beta virt. eigenvalues --   -0.00094   0.00133   0.00383   0.00876   0.00936

 Mulliken charges and spin densities:
               1          2
     1  Na   0.119363  -0.068030
     2  Na   0.224319   0.090025
     3  Na  -0.388210   0.555699
     4  Na   0.081548  -0.053156
     5  Na   0.269988  -0.038531
     6  Na  -0.001046  -0.049854
     7  Na  -0.305962   0.563848
 Sum of Mulliken charges =  -0.00000   1.00000

 Dipole moment (field-independent basis, Debye):
    X=             -0.0034    Y=              0.1742    Z=              0.0791  Tot=              0.1913
 Quadrupole moment (field-independent basis, Debye-Ang):
   XX=            -58.4793   YY=            -62.5524   ZZ=            -72.8151
   XY=              0.6524   XZ=             -0.6987   YZ=             -0.8308

 Normal termination of Gaussian 16 at Thu Dec  7 19:12:42 2023.
