 Gaussian 16, Revision B.01,
 Gaussian 16:  ES64L-G16RevB.01 20-Dec-2017

 -------------------------
 #P B3LYP/6-311+g(d) force
 -------------------------

 -----
 DPGEN
 -----
 Symbolic Z-matrix:
 Charge =  0 Multiplicity = 2

                         Standard orientation:
 ---------------------------------------------------------------------
 Center     Atomic      Atomic             Coordinates (Angstroms)
 Number     Number       Type             X           Y           Z
 ---------------------------------------------------------------------
      1         11           0       -0.250384   -0.148374    2.007278
      2         11           0        2.207615   -1.834952   -0.178706
      3         11           0       -1.006603   -2.575872   -0.333932
      4         11           0       -2.734727   -0.162352    0.056071
      5         11           0        3.019251    1.482463    0.199113
      6         11           0        0.043776    0.486491   -1.606381
      7         11           0       -1.278929    2.752596   -0.143443
 ---------------------------------------------------------------------

 SCF Done:  E(UB3LYP) =  -1136.13219164     A.U. after   20 cycles

 The electronic state is 2-A.
 Alpha  occ. eigenvalues --  -38.44267 -38.43673 -38.43667 -38.43646 -38.43597
 Alpha  occ. eigenvalues --  -38.43145 -38.43030  -2.20053  -2.19649  -2.19574
 Alpha  occ. eigenvalues --   -2.19537  -2.19476  -2.19153  -2.18966  -1.13724
 Alpha  occ. eigenvalues --   -1.13709  -1.13699  -1.13403  -1.13343  -1.13310
 Alpha  occ. eigenvalues --   -1.13237  -1.13223  -1.13213  -1.13205  -1.13182
 Alpha  occ. eigenvalues --   -1.13175  -1.13170  -1.13110  -1.13093  -1.12827
 Alpha  occ. eigenvalues --   -1.12783  -1.12762  -1.12639  -1.12612  -1.12597
 Alpha  occ. eigenvalues --   -0.19115  -0.13220  -0.12520  -0.10885
 Alpha virt. eigenvalues --   -0.05767  -0.05099  -0.04482  -0.03250  -0.02917
 Alpha virt. eigenvalues --   -0.02525  -0.01473  -0.01123  -0.00308  -0.00068
 Alpha virt. eigenvalues --    0.00007   0.00352   0.00822   0.00886   0.00926

  Beta  occ. eigenvalues --  -38.44267 -38.43668 -38.43654 -38.43591 -38.43552
  Beta  occ. eigenvalues --  -38.43082 -38.43018  -2.20055  -2.19632  -2.19531
  Beta  occ. eigenvalues --   -2.19469  -2.19401  -2.19038  -2.18950  -1.13716
  Beta  occ. eigenvalues --   -1.13709  -1.13702  -1.13382  -1.13324  -1.13260
  Beta  occ. eigenvalues --   -1.13221  -1.13199  -1.13183  -1.13167  -1.13119
  Beta  occ. eigenvalues --   -1.13094  -1.13091  -1.13062  -1.13056  -1.12754
  Beta  occ. eigenvalues --   -1.12702  -1.12676  -1.12631  -1.12603  -1.12551
  Beta  occ. eigenvalues --   -0.18352  -0.12983  -0.12272
  Beta virt. eigenvalues --   -0.06924  -0.05728  -0.05050  -0.04465  -0.02466
  Beta virt. eigenvalues --   -0.02153  -0.01500  -0.01353  -0.01042  -0.00346
  Beta virt. eigenvalues --   -0.00100   0.00147   0.00381   0.00843   0.00930

 Mulliken charges and spin densities:
               1          2
     1  Na  -0.570232   0.616245
     2  Na   0.047842  -0.031573
     3  Na   0.009461   0.027822
     4  Na   0.659524   0.208958
     5  Na  -0.057670  -0.071427
     6  Na  -0.293132   0.325273
     7  Na   0.204207  -0.075297
 Sum of Mulliken charges =  -0.00000   1.00000

 Dipole moment (field-independent basis, Debye):
    X=              0.4488    Y=              0.3638    Z=              0.2260  Tot=              0.6204
 Quadrupole moment (field-independent basis, Debye-Ang):
   XX=            -58.2692   YY=            -62.0433   ZZ=            -73.7788
   XY=              0.4972   XZ=              0.6941   YZ=              1.5691

 Normal termination of Gaussian 16 at Thu Dec  7 08:49:41 2023.
