 Gaussian 16, Revision B.01,
 Gaussian 16:  ES64L-G16RevB.01 20-Dec-2017

 -------------------------
 #P B3LYP/6-311+g(d) force
 -------------------------

 -----
 DPGEN
 -----
 Symbolic Z-matrix:
 Charge =  0 Multiplicity = 2

                         Standard orientation:
 ---------------------------------------------------------------------
 Center     Atomic      Atomic             Coordinates (Angstroms)
 Number     Number       Type             X           Y           Z
 ---------------------------------------------------------------------
      1         11           0        0.674342    1.444314    0.964671
      2         11           0        1.013441   -1.653986    0.473571
      3         11           0        3.059252    0.298113   -0.297829
      4         11           0        0.409441    0.186914   -1.538929
      5         11           0       -1.220159   -0.504985    1.697771
      6         11           0       -1.820659   -1.412285   -0.902729
      7         11           0       -2.115658    1.641915   -0.396529
 ---------------------------------------------------------------------

 SCF Done:  E(UB3LYP) =  -1136.08488208     A.U. after   23 cycles

 The electronic state is 2-A.
 Alpha  occ. eigenvalues --  -38.44437 -38.44331 -38.44155 -38.43644 -38.43278
 Alpha  occ. eigenvalues --  -38.43167 -38.42947  -2.20524  -2.20465  -2.20434
 Alpha  occ. eigenvalues --   -2.19749  -2.19477  -2.19181  -2.19143  -1.14380
 Alpha  occ. eigenvalues --   -1.14351  -1.14259  -1.14213  -1.14130  -1.14113
 Alpha  occ. eigenvalues --   -1.14111  -1.14054  -1.13986  -1.13414  -1.13381
 Alpha  occ. eigenvalues --   -1.13322  -1.13178  -1.13111  -1.13068  -1.12858
 Alpha  occ. eigenvalues --   -1.12842  -1.12825  -1.12795  -1.12787  -1.12684
 Alpha  occ. eigenvalues --   -0.21399  -0.14344  -0.12548  -0.11899
 Alpha virt. eigenvalues --   -0.05759  -0.04103  -0.04080  -0.03549  -0.02792
 Alpha virt. eigenvalues --   -0.02712  -0.01513  -0.00411  -0.00289   0.00292
 Alpha virt. eigenvalues --    0.00666   0.00833   0.00947   0.01046   0.01066

  Beta  occ. eigenvalues --  -38.44432 -38.44252 -38.44080 -38.43613 -38.43237
  Beta  occ. eigenvalues --  -38.43155 -38.42923  -2.20441  -2.20383  -2.20320
  Beta  occ. eigenvalues --   -2.19696  -2.19409  -2.19164  -2.19108  -1.14325
  Beta  occ. eigenvalues --   -1.14263  -1.14153  -1.14125  -1.14090  -1.14082
  Beta  occ. eigenvalues --   -1.14026  -1.13996  -1.13917  -1.13372  -1.13326
  Beta  occ. eigenvalues --   -1.13276  -1.13137  -1.13038  -1.13004  -1.12845
  Beta  occ. eigenvalues --   -1.12822  -1.12796  -1.12763  -1.12722  -1.12654
  Beta  occ. eigenvalues --   -0.20559  -0.14077  -0.11644
  Beta virt. eigenvalues --   -0.08141  -0.05679  -0.04098  -0.03331  -0.03185
  Beta virt. eigenvalues --   -0.02017  -0.01781  -0.01429  -0.00391  -0.00043
  Beta virt. eigenvalues --    0.00327   0.00713   0.00828   0.01043   0.01084

 Mulliken charges and spin densities:
               1          2
     1  Na  -0.507869   0.246881
     2  Na  -0.698122   0.177819
     3  Na   0.922237  -0.020109
     4  Na  -0.066073   0.394310
     5  Na   0.795402   0.250686
     6  Na  -0.087380   0.006106
     7  Na  -0.358195  -0.055692
 Sum of Mulliken charges =  -0.00000   1.00000

 Dipole moment (field-independent basis, Debye):
    X=              0.1645    Y=              0.1085    Z=             -0.0980  Tot=              0.2201
 Quadrupole moment (field-independent basis, Debye-Ang):
   XX=            -54.0665   YY=            -74.9363   ZZ=            -66.5108
   XY=             -0.0431   XZ=              0.5094   YZ=              0.0068

 Normal termination of Gaussian 16 at Fri Dec  8 19:31:45 2023.
