 Gaussian 16, Revision B.01,
 Gaussian 16:  ES64L-G16RevB.01 20-Dec-2017

 -------------------------
 #P B3LYP/6-311+g(d) force
 -------------------------

 -----
 DPGEN
 -----
 Symbolic Z-matrix:
 Charge =  0 Multiplicity = 2

                         Standard orientation:
 ---------------------------------------------------------------------
 Center     Atomic      Atomic             Coordinates (Angstroms)
 Number     Number       Type             X           Y           Z
 ---------------------------------------------------------------------
      1         11           0        0.277915   -0.348546    1.996741
      2         11           0       -2.342443    2.479580    0.169308
      3         11           0       -3.261984   -1.015469   -0.056207
      4         11           0        2.982066   -1.379229   -0.484927
      5         11           0        2.923074    2.054511    0.223272
      6         11           0       -0.343584   -2.572656   -0.159921
      7         11           0       -0.235046    0.781808   -1.688265
 ---------------------------------------------------------------------

 SCF Done:  E(UB3LYP) =  -1136.12677173     A.U. after   21 cycles

 The electronic state is 2-A.
 Alpha  occ. eigenvalues --  -38.44940 -38.44598 -38.44486 -38.43966 -38.43742
 Alpha  occ. eigenvalues --  -38.43626 -38.42619  -2.20739  -2.20361  -2.20291
 Alpha  occ. eigenvalues --   -2.19761  -2.19598  -2.19495  -2.18516  -1.14419
 Alpha  occ. eigenvalues --   -1.14398  -1.14373  -1.14030  -1.14025  -1.14011
 Alpha  occ. eigenvalues --   -1.13960  -1.13945  -1.13924  -1.13455  -1.13418
 Alpha  occ. eigenvalues --   -1.13404  -1.13287  -1.13242  -1.13207  -1.13181
 Alpha  occ. eigenvalues --   -1.13131  -1.13099  -1.12211  -1.12173  -1.12151
 Alpha  occ. eigenvalues --   -0.17970  -0.13398  -0.11847  -0.10283
 Alpha virt. eigenvalues --   -0.06528  -0.06029  -0.04089  -0.03356  -0.02718
 Alpha virt. eigenvalues --   -0.02308  -0.02124  -0.01544  -0.00950  -0.00236
 Alpha virt. eigenvalues --   -0.00080   0.00274   0.00605   0.00660   0.00688

  Beta  occ. eigenvalues --  -38.44940 -38.44595 -38.44474 -38.43968 -38.43690
  Beta  occ. eigenvalues --  -38.43536 -38.42608  -2.20740  -2.20358  -2.20269
  Beta  occ. eigenvalues --   -2.19766  -2.19504  -2.19329  -2.18501  -1.14415
  Beta  occ. eigenvalues --   -1.14391  -1.14376  -1.14026  -1.14013  -1.14008
  Beta  occ. eigenvalues --   -1.13933  -1.13926  -1.13912  -1.13452  -1.13413
  Beta  occ. eigenvalues --   -1.13408  -1.13223  -1.13171  -1.13141  -1.13069
  Beta  occ. eigenvalues --   -1.13014  -1.12980  -1.12201  -1.12152  -1.12123
  Beta  occ. eigenvalues --   -0.17270  -0.13237  -0.11658
  Beta virt. eigenvalues --   -0.06529  -0.06424  -0.05900  -0.04043  -0.02679
  Beta virt. eigenvalues --   -0.02095  -0.01981  -0.01517  -0.01221  -0.00961
  Beta virt. eigenvalues --   -0.00253   0.00098   0.00312   0.00665   0.00696

 Mulliken charges and spin densities:
               1          2
     1  Na  -0.232383   0.661913
     2  Na   0.093958  -0.108532
     3  Na   0.095277  -0.014051
     4  Na   0.160903   0.085267
     5  Na   0.006485  -0.058297
     6  Na   0.019873   0.086700
     7  Na  -0.144113   0.347001
 Sum of Mulliken charges =  -0.00000   1.00000

 Dipole moment (field-independent basis, Debye):
    X=             -0.0353    Y=              0.2993    Z=              0.0038  Tot=              0.3014
 Quadrupole moment (field-independent basis, Debye-Ang):
   XX=            -50.2490   YY=            -66.2674   ZZ=            -76.3128
   XY=              0.9541   XZ=             -1.2682   YZ=              2.7179

 Normal termination of Gaussian 16 at Tue Dec  5 21:14:15 2023.
