 Gaussian 16, Revision B.01,
 Gaussian 16:  ES64L-G16RevB.01 20-Dec-2017

 -------------------------
 #P B3LYP/6-311+g(d) force
 -------------------------

 -----
 DPGEN
 -----
 Symbolic Z-matrix:
 Charge =  0 Multiplicity = 2

                         Standard orientation:
 ---------------------------------------------------------------------
 Center     Atomic      Atomic             Coordinates (Angstroms)
 Number     Number       Type             X           Y           Z
 ---------------------------------------------------------------------
      1         11           0        1.671730    2.704144    0.065874
      2         11           0       -3.048299    0.328993    1.342267
      3         11           0       -1.301660    1.632534   -1.153304
      4         11           0        3.443963   -1.591921    0.778172
      5         11           0       -0.006433   -0.440048    1.916539
      6         11           0        1.555342   -0.519155   -1.812546
      7         11           0       -2.314645   -2.114547   -1.137002
 ---------------------------------------------------------------------

 SCF Done:  E(UB3LYP) =  -1136.12526348     A.U. after   22 cycles

 The electronic state is 2-A.
 Alpha  occ. eigenvalues --  -38.44675 -38.44386 -38.44305 -38.44267 -38.43661
 Alpha  occ. eigenvalues --  -38.43559 -38.43140  -2.20462  -2.20229  -2.20136
 Alpha  occ. eigenvalues --   -2.20131  -2.19440  -2.19350  -2.19015  -1.14120
 Alpha  occ. eigenvalues --   -1.14116  -1.14086  -1.13930  -1.13888  -1.13876
 Alpha  occ. eigenvalues --   -1.13816  -1.13796  -1.13782  -1.13768  -1.13755
 Alpha  occ. eigenvalues --   -1.13742  -1.13112  -1.13100  -1.13082  -1.13025
 Alpha  occ. eigenvalues --   -1.13002  -1.12998  -1.12706  -1.12693  -1.12622
 Alpha  occ. eigenvalues --   -0.17901  -0.13336  -0.11600  -0.11218
 Alpha virt. eigenvalues --   -0.05981  -0.05610  -0.04899  -0.03263  -0.02876
 Alpha virt. eigenvalues --   -0.02720  -0.01796  -0.01320  -0.00824  -0.00068
 Alpha virt. eigenvalues --    0.00119   0.00171   0.00299   0.00498   0.00673

  Beta  occ. eigenvalues --  -38.44622 -38.44322 -38.44269 -38.44242 -38.43664
  Beta  occ. eigenvalues --  -38.43563 -38.43124  -2.20364  -2.20111  -2.20092
  Beta  occ. eigenvalues --   -2.20065  -2.19447  -2.19359  -2.18989  -1.14050
  Beta  occ. eigenvalues --   -1.14041  -1.14022  -1.13860  -1.13804  -1.13794
  Beta  occ. eigenvalues --   -1.13770  -1.13767  -1.13727  -1.13712  -1.13710
  Beta  occ. eigenvalues --   -1.13701  -1.13113  -1.13105  -1.13085  -1.13025
  Beta  occ. eigenvalues --   -1.13007  -1.13005  -1.12683  -1.12660  -1.12605
  Beta  occ. eigenvalues --   -0.17132  -0.13213  -0.11081
  Beta virt. eigenvalues --   -0.07724  -0.05760  -0.05228  -0.04455  -0.02942
  Beta virt. eigenvalues --   -0.02351  -0.02148  -0.01620  -0.01114  -0.00497
  Beta virt. eigenvalues --    0.00022   0.00235   0.00301   0.00336   0.00625

 Mulliken charges and spin densities:
               1          2
     1  Na  -0.014106  -0.115202
     2  Na   0.652809  -0.135579
     3  Na  -0.036755   0.409283
     4  Na   0.168991  -0.019272
     5  Na  -0.463573   0.465108
     6  Na  -0.078283   0.073015
     7  Na  -0.229084   0.322646
 Sum of Mulliken charges =  -0.00000   1.00000

 Dipole moment (field-independent basis, Debye):
    X=             -0.3661    Y=             -0.1287    Z=              0.1266  Tot=              0.4082
 Quadrupole moment (field-independent basis, Debye-Ang):
   XX=            -56.5744   YY=            -72.1194   ZZ=            -67.7724
   XY=              1.6900   XZ=              0.7604   YZ=              4.3822

 Normal termination of Gaussian 16 at Tue Dec  5 17:22:06 2023.
