 Gaussian 16, Revision B.01,
 Gaussian 16:  ES64L-G16RevB.01 20-Dec-2017

 -------------------------
 #P B3LYP/6-311+g(d) force
 -------------------------

 -----
 DPGEN
 -----
 Symbolic Z-matrix:
 Charge =  0 Multiplicity = 2

                         Standard orientation:
 ---------------------------------------------------------------------
 Center     Atomic      Atomic             Coordinates (Angstroms)
 Number     Number       Type             X           Y           Z
 ---------------------------------------------------------------------
      1         11           0       -0.833523    2.626349    0.838475
      2         11           0       -2.469532   -2.460242   -1.047013
      3         11           0       -1.422271   -0.637079    2.477453
      4         11           0        3.826793   -1.762500    0.080756
      5         11           0        0.737148   -0.878675   -0.067436
      6         11           0       -1.973303    0.984338   -1.521279
      7         11           0        2.134689    2.127809   -0.760956
 ---------------------------------------------------------------------

 SCF Done:  E(UB3LYP) =  -1136.12404793     A.U. after   21 cycles

 The electronic state is 2-A.
 Alpha  occ. eigenvalues --  -38.44582 -38.44527 -38.44281 -38.44013 -38.43995
 Alpha  occ. eigenvalues --  -38.43357 -38.42739  -2.20374  -2.20358  -2.20150
 Alpha  occ. eigenvalues --   -2.19786  -2.19783  -2.19235  -2.18676  -1.14064
 Alpha  occ. eigenvalues --   -1.14061  -1.14031  -1.13982  -1.13971  -1.13953
 Alpha  occ. eigenvalues --   -1.13843  -1.13825  -1.13750  -1.13464  -1.13452
 Alpha  occ. eigenvalues --   -1.13447  -1.13443  -1.13415  -1.13411  -1.12929
 Alpha  occ. eigenvalues --   -1.12887  -1.12858  -1.12400  -1.12353  -1.12284
 Alpha  occ. eigenvalues --   -0.17878  -0.12753  -0.12004  -0.11431
 Alpha virt. eigenvalues --   -0.06210  -0.05335  -0.04274  -0.03419  -0.02858
 Alpha virt. eigenvalues --   -0.02659  -0.01727  -0.01475  -0.00566  -0.00342
 Alpha virt. eigenvalues --    0.00127   0.00232   0.00298   0.00661   0.00739

  Beta  occ. eigenvalues --  -38.44576 -38.44420 -38.44237 -38.44021 -38.43971
  Beta  occ. eigenvalues --  -38.43343 -38.42730  -2.20364  -2.20160  -2.20069
  Beta  occ. eigenvalues --   -2.19797  -2.19742  -2.19214  -2.18661  -1.14057
  Beta  occ. eigenvalues --   -1.14051  -1.13965  -1.13893  -1.13844  -1.13818
  Beta  occ. eigenvalues --   -1.13782  -1.13769  -1.13691  -1.13473  -1.13456
  Beta  occ. eigenvalues --   -1.13424  -1.13423  -1.13399  -1.13387  -1.12917
  Beta  occ. eigenvalues --   -1.12874  -1.12817  -1.12353  -1.12348  -1.12284
  Beta  occ. eigenvalues --   -0.17192  -0.12486  -0.11914
  Beta virt. eigenvalues --   -0.07386  -0.06130  -0.05127  -0.03877  -0.02942
  Beta virt. eigenvalues --   -0.02257  -0.02070  -0.01538  -0.01388  -0.00331
  Beta virt. eigenvalues --   -0.00176   0.00165   0.00294   0.00409   0.00697

 Mulliken charges and spin densities:
               1          2
     1  Na   0.942255   0.319202
     2  Na   0.406310   0.085263
     3  Na  -0.110832   0.157988
     4  Na   0.179300  -0.239940
     5  Na  -1.599815   0.588499
     6  Na   0.456193   0.223199
     7  Na  -0.273411  -0.134209
 Sum of Mulliken charges =  -0.00000   1.00000

 Dipole moment (field-independent basis, Debye):
    X=             -0.0376    Y=              0.1361    Z=              0.0083  Tot=              0.1414
 Quadrupole moment (field-independent basis, Debye-Ang):
   XX=            -59.1830   YY=            -64.1843   ZZ=            -68.8375
   XY=              2.1552   XZ=             -0.4804   YZ=             -0.5253

 Normal termination of Gaussian 16 at Tue Dec  5 14:48:49 2023.
