 Gaussian 16, Revision B.01,
 Gaussian 16:  ES64L-G16RevB.01 20-Dec-2017

 -------------------------
 #P B3LYP/6-311+g(d) force
 -------------------------

 -----
 DPGEN
 -----
 Symbolic Z-matrix:
 Charge =  0 Multiplicity = 2

                         Standard orientation:
 ---------------------------------------------------------------------
 Center     Atomic      Atomic             Coordinates (Angstroms)
 Number     Number       Type             X           Y           Z
 ---------------------------------------------------------------------
      1         11           0       -0.733460    0.855795    0.144126
      2         11           0        0.776613   -1.765661    2.185991
      3         11           0        2.161847   -2.227177   -0.853324
      4         11           0        2.478820    1.240180   -1.253852
      5         11           0        0.897903    3.398500    0.760373
      6         11           0       -1.489798   -2.096958   -0.517084
      7         11           0       -4.091925    0.595320   -0.466230
 ---------------------------------------------------------------------

 SCF Done:  E(UB3LYP) =  -1136.12705789     A.U. after   21 cycles

 The electronic state is 2-A.
 Alpha  occ. eigenvalues --  -38.44377 -38.44014 -38.43979 -38.43843 -38.43763
 Alpha  occ. eigenvalues --  -38.43677 -38.42970  -2.20227  -2.19866  -2.19759
 Alpha  occ. eigenvalues --   -2.19684  -2.19610  -2.19520  -2.18945  -1.13970
 Alpha  occ. eigenvalues --   -1.13910  -1.13797  -1.13520  -1.13510  -1.13480
 Alpha  occ. eigenvalues --   -1.13428  -1.13424  -1.13380  -1.13369  -1.13350
 Alpha  occ. eigenvalues --   -1.13330  -1.13309  -1.13246  -1.13213  -1.13196
 Alpha  occ. eigenvalues --   -1.13174  -1.13141  -1.12665  -1.12621  -1.12542
 Alpha  occ. eigenvalues --   -0.17774  -0.13074  -0.12730  -0.10558
 Alpha virt. eigenvalues --   -0.06044  -0.05283  -0.04840  -0.03216  -0.02895
 Alpha virt. eigenvalues --   -0.02174  -0.01791  -0.01386  -0.00561  -0.00268
 Alpha virt. eigenvalues --   -0.00244   0.00234   0.00402   0.00676   0.00749

  Beta  occ. eigenvalues --  -38.44373 -38.43971 -38.43937 -38.43805 -38.43748
  Beta  occ. eigenvalues --  -38.43647 -38.42957  -2.20222  -2.19744  -2.19723
  Beta  occ. eigenvalues --   -2.19616  -2.19581  -2.19468  -2.18925  -1.13969
  Beta  occ. eigenvalues --   -1.13888  -1.13795  -1.13419  -1.13416  -1.13414
  Beta  occ. eigenvalues --   -1.13413  -1.13387  -1.13369  -1.13326  -1.13308
  Beta  occ. eigenvalues --   -1.13291  -1.13271  -1.13224  -1.13182  -1.13160
  Beta  occ. eigenvalues --   -1.13138  -1.13084  -1.12643  -1.12588  -1.12534
  Beta  occ. eigenvalues --   -0.17210  -0.12883  -0.12351
  Beta virt. eigenvalues --   -0.06949  -0.05757  -0.05053  -0.04519  -0.02813
  Beta virt. eigenvalues --   -0.02412  -0.01833  -0.01387  -0.01274  -0.00419
  Beta virt. eigenvalues --   -0.00092  -0.00005   0.00331   0.00596   0.00720

 Mulliken charges and spin densities:
               1          2
     1  Na  -3.163865   0.346460
     2  Na   0.296200   0.192885
     3  Na   0.047419   0.251533
     4  Na   0.172453   0.098122
     5  Na   1.165065  -0.041731
     6  Na   0.928217   0.160245
     7  Na   0.554510  -0.007514
 Sum of Mulliken charges =  -0.00000   1.00000

 Dipole moment (field-independent basis, Debye):
    X=             -0.2121    Y=             -0.0164    Z=              0.3546  Tot=              0.4135
 Quadrupole moment (field-independent basis, Debye-Ang):
   XX=            -61.4587   YY=            -60.5940   ZZ=            -70.7794
   XY=             -0.4618   XZ=              1.0325   YZ=              2.3917

 Normal termination of Gaussian 16 at Tue Nov 28 19:28:54 2023.
