 Gaussian 16, Revision B.01,
 Gaussian 16:  ES64L-G16RevB.01 20-Dec-2017

 -------------------------
 #P B3LYP/6-311+g(d) force
 -------------------------

 -----
 DPGEN
 -----
 Symbolic Z-matrix:
 Charge =  0 Multiplicity = 2

                         Standard orientation:
 ---------------------------------------------------------------------
 Center     Atomic      Atomic             Coordinates (Angstroms)
 Number     Number       Type             X           Y           Z
 ---------------------------------------------------------------------
      1         11           0       -0.351391   -0.158238    1.894332
      2         11           0        1.074293    2.886514   -0.166283
      3         11           0       -2.321163    1.836139    0.089788
      4         11           0       -0.207146   -0.038728   -1.791582
      5         11           0        1.140332   -2.780406   -0.146259
      6         11           0       -2.504220   -1.727198   -0.082495
      7         11           0        3.169295   -0.018082    0.202499
 ---------------------------------------------------------------------

 SCF Done:  E(UB3LYP) =  -1136.14027311     A.U. after   19 cycles

 The electronic state is 2-A.
 Alpha  occ. eigenvalues --  -38.43865 -38.43749 -38.43682 -38.43590 -38.43536
 Alpha  occ. eigenvalues --  -38.43427 -38.43261  -2.19669  -2.19615  -2.19552
 Alpha  occ. eigenvalues --   -2.19426  -2.19353  -2.19347  -2.19207  -1.13342
 Alpha  occ. eigenvalues --   -1.13332  -1.13320  -1.13310  -1.13296  -1.13253
 Alpha  occ. eigenvalues --   -1.13238  -1.13226  -1.13171  -1.13108  -1.13095
 Alpha  occ. eigenvalues --   -1.13055  -1.13029  -1.13020  -1.13010  -1.12990
 Alpha  occ. eigenvalues --   -1.12970  -1.12965  -1.12880  -1.12833  -1.12824
 Alpha  occ. eigenvalues --   -0.18633  -0.12901  -0.12581  -0.10675
 Alpha virt. eigenvalues --   -0.05417  -0.05322  -0.04918  -0.03094  -0.02923
 Alpha virt. eigenvalues --   -0.02508  -0.01362  -0.01215  -0.00492  -0.00391
 Alpha virt. eigenvalues --   -0.00002   0.00367   0.00848   0.00868   0.00885

  Beta  occ. eigenvalues --  -38.43864 -38.43742 -38.43675 -38.43586 -38.43535
  Beta  occ. eigenvalues --  -38.43343 -38.43183  -2.19670  -2.19606  -2.19542
  Beta  occ. eigenvalues --   -2.19421  -2.19350  -2.19196  -2.19064  -1.13333
  Beta  occ. eigenvalues --   -1.13329  -1.13322  -1.13305  -1.13257  -1.13245
  Beta  occ. eigenvalues --   -1.13229  -1.13190  -1.13168  -1.13100  -1.13073
  Beta  occ. eigenvalues --   -1.13054  -1.13019  -1.13003  -1.12993  -1.12918
  Beta  occ. eigenvalues --   -1.12864  -1.12853  -1.12786  -1.12731  -1.12719
  Beta  occ. eigenvalues --   -0.17893  -0.12675  -0.12343
  Beta virt. eigenvalues --   -0.06764  -0.05416  -0.05303  -0.04850  -0.02315
  Beta virt. eigenvalues --   -0.02153  -0.01459  -0.01278  -0.01139  -0.00538
  Beta virt. eigenvalues --   -0.00460   0.00134   0.00396   0.00863   0.00875

 Mulliken charges and spin densities:
               1          2
     1  Na  -0.297964   0.772378
     2  Na  -0.068290  -0.103284
     3  Na   0.239105  -0.082149
     4  Na  -0.164545   0.717117
     5  Na   0.049458  -0.114083
     6  Na   0.335507  -0.113679
     7  Na  -0.093270  -0.076302
 Sum of Mulliken charges =  -0.00000   1.00000

 Dipole moment (field-independent basis, Debye):
    X=             -0.0844    Y=             -0.0769    Z=              0.0437  Tot=              0.1223
 Quadrupole moment (field-independent basis, Debye-Ang):
   XX=            -58.0275   YY=            -60.6177   ZZ=            -74.7974
   XY=              0.3527   XZ=              0.4499   YZ=              0.2822

 Normal termination of Gaussian 16 at Thu Dec  7 20:01:11 2023.
