 Gaussian 16, Revision B.01,
 Gaussian 16:  ES64L-G16RevB.01 20-Dec-2017

 -------------------------
 #P B3LYP/6-311+g(d) force
 -------------------------

 -----
 DPGEN
 -----
 Symbolic Z-matrix:
 Charge =  0 Multiplicity = 2

                         Standard orientation:
 ---------------------------------------------------------------------
 Center     Atomic      Atomic             Coordinates (Angstroms)
 Number     Number       Type             X           Y           Z
 ---------------------------------------------------------------------
      1         11           0       -2.378375   -2.007720   -0.029494
      2         11           0        0.230688    0.116078    2.157328
      3         11           0        0.347305   -0.172412   -1.366850
      4         11           0        3.409300    0.294205   -0.232502
      5         11           0       -2.929512    1.432817   -0.291488
      6         11           0        0.973196   -2.660075   -0.115084
      7         11           0        0.347398    2.997107   -0.121910
 ---------------------------------------------------------------------

 SCF Done:  E(UB3LYP) =  -1136.13266991     A.U. after   19 cycles

 The electronic state is 2-A.
 Alpha  occ. eigenvalues --  -38.44509 -38.43967 -38.43725 -38.43654 -38.43626
 Alpha  occ. eigenvalues --  -38.43486 -38.43137  -2.20305  -2.19762  -2.19537
 Alpha  occ. eigenvalues --   -2.19531  -2.19486  -2.19353  -2.19167  -1.13987
 Alpha  occ. eigenvalues --   -1.13955  -1.13943  -1.13436  -1.13425  -1.13405
 Alpha  occ. eigenvalues --   -1.13376  -1.13227  -1.13208  -1.13181  -1.13164
 Alpha  occ. eigenvalues --   -1.13159  -1.13150  -1.13142  -1.13092  -1.13018
 Alpha  occ. eigenvalues --   -1.12971  -1.12965  -1.12837  -1.12795  -1.12760
 Alpha  occ. eigenvalues --   -0.18438  -0.12866  -0.12547  -0.10466
 Alpha virt. eigenvalues --   -0.06015  -0.05156  -0.04836  -0.02875  -0.02837
 Alpha virt. eigenvalues --   -0.02406  -0.01864  -0.01159  -0.00639  -0.00447
 Alpha virt. eigenvalues --   -0.00025   0.00300   0.00768   0.00809   0.00853

  Beta  occ. eigenvalues --  -38.44503 -38.43963 -38.43722 -38.43652 -38.43618
  Beta  occ. eigenvalues --  -38.43375 -38.43092  -2.20297  -2.19756  -2.19534
  Beta  occ. eigenvalues --   -2.19520  -2.19485  -2.19149  -2.19088  -1.13970
  Beta  occ. eigenvalues --   -1.13946  -1.13937  -1.13423  -1.13420  -1.13403
  Beta  occ. eigenvalues --   -1.13360  -1.13222  -1.13187  -1.13169  -1.13160
  Beta  occ. eigenvalues --   -1.13145  -1.13140  -1.13129  -1.13091  -1.12885
  Beta  occ. eigenvalues --   -1.12829  -1.12821  -1.12772  -1.12741  -1.12701
  Beta  occ. eigenvalues --   -0.17741  -0.12645  -0.12333
  Beta virt. eigenvalues --   -0.06534  -0.05963  -0.05147  -0.04778  -0.02197
  Beta virt. eigenvalues --   -0.02043  -0.01783  -0.01323  -0.01098  -0.00670
  Beta virt. eigenvalues --   -0.00489   0.00144   0.00351   0.00808   0.00820

 Mulliken charges and spin densities:
               1          2
     1  Na   0.134764   0.029119
     2  Na  -0.510411   0.741195
     3  Na  -0.633163   0.196910
     4  Na   0.300978  -0.021252
     5  Na   0.038155   0.010894
     6  Na   0.553181   0.068085
     7  Na   0.116495  -0.024950
 Sum of Mulliken charges =  -0.00000   1.00000

 Dipole moment (field-independent basis, Debye):
    X=              0.3342    Y=              0.1585    Z=              0.1828  Tot=              0.4126
 Quadrupole moment (field-independent basis, Debye-Ang):
   XX=            -54.0377   YY=            -61.9243   ZZ=            -76.3154
   XY=              0.7421   XZ=              0.1560   YZ=             -0.7200

 Normal termination of Gaussian 16 at Fri Dec  8 07:32:12 2023.
