 Gaussian 16, Revision B.01,
 Gaussian 16:  ES64L-G16RevB.01 20-Dec-2017

 -------------------------
 #P B3LYP/6-311+g(d) force
 -------------------------

 -----
 DPGEN
 -----
 Symbolic Z-matrix:
 Charge =  0 Multiplicity = 2

                         Standard orientation:
 ---------------------------------------------------------------------
 Center     Atomic      Atomic             Coordinates (Angstroms)
 Number     Number       Type             X           Y           Z
 ---------------------------------------------------------------------
      1         11           0       -0.191452    0.054666   -1.681572
      2         11           0        0.206222   -2.276439    0.184695
      3         11           0       -2.636425   -1.117857   -0.176837
      4         11           0       -1.690158    1.928209    0.302263
      5         11           0        0.324787    0.065940    1.848113
      6         11           0        1.302614    2.056374   -0.263384
      7         11           0        2.684412   -0.710894   -0.213279
 ---------------------------------------------------------------------

 SCF Done:  E(UB3LYP) =  -1136.11584614     A.U. after   20 cycles

 The electronic state is 2-A.
 Alpha  occ. eigenvalues --  -38.43737 -38.43601 -38.43561 -38.43505 -38.43229
 Alpha  occ. eigenvalues --  -38.43171 -38.43094  -2.19846  -2.19680  -2.19600
 Alpha  occ. eigenvalues --   -2.19504  -2.19241  -2.19225  -2.19171  -1.13613
 Alpha  occ. eigenvalues --   -1.13543  -1.13466  -1.13451  -1.13402  -1.13361
 Alpha  occ. eigenvalues --   -1.13303  -1.13255  -1.13219  -1.13178  -1.13150
 Alpha  occ. eigenvalues --   -1.13139  -1.12983  -1.12885  -1.12873  -1.12866
 Alpha  occ. eigenvalues --   -1.12855  -1.12833  -1.12801  -1.12760  -1.12739
 Alpha  occ. eigenvalues --   -0.20663  -0.13544  -0.12884  -0.11688
 Alpha virt. eigenvalues --   -0.05163  -0.04613  -0.04179  -0.03423  -0.03143
 Alpha virt. eigenvalues --   -0.02739  -0.01236  -0.00680  -0.00052   0.00337
 Alpha virt. eigenvalues --    0.00494   0.00563   0.00954   0.01065   0.01072

  Beta  occ. eigenvalues --  -38.43643 -38.43592 -38.43556 -38.43424 -38.43217
  Beta  occ. eigenvalues --  -38.43156 -38.43079  -2.19677  -2.19588  -2.19534
  Beta  occ. eigenvalues --   -2.19499  -2.19222  -2.19206  -2.19151  -1.13519
  Beta  occ. eigenvalues --   -1.13432  -1.13372  -1.13351  -1.13326  -1.13305
  Beta  occ. eigenvalues --   -1.13272  -1.13215  -1.13173  -1.13167  -1.13130
  Beta  occ. eigenvalues --   -1.13093  -1.12966  -1.12864  -1.12853  -1.12825
  Beta  occ. eigenvalues --   -1.12816  -1.12798  -1.12751  -1.12739  -1.12727
  Beta  occ. eigenvalues --   -0.19872  -0.13235  -0.12547
  Beta virt. eigenvalues --   -0.07576  -0.05160  -0.04604  -0.04190  -0.02552
  Beta virt. eigenvalues --   -0.02239  -0.01623  -0.01162  -0.00633   0.00087
  Beta virt. eigenvalues --    0.00350   0.00457   0.00522   0.00999   0.01050

 Mulliken charges and spin densities:
               1          2
     1  Na  -1.154392   0.453358
     2  Na   0.795233   0.082590
     3  Na   0.095709  -0.057960
     4  Na   0.435533   0.032313
     5  Na  -1.022514   0.499417
     6  Na   0.639419   0.032289
     7  Na   0.211011  -0.042007
 Sum of Mulliken charges =  -0.00000   1.00000

 Dipole moment (field-independent basis, Debye):
    X=             -0.1135    Y=              0.0074    Z=              0.1067  Tot=              0.1560
 Quadrupole moment (field-independent basis, Debye-Ang):
   XX=            -57.9134   YY=            -67.3160   ZZ=            -70.4590
   XY=             -0.0603   XZ=             -1.0155   YZ=              0.2682

 Normal termination of Gaussian 16 at Sat Dec  9 06:22:11 2023.
