 Gaussian 16, Revision B.01,
 Gaussian 16:  ES64L-G16RevB.01 20-Dec-2017

 -------------------------
 #P B3LYP/6-311+g(d) force
 -------------------------

 -----
 DPGEN
 -----
 Symbolic Z-matrix:
 Charge =  0 Multiplicity = 2

                         Standard orientation:
 ---------------------------------------------------------------------
 Center     Atomic      Atomic             Coordinates (Angstroms)
 Number     Number       Type             X           Y           Z
 ---------------------------------------------------------------------
      1         11           0       -0.210750   -0.133114   -1.781922
      2         11           0        0.150470   -0.171811    1.876047
      3         11           0        0.046118    2.503055    0.253609
      4         11           0        2.691959    0.961035   -0.148517
      5         11           0        1.744930   -1.971527   -0.270377
      6         11           0       -1.596127   -2.130489    0.327686
      7         11           0       -2.826600    0.942850   -0.256525
 ---------------------------------------------------------------------

 SCF Done:  E(UB3LYP) =  -1136.13168692     A.U. after   19 cycles

 The electronic state is 2-A.
 Alpha  occ. eigenvalues --  -38.43680 -38.43574 -38.43565 -38.43435 -38.43245
 Alpha  occ. eigenvalues --  -38.43212 -38.42924  -2.19613  -2.19572  -2.19507
 Alpha  occ. eigenvalues --   -2.19488  -2.19196  -2.19188  -2.18887  -1.13327
 Alpha  occ. eigenvalues --   -1.13296  -1.13295  -1.13249  -1.13223  -1.13220
 Alpha  occ. eigenvalues --   -1.13206  -1.13198  -1.13175  -1.13144  -1.13117
 Alpha  occ. eigenvalues --   -1.13096  -1.12875  -1.12855  -1.12845  -1.12835
 Alpha  occ. eigenvalues --   -1.12817  -1.12766  -1.12575  -1.12541  -1.12504
 Alpha  occ. eigenvalues --   -0.19907  -0.13370  -0.12676  -0.11443
 Alpha virt. eigenvalues --   -0.05276  -0.04811  -0.04233  -0.03416  -0.03081
 Alpha virt. eigenvalues --   -0.02796  -0.01300  -0.00812  -0.00064   0.00246
 Alpha virt. eigenvalues --    0.00303   0.00374   0.00901   0.01000   0.01022

  Beta  occ. eigenvalues --  -38.43675 -38.43559 -38.43483 -38.43356 -38.43232
  Beta  occ. eigenvalues --  -38.43199 -38.42914  -2.19565  -2.19501  -2.19447
  Beta  occ. eigenvalues --   -2.19344  -2.19178  -2.19171  -2.18873  -1.13275
  Beta  occ. eigenvalues --   -1.13244  -1.13221  -1.13209  -1.13205  -1.13195
  Beta  occ. eigenvalues --   -1.13150  -1.13126  -1.13103  -1.13090  -1.13025
  Beta  occ. eigenvalues --   -1.13005  -1.12851  -1.12834  -1.12816  -1.12796
  Beta  occ. eigenvalues --   -1.12784  -1.12756  -1.12564  -1.12512  -1.12487
  Beta  occ. eigenvalues --   -0.19136  -0.13078  -0.12372
  Beta virt. eigenvalues --   -0.07415  -0.05251  -0.04814  -0.04239  -0.02565
  Beta virt. eigenvalues --   -0.02222  -0.01689  -0.01217  -0.00760   0.00066
  Beta virt. eigenvalues --    0.00212   0.00251   0.00386   0.00956   0.00986

 Mulliken charges and spin densities:
               1          2
     1  Na  -0.725024   0.557428
     2  Na  -0.689029   0.568123
     3  Na   0.361615   0.000892
     4  Na   0.037395  -0.048117
     5  Na   0.506165   0.001132
     6  Na   0.422625  -0.020974
     7  Na   0.086253  -0.058484
 Sum of Mulliken charges =  -0.00000   1.00000

 Dipole moment (field-independent basis, Debye):
    X=             -0.1599    Y=             -0.0218    Z=             -0.0079  Tot=              0.1616
 Quadrupole moment (field-independent basis, Debye-Ang):
   XX=            -57.7932   YY=            -66.1713   ZZ=            -71.1603
   XY=             -0.0542   XZ=             -0.5859   YZ=             -0.0900

 Normal termination of Gaussian 16 at Fri Dec  8 01:05:22 2023.
