 Gaussian 16, Revision B.01,
 Gaussian 16:  ES64L-G16RevB.01 20-Dec-2017

 -------------------------
 #P B3LYP/6-311+g(d) force
 -------------------------

 -----
 DPGEN
 -----
 Symbolic Z-matrix:
 Charge =  0 Multiplicity = 2

                         Standard orientation:
 ---------------------------------------------------------------------
 Center     Atomic      Atomic             Coordinates (Angstroms)
 Number     Number       Type             X           Y           Z
 ---------------------------------------------------------------------
      1         11           0       -3.034058    1.361019    0.166465
      2         11           0        3.075991   -2.050382   -0.148701
      3         11           0       -0.072600   -0.483900    1.881463
      4         11           0        3.310667    1.111913    0.266472
      5         11           0        0.033206    2.496559   -0.402085
      6         11           0        0.160499   -0.501358   -1.622382
      7         11           0       -3.473705   -1.933850   -0.141233
 ---------------------------------------------------------------------

 SCF Done:  E(UB3LYP) =  -1136.11840048     A.U. after   26 cycles

 The electronic state is 2-A.
 Alpha  occ. eigenvalues --  -38.45436 -38.44880 -38.44608 -38.44302 -38.44173
 Alpha  occ. eigenvalues --  -38.43952 -38.42064  -2.21245  -2.20705  -2.20425
 Alpha  occ. eigenvalues --   -2.20066  -2.19987  -2.19832  -2.17952  -1.14914
 Alpha  occ. eigenvalues --   -1.14907  -1.14885  -1.14381  -1.14364  -1.14350
 Alpha  occ. eigenvalues --   -1.14126  -1.14060  -1.14022  -1.13747  -1.13732
 Alpha  occ. eigenvalues --   -1.13708  -1.13666  -1.13643  -1.13632  -1.13532
 Alpha  occ. eigenvalues --   -1.13479  -1.13426  -1.11648  -1.11607  -1.11596
 Alpha  occ. eigenvalues --   -0.18095  -0.13954  -0.11343  -0.10243
 Alpha virt. eigenvalues --   -0.07250  -0.06268  -0.03656  -0.03593  -0.02804
 Alpha virt. eigenvalues --   -0.02374  -0.02252  -0.01720  -0.01012  -0.00314
 Alpha virt. eigenvalues --   -0.00079   0.00124   0.00495   0.00501   0.00567

  Beta  occ. eigenvalues --  -38.45427 -38.44880 -38.44529 -38.44318 -38.44172
  Beta  occ. eigenvalues --  -38.43873 -38.42055  -2.21230  -2.20706  -2.20279
  Beta  occ. eigenvalues --   -2.20097  -2.19986  -2.19689  -2.17940  -1.14905
  Beta  occ. eigenvalues --   -1.14881  -1.14877  -1.14372  -1.14363  -1.14356
  Beta  occ. eigenvalues --   -1.14022  -1.13956  -1.13916  -1.13771  -1.13744
  Beta  occ. eigenvalues --   -1.13728  -1.13669  -1.13634  -1.13619  -1.13432
  Beta  occ. eigenvalues --   -1.13369  -1.13325  -1.11637  -1.11600  -1.11563
  Beta  occ. eigenvalues --   -0.17365  -0.13891  -0.11157
  Beta virt. eigenvalues --   -0.07050  -0.06378  -0.06250  -0.03670  -0.02922
  Beta virt. eigenvalues --   -0.02650  -0.01841  -0.01565  -0.01111  -0.01074
  Beta virt. eigenvalues --   -0.00152  -0.00009   0.00147   0.00571   0.00595

 Mulliken charges and spin densities:
               1          2
     1  Na   0.185227   0.024791
     2  Na   0.342709  -0.006852
     3  Na  -0.413243   0.517420
     4  Na   0.125904   0.100613
     5  Na   0.047441  -0.022080
     6  Na  -0.479284   0.492071
     7  Na   0.191247  -0.105963
 Sum of Mulliken charges =  -0.00000   1.00000

 Dipole moment (field-independent basis, Debye):
    X=              0.3294    Y=              0.0109    Z=              0.2104  Tot=              0.3910
 Quadrupole moment (field-independent basis, Debye-Ang):
   XX=            -48.3688   YY=            -67.9748   ZZ=            -77.5433
   XY=              0.1729   XZ=              0.5596   YZ=              0.7350

 Normal termination of Gaussian 16 at Thu Dec  7 19:10:27 2023.
