 Gaussian 16, Revision B.01,
 Gaussian 16:  ES64L-G16RevB.01 20-Dec-2017

 -------------------------
 #P B3LYP/6-311+g(d) force
 -------------------------

 -----
 DPGEN
 -----
 Symbolic Z-matrix:
 Charge =  0 Multiplicity = 2

                         Standard orientation:
 ---------------------------------------------------------------------
 Center     Atomic      Atomic             Coordinates (Angstroms)
 Number     Number       Type             X           Y           Z
 ---------------------------------------------------------------------
      1         11           0       -2.167169   -2.054064   -0.169343
      2         11           0        1.437286   -2.301010   -0.191471
      3         11           0        3.222152    0.383063    0.115128
      4         11           0       -0.143848   -0.285919    1.757470
      5         11           0        0.060127    2.871144    0.126021
      6         11           0        0.304196    0.387693   -1.544766
      7         11           0       -2.712745    0.999092   -0.093038
 ---------------------------------------------------------------------

 SCF Done:  E(UB3LYP) =  -1136.13424376     A.U. after   21 cycles

 The electronic state is 2-A.
 Alpha  occ. eigenvalues --  -38.44405 -38.43799 -38.43449 -38.43389 -38.43257
 Alpha  occ. eigenvalues --  -38.42997 -38.42902  -2.20245  -2.19718  -2.19339
 Alpha  occ. eigenvalues --   -2.19312  -2.19149  -2.18994  -2.18952  -1.13923
 Alpha  occ. eigenvalues --   -1.13905  -1.13886  -1.13424  -1.13378  -1.13369
 Alpha  occ. eigenvalues --   -1.13040  -1.13010  -1.12994  -1.12986  -1.12980
 Alpha  occ. eigenvalues --   -1.12921  -1.12919  -1.12803  -1.12766  -1.12691
 Alpha  occ. eigenvalues --   -1.12616  -1.12610  -1.12595  -1.12562  -1.12552
 Alpha  occ. eigenvalues --   -0.19302  -0.13472  -0.12575  -0.10472
 Alpha virt. eigenvalues --   -0.05882  -0.04959  -0.04626  -0.03187  -0.02725
 Alpha virt. eigenvalues --   -0.02064  -0.01731  -0.01023  -0.00250  -0.00156
 Alpha virt. eigenvalues --    0.00036   0.00356   0.00822   0.00904   0.00932

  Beta  occ. eigenvalues --  -38.44403 -38.43792 -38.43443 -38.43378 -38.43251
  Beta  occ. eigenvalues --  -38.42914 -38.42837  -2.20244  -2.19708  -2.19332
  Beta  occ. eigenvalues --   -2.19297  -2.19142  -2.18842  -2.18835  -1.13921
  Beta  occ. eigenvalues --   -1.13894  -1.13879  -1.13421  -1.13370  -1.13334
  Beta  occ. eigenvalues --   -1.13031  -1.13005  -1.12983  -1.12955  -1.12938
  Beta  occ. eigenvalues --   -1.12915  -1.12902  -1.12774  -1.12762  -1.12600
  Beta  occ. eigenvalues --   -1.12524  -1.12505  -1.12488  -1.12483  -1.12466
  Beta  occ. eigenvalues --   -0.18568  -0.13211  -0.12319
  Beta virt. eigenvalues --   -0.06546  -0.05848  -0.04961  -0.04607  -0.02370
  Beta virt. eigenvalues --   -0.01947  -0.01649  -0.01049  -0.00961  -0.00296
  Beta virt. eigenvalues --   -0.00200   0.00174   0.00386   0.00855   0.00903

 Mulliken charges and spin densities:
               1          2
     1  Na   0.169697  -0.006858
     2  Na   0.257262  -0.030761
     3  Na   0.128129  -0.080704
     4  Na  -0.516680   0.697156
     5  Na   0.174106  -0.095264
     6  Na  -0.488582   0.506285
     7  Na   0.276068   0.010147
 Sum of Mulliken charges =  -0.00000   1.00000

 Dipole moment (field-independent basis, Debye):
    X=              0.3628    Y=              0.0838    Z=              0.1199  Tot=              0.3912
 Quadrupole moment (field-independent basis, Debye-Ang):
   XX=            -53.7252   YY=            -62.6896   ZZ=            -75.8351
   XY=              0.8763   XZ=              1.1232   YZ=              1.5866

 Normal termination of Gaussian 16 at Wed Nov 29 03:42:13 2023.
