 Gaussian 16, Revision B.01,
 Gaussian 16:  ES64L-G16RevB.01 20-Dec-2017

 -------------------------
 #P B3LYP/6-311+g(d) force
 -------------------------

 -----
 DPGEN
 -----
 Symbolic Z-matrix:
 Charge =  0 Multiplicity = 2

                         Standard orientation:
 ---------------------------------------------------------------------
 Center     Atomic      Atomic             Coordinates (Angstroms)
 Number     Number       Type             X           Y           Z
 ---------------------------------------------------------------------
      1         11           0        4.389817    0.053221    0.380470
      2         11           0        2.428314    2.141313    0.807432
      3         11           0        2.424723   -3.037136   -0.573242
      4         11           0       -0.859225    3.381197   -0.716805
      5         11           0       -1.434852   -2.592187   -0.529194
      6         11           0       -4.088749   -1.033500    1.473486
      7         11           0       -2.860027    1.087093   -0.842147
 ---------------------------------------------------------------------

 SCF Done:  E(UB3LYP) =  -1136.11048699     A.U. after   21 cycles

 The electronic state is 2-A.
 Alpha  occ. eigenvalues --  -38.45130 -38.44676 -38.44655 -38.44500 -38.44441
 Alpha  occ. eigenvalues --  -38.44288 -38.43309  -2.20874  -2.20497  -2.20469
 Alpha  occ. eigenvalues --   -2.20289  -2.20258  -2.20126  -2.19136  -1.14578
 Alpha  occ. eigenvalues --   -1.14566  -1.14476  -1.14268  -1.14151  -1.14135
 Alpha  occ. eigenvalues --   -1.14128  -1.14116  -1.14077  -1.13976  -1.13971
 Alpha  occ. eigenvalues --   -1.13928  -1.13917  -1.13908  -1.13881  -1.13774
 Alpha  occ. eigenvalues --   -1.13766  -1.13732  -1.12818  -1.12780  -1.12761
 Alpha  occ. eigenvalues --   -0.16016  -0.14305  -0.12880  -0.10999
 Alpha virt. eigenvalues --   -0.06855  -0.05685  -0.03931  -0.03489  -0.03363
 Alpha virt. eigenvalues --   -0.02394  -0.02287  -0.01545  -0.01290  -0.00926
 Alpha virt. eigenvalues --   -0.00549  -0.00050   0.00039   0.00495   0.00635

  Beta  occ. eigenvalues --  -38.45121 -38.44648 -38.44588 -38.44448 -38.44421
  Beta  occ. eigenvalues --  -38.44260 -38.43277  -2.20860  -2.20450  -2.20344
  Beta  occ. eigenvalues --   -2.20259  -2.20163  -2.20081  -2.19080  -1.14572
  Beta  occ. eigenvalues --   -1.14561  -1.14434  -1.14220  -1.14122  -1.14090
  Beta  occ. eigenvalues --   -1.14051  -1.14030  -1.13998  -1.13956  -1.13947
  Beta  occ. eigenvalues --   -1.13868  -1.13864  -1.13845  -1.13811  -1.13739
  Beta  occ. eigenvalues --   -1.13736  -1.13692  -1.12771  -1.12742  -1.12726
  Beta  occ. eigenvalues --   -0.15534  -0.13690  -0.12086
  Beta virt. eigenvalues --   -0.07787  -0.06920  -0.05221  -0.03725  -0.03131
  Beta virt. eigenvalues --   -0.03025  -0.02123  -0.01989  -0.01313  -0.01028
  Beta virt. eigenvalues --   -0.00758  -0.00265   0.00153   0.00258   0.00522

 Mulliken charges and spin densities:
               1          2
     1  Na   0.110469  -0.033708
     2  Na  -0.458880   0.171658
     3  Na  -0.100722   0.260177
     4  Na   0.396542   0.150504
     5  Na  -0.145797   0.073231
     6  Na   0.611733   0.340560
     7  Na  -0.413346   0.037577
 Sum of Mulliken charges =  -0.00000   1.00000

 Dipole moment (field-independent basis, Debye):
    X=             -0.4795    Y=             -0.5662    Z=              0.5250  Tot=              0.9089
 Quadrupole moment (field-independent basis, Debye-Ang):
   XX=            -59.1277   YY=            -70.6195   ZZ=            -69.7733
   XY=             -0.8741   XZ=             -2.4942   YZ=              0.9743

 Normal termination of Gaussian 16 at Mon Dec  4 02:00:52 2023.
