 Gaussian 16, Revision B.01,
 Gaussian 16:  ES64L-G16RevB.01 20-Dec-2017

 -------------------------
 #P B3LYP/6-311+g(d) force
 -------------------------

 -----
 DPGEN
 -----
 Symbolic Z-matrix:
 Charge =  0 Multiplicity = 2

                         Standard orientation:
 ---------------------------------------------------------------------
 Center     Atomic      Atomic             Coordinates (Angstroms)
 Number     Number       Type             X           Y           Z
 ---------------------------------------------------------------------
      1         11           0       -2.864668   -1.362247   -0.168292
      2         11           0        0.292553   -0.440416    1.833070
      3         11           0        3.200301   -0.563901   -0.451928
      4         11           0        0.429504   -2.881487    0.029469
      5         11           0       -1.932552    2.096871    0.319573
      6         11           0       -0.433215    0.459981   -1.766474
      7         11           0        1.308079    2.691200    0.204582
 ---------------------------------------------------------------------

 SCF Done:  E(UB3LYP) =  -1136.13668759     A.U. after   19 cycles

 The electronic state is 2-A.
 Alpha  occ. eigenvalues --  -38.44015 -38.43752 -38.43703 -38.43602 -38.43598
 Alpha  occ. eigenvalues --  -38.43379 -38.43338  -2.19806  -2.19578  -2.19563
 Alpha  occ. eigenvalues --   -2.19504  -2.19447  -2.19326  -2.19268  -1.13479
 Alpha  occ. eigenvalues --   -1.13458  -1.13452  -1.13324  -1.13280  -1.13257
 Alpha  occ. eigenvalues --   -1.13239  -1.13226  -1.13213  -1.13173  -1.13164
 Alpha  occ. eigenvalues --   -1.13144  -1.13117  -1.13103  -1.13058  -1.12988
 Alpha  occ. eigenvalues --   -1.12946  -1.12931  -1.12926  -1.12897  -1.12871
 Alpha  occ. eigenvalues --   -0.18607  -0.12934  -0.12663  -0.10562
 Alpha virt. eigenvalues --   -0.05528  -0.05193  -0.04951  -0.03231  -0.02955
 Alpha virt. eigenvalues --   -0.02317  -0.01458  -0.01176  -0.00446  -0.00345
 Alpha virt. eigenvalues --   -0.00001   0.00362   0.00825   0.00870   0.00880

  Beta  occ. eigenvalues --  -38.44005 -38.43749 -38.43698 -38.43592 -38.43592
  Beta  occ. eigenvalues --  -38.43312 -38.43261  -2.19789  -2.19574  -2.19556
  Beta  occ. eigenvalues --   -2.19490  -2.19440  -2.19203  -2.19128  -1.13455
  Beta  occ. eigenvalues --   -1.13448  -1.13440  -1.13303  -1.13263  -1.13242
  Beta  occ. eigenvalues --   -1.13234  -1.13214  -1.13195  -1.13164  -1.13150
  Beta  occ. eigenvalues --   -1.13127  -1.13100  -1.13086  -1.13051  -1.12909
  Beta  occ. eigenvalues --   -1.12865  -1.12840  -1.12836  -1.12796  -1.12774
  Beta  occ. eigenvalues --   -0.17896  -0.12695  -0.12423
  Beta virt. eigenvalues --   -0.06740  -0.05459  -0.05202  -0.04831  -0.02460
  Beta virt. eigenvalues --   -0.02229  -0.01377  -0.01316  -0.01094  -0.00482
  Beta virt. eigenvalues --   -0.00386   0.00136   0.00393   0.00857   0.00876

 Mulliken charges and spin densities:
               1          2
     1  Na   0.106617  -0.104903
     2  Na  -0.176496   0.559351
     3  Na  -0.099261  -0.015595
     4  Na   0.156202  -0.080338
     5  Na   0.257156  -0.025726
     6  Na  -0.309356   0.711889
     7  Na   0.065139  -0.044677
 Sum of Mulliken charges =  -0.00000   1.00000

 Dipole moment (field-independent basis, Debye):
    X=              0.0691    Y=             -0.0666    Z=             -0.0216  Tot=              0.0984
 Quadrupole moment (field-independent basis, Debye-Ang):
   XX=            -57.6083   YY=            -61.1982   ZZ=            -74.6194
   XY=              0.8259   XZ=             -1.6195   YZ=              1.9443

 Normal termination of Gaussian 16 at Thu Dec  7 08:15:29 2023.
