 Gaussian 16, Revision B.01,
 Gaussian 16:  ES64L-G16RevB.01 20-Dec-2017

 -------------------------
 #P B3LYP/6-311+g(d) force
 -------------------------

 -----
 DPGEN
 -----
 Symbolic Z-matrix:
 Charge =  0 Multiplicity = 2

                         Standard orientation:
 ---------------------------------------------------------------------
 Center     Atomic      Atomic             Coordinates (Angstroms)
 Number     Number       Type             X           Y           Z
 ---------------------------------------------------------------------
      1         11           0        1.079750   -3.110195    0.018699
      2         11           0        4.154786   -1.129082    0.070818
      3         11           0        2.951042    2.688874   -0.117352
      4         11           0        0.524273    0.365023    0.445836
      5         11           0       -1.618301    3.238276   -0.437254
      6         11           0       -4.263655    0.447076    0.595512
      7         11           0       -2.827896   -2.499972   -0.576258
 ---------------------------------------------------------------------

 SCF Done:  E(UB3LYP) =  -1136.11505500     A.U. after   22 cycles

 The electronic state is 2-A.
 Alpha  occ. eigenvalues --  -38.45137 -38.44751 -38.44621 -38.44328 -38.44255
 Alpha  occ. eigenvalues --  -38.44219 -38.43364  -2.20896  -2.20515  -2.20375
 Alpha  occ. eigenvalues --   -2.20103  -2.20039  -2.20017  -2.19168  -1.14584
 Alpha  occ. eigenvalues --   -1.14539  -1.14526  -1.14197  -1.14188  -1.14128
 Alpha  occ. eigenvalues --   -1.14061  -1.14041  -1.14007  -1.13775  -1.13763
 Alpha  occ. eigenvalues --   -1.13745  -1.13733  -1.13695  -1.13688  -1.13673
 Alpha  occ. eigenvalues --   -1.13649  -1.13633  -1.12837  -1.12830  -1.12791
 Alpha  occ. eigenvalues --   -0.16252  -0.13628  -0.12567  -0.09974
 Alpha virt. eigenvalues --   -0.07336  -0.05522  -0.04346  -0.03583  -0.03053
 Alpha virt. eigenvalues --   -0.02488  -0.02018  -0.01944  -0.01244  -0.00505
 Alpha virt. eigenvalues --   -0.00130   0.00202   0.00242   0.00333   0.00619

  Beta  occ. eigenvalues --  -38.45113 -38.44729 -38.44603 -38.44282 -38.44213
  Beta  occ. eigenvalues --  -38.44208 -38.43329  -2.20852  -2.20476  -2.20347
  Beta  occ. eigenvalues --   -2.20020  -2.20019  -2.19939  -2.19105  -1.14556
  Beta  occ. eigenvalues --   -1.14512  -1.14477  -1.14173  -1.14166  -1.14082
  Beta  occ. eigenvalues --   -1.14046  -1.14026  -1.13955  -1.13749  -1.13721
  Beta  occ. eigenvalues --   -1.13693  -1.13683  -1.13658  -1.13641  -1.13634
  Beta  occ. eigenvalues --   -1.13605  -1.13587  -1.12793  -1.12784  -1.12754
  Beta  occ. eigenvalues --   -0.15850  -0.12866  -0.12112
  Beta virt. eigenvalues --   -0.07389  -0.06817  -0.05270  -0.03959  -0.03299
  Beta virt. eigenvalues --   -0.02433  -0.02273  -0.01884  -0.01724  -0.01102
  Beta virt. eigenvalues --   -0.00290   0.00038   0.00282   0.00385   0.00475

 Mulliken charges and spin densities:
               1          2
     1  Na   0.214666   0.057871
     2  Na   0.677664   0.228517
     3  Na   0.662503   0.201380
     4  Na  -2.113126  -0.074519
     5  Na   0.357848   0.152551
     6  Na   0.053908   0.319851
     7  Na   0.146539   0.114348
 Sum of Mulliken charges =  -0.00000   1.00000

 Dipole moment (field-independent basis, Debye):
    X=              0.7363    Y=              0.3202    Z=             -0.2533  Tot=              0.8419
 Quadrupole moment (field-independent basis, Debye-Ang):
   XX=            -64.1442   YY=            -59.6993   ZZ=            -72.4488
   XY=             -5.9076   XZ=             -0.4030   YZ=              0.5035

 Normal termination of Gaussian 16 at Fri Dec  8 17:23:04 2023.
