 Gaussian 16, Revision B.01,
 Gaussian 16:  ES64L-G16RevB.01 20-Dec-2017

 -------------------------
 #P B3LYP/6-311+g(d) force
 -------------------------

 -----
 DPGEN
 -----
 Symbolic Z-matrix:
 Charge =  0 Multiplicity = 2

                         Standard orientation:
 ---------------------------------------------------------------------
 Center     Atomic      Atomic             Coordinates (Angstroms)
 Number     Number       Type             X           Y           Z
 ---------------------------------------------------------------------
      1         11           0       -3.159121    0.812082   -0.003880
      2         11           0       -0.456314   -0.281858   -1.613587
      3         11           0        2.118406   -1.996917   -0.181174
      4         11           0        0.308337    0.038052    1.777103
      5         11           0       -1.514775   -2.501267    0.241204
      6         11           0       -0.058865    2.831836   -0.021075
      7         11           0        2.762332    1.098071   -0.198592
 ---------------------------------------------------------------------

 SCF Done:  E(UB3LYP) =  -1136.13729558     A.U. after   21 cycles

 The electronic state is 2-A.
 Alpha  occ. eigenvalues --  -38.44307 -38.43678 -38.43644 -38.43519 -38.43260
 Alpha  occ. eigenvalues --  -38.43010 -38.42997  -2.20120  -2.19579  -2.19517
 Alpha  occ. eigenvalues --   -2.19414  -2.19130  -2.19001  -2.18992  -1.13803
 Alpha  occ. eigenvalues --   -1.13774  -1.13758  -1.13290  -1.13246  -1.13244
 Alpha  occ. eigenvalues --   -1.13231  -1.13183  -1.13131  -1.13082  -1.13075
 Alpha  occ. eigenvalues --   -1.13034  -1.12829  -1.12802  -1.12756  -1.12702
 Alpha  occ. eigenvalues --   -1.12651  -1.12630  -1.12612  -1.12608  -1.12604
 Alpha  occ. eigenvalues --   -0.19056  -0.13255  -0.12603  -0.10465
 Alpha virt. eigenvalues --   -0.05783  -0.05160  -0.04640  -0.03152  -0.02770
 Alpha virt. eigenvalues --   -0.02149  -0.01625  -0.01120  -0.00319  -0.00275
 Alpha virt. eigenvalues --    0.00026   0.00357   0.00818   0.00880   0.00925

  Beta  occ. eigenvalues --  -38.44306 -38.43671 -38.43636 -38.43510 -38.43255
  Beta  occ. eigenvalues --  -38.42933 -38.42927  -2.20120  -2.19569  -2.19506
  Beta  occ. eigenvalues --   -2.19402  -2.19124  -2.18884  -2.18839  -1.13792
  Beta  occ. eigenvalues --   -1.13766  -1.13762  -1.13288  -1.13241  -1.13233
  Beta  occ. eigenvalues --   -1.13196  -1.13147  -1.13127  -1.13077  -1.13037
  Beta  occ. eigenvalues --   -1.13025  -1.12821  -1.12771  -1.12754  -1.12618
  Beta  occ. eigenvalues --   -1.12556  -1.12547  -1.12524  -1.12502  -1.12493
  Beta  occ. eigenvalues --   -0.18331  -0.13012  -0.12340
  Beta virt. eigenvalues --   -0.06563  -0.05751  -0.05138  -0.04628  -0.02359
  Beta virt. eigenvalues --   -0.01989  -0.01550  -0.01126  -0.01049  -0.00369
  Beta virt. eigenvalues --   -0.00323   0.00162   0.00390   0.00844   0.00893

 Mulliken charges and spin densities:
               1          2
     1  Na   0.077199  -0.116668
     2  Na  -0.395012   0.601758
     3  Na   0.331424   0.000997
     4  Na  -0.396121   0.712037
     5  Na   0.172161  -0.100255
     6  Na   0.097373  -0.105499
     7  Na   0.112975   0.007630
 Sum of Mulliken charges =  -0.00000   1.00000

 Dipole moment (field-independent basis, Debye):
    X=             -0.3869    Y=             -0.0267    Z=              0.0670  Tot=              0.3936
 Quadrupole moment (field-independent basis, Debye-Ang):
   XX=            -54.7078   YY=            -61.8829   ZZ=            -75.7314
   XY=             -0.3361   XZ=             -1.6670   YZ=             -0.7112

 Normal termination of Gaussian 16 at Fri Dec  8 06:48:32 2023.
