 Gaussian 16, Revision B.01,
 Gaussian 16:  ES64L-G16RevB.01 20-Dec-2017

 -------------------------
 #P B3LYP/6-311+g(d) force
 -------------------------

 -----
 DPGEN
 -----
 Symbolic Z-matrix:
 Charge =  0 Multiplicity = 2

                         Standard orientation:
 ---------------------------------------------------------------------
 Center     Atomic      Atomic             Coordinates (Angstroms)
 Number     Number       Type             X           Y           Z
 ---------------------------------------------------------------------
      1         11           0        2.960366   -2.196843   -0.415999
      2         11           0       -2.563936    0.982740    1.701337
      3         11           0       -0.752083    3.574212   -0.990942
      4         11           0        1.835592    1.723297   -0.926649
      5         11           0       -0.723644   -2.166182   -1.396682
      6         11           0       -4.038120   -1.813186    0.153006
      7         11           0        3.281825   -0.104037    1.875928
 ---------------------------------------------------------------------

 SCF Done:  E(UB3LYP) =  -1136.11417985     A.U. after   20 cycles

 The electronic state is 2-A.
 Alpha  occ. eigenvalues --  -38.45251 -38.44546 -38.44386 -38.44298 -38.44272
 Alpha  occ. eigenvalues --  -38.44183 -38.43345  -2.21001  -2.20352  -2.20225
 Alpha  occ. eigenvalues --   -2.20060  -2.20046  -2.19991  -2.19138  -1.14679
 Alpha  occ. eigenvalues --   -1.14650  -1.14612  -1.14073  -1.14019  -1.14005
 Alpha  occ. eigenvalues --   -1.13866  -1.13860  -1.13825  -1.13738  -1.13722
 Alpha  occ. eigenvalues --   -1.13714  -1.13712  -1.13704  -1.13679  -1.13669
 Alpha  occ. eigenvalues --   -1.13644  -1.13614  -1.12806  -1.12795  -1.12778
 Alpha  occ. eigenvalues --   -0.16229  -0.13711  -0.12334  -0.10740
 Alpha virt. eigenvalues --   -0.06656  -0.05279  -0.05239  -0.03361  -0.03135
 Alpha virt. eigenvalues --   -0.02410  -0.01998  -0.01469  -0.01085  -0.00660
 Alpha virt. eigenvalues --   -0.00384  -0.00195   0.00127   0.00417   0.00531

  Beta  occ. eigenvalues --  -38.45203 -38.44544 -38.44325 -38.44309 -38.44198
  Beta  occ. eigenvalues --  -38.44168 -38.43340  -2.20912  -2.20355  -2.20109
  Beta  occ. eigenvalues --   -2.20082  -2.19965  -2.19909  -2.19129  -1.14618
  Beta  occ. eigenvalues --   -1.14590  -1.14549  -1.14057  -1.14024  -1.13980
  Beta  occ. eigenvalues --   -1.13786  -1.13780  -1.13760  -1.13755  -1.13732
  Beta  occ. eigenvalues --   -1.13715  -1.13655  -1.13648  -1.13620  -1.13611
  Beta  occ. eigenvalues --   -1.13592  -1.13551  -1.12793  -1.12791  -1.12773
  Beta  occ. eigenvalues --   -0.15657  -0.13318  -0.11975
  Beta virt. eigenvalues --   -0.07401  -0.06391  -0.05046  -0.04730  -0.03128
  Beta virt. eigenvalues --   -0.02671  -0.02119  -0.01728  -0.01421  -0.00810
  Beta virt. eigenvalues --   -0.00451  -0.00224   0.00028   0.00314   0.00511

 Mulliken charges and spin densities:
               1          2
     1  Na   0.255742  -0.030334
     2  Na  -0.243492   0.285940
     3  Na   0.191115  -0.065694
     4  Na  -0.455559   0.150160
     5  Na  -0.356199   0.365085
     6  Na   0.440234  -0.035499
     7  Na   0.168159   0.330341
 Sum of Mulliken charges =  -0.00000   1.00000

 Dipole moment (field-independent basis, Debye):
    X=             -0.1156    Y=             -0.3872    Z=              0.6091  Tot=              0.7309
 Quadrupole moment (field-independent basis, Debye-Ang):
   XX=            -61.5361   YY=            -69.5883   ZZ=            -68.3514
   XY=             -1.6746   XZ=              0.0695   YZ=              2.5811

 Normal termination of Gaussian 16 at Sun Dec  3 13:50:23 2023.
