 Gaussian 16, Revision B.01,
 Gaussian 16:  ES64L-G16RevB.01 20-Dec-2017

 -------------------------
 #P B3LYP/6-311+g(d) force
 -------------------------

 -----
 DPGEN
 -----
 Symbolic Z-matrix:
 Charge =  0 Multiplicity = 2

                         Standard orientation:
 ---------------------------------------------------------------------
 Center     Atomic      Atomic             Coordinates (Angstroms)
 Number     Number       Type             X           Y           Z
 ---------------------------------------------------------------------
      1         11           0        2.431401   -0.327157   -1.050302
      2         11           0       -3.649036   -0.260518    0.445152
      3         11           0       -0.930190   -1.320633   -1.350877
      4         11           0        1.697420    2.828341    0.637000
      5         11           0       -1.044507    2.029892   -0.958898
      6         11           0        0.013984   -0.207472    1.727922
      7         11           0        1.480927   -2.742454    0.550003
 ---------------------------------------------------------------------

 SCF Done:  E(UB3LYP) =  -1136.13433882     A.U. after   19 cycles

 The electronic state is 2-A.
 Alpha  occ. eigenvalues --  -38.44212 -38.43947 -38.43669 -38.43495 -38.43422
 Alpha  occ. eigenvalues --  -38.43302 -38.43171  -2.20002  -2.19839  -2.19536
 Alpha  occ. eigenvalues --   -2.19411  -2.19364  -2.19242  -2.19003  -1.13676
 Alpha  occ. eigenvalues --   -1.13663  -1.13636  -1.13543  -1.13509  -1.13464
 Alpha  occ. eigenvalues --   -1.13244  -1.13214  -1.13149  -1.13145  -1.13060
 Alpha  occ. eigenvalues --   -1.13056  -1.13035  -1.12975  -1.12960  -1.12938
 Alpha  occ. eigenvalues --   -1.12899  -1.12827  -1.12666  -1.12660  -1.12646
 Alpha  occ. eigenvalues --   -0.18644  -0.13069  -0.12463  -0.10763
 Alpha virt. eigenvalues --   -0.05803  -0.04915  -0.04661  -0.03335  -0.02992
 Alpha virt. eigenvalues --   -0.02414  -0.01725  -0.01094  -0.00473  -0.00042
 Alpha virt. eigenvalues --    0.00281   0.00334   0.00763   0.00787   0.00831

  Beta  occ. eigenvalues --  -38.44212 -38.43919 -38.43651 -38.43484 -38.43344
  Beta  occ. eigenvalues --  -38.43260 -38.43167  -2.20003  -2.19790  -2.19505
  Beta  occ. eigenvalues --   -2.19395  -2.19221  -2.19168  -2.18996  -1.13676
  Beta  occ. eigenvalues --   -1.13654  -1.13638  -1.13516  -1.13461  -1.13423
  Beta  occ. eigenvalues --   -1.13221  -1.13172  -1.13128  -1.13107  -1.13050
  Beta  occ. eigenvalues --   -1.13015  -1.12957  -1.12890  -1.12873  -1.12867
  Beta  occ. eigenvalues --   -1.12824  -1.12773  -1.12664  -1.12644  -1.12640
  Beta  occ. eigenvalues --   -0.17890  -0.12864  -0.12295
  Beta virt. eigenvalues --   -0.06845  -0.05670  -0.04818  -0.04596  -0.02679
  Beta virt. eigenvalues --   -0.02382  -0.01671  -0.01385  -0.01036  -0.00267
  Beta virt. eigenvalues --    0.00002   0.00328   0.00375   0.00797   0.00843

 Mulliken charges and spin densities:
               1          2
     1  Na  -0.287470   0.158339
     2  Na   0.139134  -0.129038
     3  Na   0.037167   0.375246
     4  Na   0.398863  -0.066617
     5  Na  -0.306161   0.031527
     6  Na  -0.629118   0.685629
     7  Na   0.647586  -0.055086
 Sum of Mulliken charges =  -0.00000   1.00000

 Dipole moment (field-independent basis, Debye):
    X=             -0.3330    Y=             -0.1481    Z=              0.0244  Tot=              0.3653
 Quadrupole moment (field-independent basis, Debye-Ang):
   XX=            -56.5078   YY=            -64.1056   ZZ=            -72.2289
   XY=             -0.4670   XZ=             -1.3961   YZ=             -0.4520

 Normal termination of Gaussian 16 at Tue Dec  5 12:03:19 2023.
