 Gaussian 16, Revision B.01,
 Gaussian 16:  ES64L-G16RevB.01 20-Dec-2017

 -------------------------
 #P B3LYP/6-311+g(d) force
 -------------------------

 -----
 DPGEN
 -----
 Symbolic Z-matrix:
 Charge =  0 Multiplicity = 2

                         Standard orientation:
 ---------------------------------------------------------------------
 Center     Atomic      Atomic             Coordinates (Angstroms)
 Number     Number       Type             X           Y           Z
 ---------------------------------------------------------------------
      1         11           0       -0.339314   -0.654646   -1.563818
      2         11           0       -3.620196    0.499864   -1.304315
      3         11           0        1.299351   -0.950462    1.848027
      4         11           0        2.740922   -1.587240   -1.323947
      5         11           0       -0.805928    2.251910    0.774716
      6         11           0       -2.135850   -1.546440    1.579077
      7         11           0        2.861016    1.987012   -0.009739
 ---------------------------------------------------------------------

 SCF Done:  E(UB3LYP) =  -1136.12569612     A.U. after   25 cycles

 The electronic state is 2-A.
 Alpha  occ. eigenvalues --  -38.44822 -38.44627 -38.44513 -38.43926 -38.43654
 Alpha  occ. eigenvalues --  -38.43577 -38.43166  -2.20615  -2.20440  -2.20355
 Alpha  occ. eigenvalues --   -2.19801  -2.19427  -2.19417  -2.18949  -1.14290
 Alpha  occ. eigenvalues --   -1.14258  -1.14236  -1.14124  -1.14092  -1.14055
 Alpha  occ. eigenvalues --   -1.14036  -1.13992  -1.13974  -1.13488  -1.13458
 Alpha  occ. eigenvalues --   -1.13445  -1.13113  -1.13094  -1.13080  -1.13065
 Alpha  occ. eigenvalues --   -1.13053  -1.13040  -1.12648  -1.12638  -1.12552
 Alpha  occ. eigenvalues --   -0.17854  -0.13580  -0.11871  -0.10899
 Alpha virt. eigenvalues --   -0.06180  -0.05401  -0.04987  -0.03376  -0.02758
 Alpha virt. eigenvalues --   -0.02506  -0.02147  -0.01247  -0.00853  -0.00164
 Alpha virt. eigenvalues --    0.00130   0.00175   0.00312   0.00436   0.00586

  Beta  occ. eigenvalues --  -38.44788 -38.44570 -38.44458 -38.43890 -38.43655
  Beta  occ. eigenvalues --  -38.43554 -38.43165  -2.20552  -2.20337  -2.20258
  Beta  occ. eigenvalues --   -2.19737  -2.19429  -2.19375  -2.18948  -1.14237
  Beta  occ. eigenvalues --   -1.14216  -1.14198  -1.14043  -1.14024  -1.13980
  Beta  occ. eigenvalues --   -1.13965  -1.13921  -1.13892  -1.13438  -1.13414
  Beta  occ. eigenvalues --   -1.13392  -1.13111  -1.13082  -1.13066  -1.13053
  Beta  occ. eigenvalues --   -1.13030  -1.13014  -1.12650  -1.12623  -1.12554
  Beta  occ. eigenvalues --   -0.17146  -0.13318  -0.10720
  Beta virt. eigenvalues --   -0.07921  -0.05995  -0.05142  -0.04554  -0.02987
  Beta virt. eigenvalues --   -0.02208  -0.02011  -0.01906  -0.00935  -0.00605
  Beta virt. eigenvalues --   -0.00042   0.00206   0.00267   0.00402   0.00504

 Mulliken charges and spin densities:
               1          2
     1  Na  -1.310871   0.430912
     2  Na   1.034407   0.045388
     3  Na   0.030369   0.266118
     4  Na   0.734269   0.096240
     5  Na  -0.404147   0.056873
     6  Na   0.017822   0.183135
     7  Na  -0.101849  -0.078666
 Sum of Mulliken charges =  -0.00000   1.00000

 Dipole moment (field-independent basis, Debye):
    X=             -0.7924    Y=             -0.4355    Z=             -0.0171  Tot=              0.9044
 Quadrupole moment (field-independent basis, Debye-Ang):
   XX=            -49.5623   YY=            -77.8463   ZZ=            -67.1061
   XY=             -1.1294   XZ=              0.0717   YZ=             -3.9574

 Normal termination of Gaussian 16 at Thu Dec  7 06:41:46 2023.
