 Gaussian 16, Revision B.01,
 Gaussian 16:  ES64L-G16RevB.01 20-Dec-2017

 -------------------------
 #P B3LYP/6-311+g(d) force
 -------------------------

 -----
 DPGEN
 -----
 Symbolic Z-matrix:
 Charge =  0 Multiplicity = 2

                         Standard orientation:
 ---------------------------------------------------------------------
 Center     Atomic      Atomic             Coordinates (Angstroms)
 Number     Number       Type             X           Y           Z
 ---------------------------------------------------------------------
      1         11           0       -1.674158   -2.150959   -0.564526
      2         11           0       -0.327745    2.877290   -0.327826
      3         11           0        0.211411    0.526523    2.095272
      4         11           0       -3.268607    0.367236    0.234060
      5         11           0        3.171323    0.568394   -0.279849
      6         11           0        1.507548   -2.252625    0.529576
      7         11           0        0.380228    0.064141   -1.686706
 ---------------------------------------------------------------------

 SCF Done:  E(UB3LYP) =  -1136.13210999     A.U. after   20 cycles

 The electronic state is 2-A.
 Alpha  occ. eigenvalues --  -38.44543 -38.44498 -38.43850 -38.43371 -38.43312
 Alpha  occ. eigenvalues --  -38.43224 -38.43033  -2.20385  -2.20308  -2.19730
 Alpha  occ. eigenvalues --   -2.19372  -2.19150  -2.19120  -2.18934  -1.14087
 Alpha  occ. eigenvalues --   -1.14035  -1.14011  -1.14006  -1.13972  -1.13931
 Alpha  occ. eigenvalues --   -1.13397  -1.13367  -1.13346  -1.13050  -1.13045
 Alpha  occ. eigenvalues --   -1.13016  -1.12828  -1.12813  -1.12803  -1.12774
 Alpha  occ. eigenvalues --   -1.12762  -1.12761  -1.12612  -1.12587  -1.12564
 Alpha  occ. eigenvalues --   -0.18738  -0.13160  -0.12225  -0.11122
 Alpha virt. eigenvalues --   -0.06183  -0.04678  -0.04323  -0.03381  -0.03045
 Alpha virt. eigenvalues --   -0.02813  -0.01823  -0.00853  -0.00287  -0.00132
 Alpha virt. eigenvalues --    0.00080   0.00357   0.00753   0.00845   0.00875

  Beta  occ. eigenvalues --  -38.44535 -38.44500 -38.43759 -38.43307 -38.43302
  Beta  occ. eigenvalues --  -38.43210 -38.43025  -2.20373  -2.20312  -2.19562
  Beta  occ. eigenvalues --   -2.19247  -2.19144  -2.19097  -2.18921  -1.14070
  Beta  occ. eigenvalues --   -1.14012  -1.14012  -1.14007  -1.13961  -1.13936
  Beta  occ. eigenvalues --   -1.13286  -1.13247  -1.13225  -1.12972  -1.12958
  Beta  occ. eigenvalues --   -1.12929  -1.12808  -1.12795  -1.12784  -1.12757
  Beta  occ. eigenvalues --   -1.12751  -1.12727  -1.12597  -1.12574  -1.12547
  Beta  occ. eigenvalues --   -0.17996  -0.12956  -0.11975
  Beta virt. eigenvalues --   -0.07163  -0.06131  -0.04627  -0.04284  -0.02634
  Beta virt. eigenvalues --   -0.02284  -0.01743  -0.01734  -0.00780  -0.00317
  Beta virt. eigenvalues --   -0.00047   0.00128   0.00391   0.00835   0.00890

 Mulliken charges and spin densities:
               1          2
     1  Na   0.179267   0.004420
     2  Na  -0.038882  -0.088261
     3  Na  -0.340339   0.582921
     4  Na  -0.108553  -0.029818
     5  Na   0.260295  -0.050819
     6  Na  -0.002511   0.181001
     7  Na   0.050723   0.400557
 Sum of Mulliken charges =  -0.00000   1.00000

 Dipole moment (field-independent basis, Debye):
    X=              0.2292    Y=              0.3993    Z=              0.2683  Tot=              0.5329
 Quadrupole moment (field-independent basis, Debye-Ang):
   XX=            -54.6220   YY=            -67.1289   ZZ=            -72.4327
   XY=             -0.4997   XZ=             -0.3951   YZ=             -0.7810

 Normal termination of Gaussian 16 at Tue Dec  5 21:10:14 2023.
