 Gaussian 16, Revision B.01,
 Gaussian 16:  ES64L-G16RevB.01 20-Dec-2017

 -------------------------
 #P B3LYP/6-311+g(d) force
 -------------------------

 -----
 DPGEN
 -----
 Symbolic Z-matrix:
 Charge =  0 Multiplicity = 2

                         Standard orientation:
 ---------------------------------------------------------------------
 Center     Atomic      Atomic             Coordinates (Angstroms)
 Number     Number       Type             X           Y           Z
 ---------------------------------------------------------------------
      1         11           0       -1.799518    2.587916   -0.156471
      2         11           0       -0.079935    0.025741   -1.574755
      3         11           0        2.361254    1.976257    0.129235
      4         11           0       -0.570926   -2.753215    0.450416
      5         11           0        0.467003    0.120109    2.140506
      6         11           0        2.641327   -1.332624   -0.784531
      7         11           0       -3.019204   -0.624184   -0.204400
 ---------------------------------------------------------------------

 SCF Done:  E(UB3LYP) =  -1136.13669779     A.U. after   19 cycles

 The electronic state is 2-A.
 Alpha  occ. eigenvalues --  -38.43910 -38.43868 -38.43842 -38.43829 -38.43550
 Alpha  occ. eigenvalues --  -38.43260 -38.42990  -2.19790  -2.19725  -2.19697
 Alpha  occ. eigenvalues --   -2.19680  -2.19362  -2.19256  -2.18859  -1.13463
 Alpha  occ. eigenvalues --   -1.13436  -1.13425  -1.13414  -1.13410  -1.13386
 Alpha  occ. eigenvalues --   -1.13362  -1.13358  -1.13342  -1.13327  -1.13325
 Alpha  occ. eigenvalues --   -1.13286  -1.13051  -1.13027  -1.12994  -1.12935
 Alpha  occ. eigenvalues --   -1.12891  -1.12877  -1.12536  -1.12518  -1.12496
 Alpha  occ. eigenvalues --   -0.18612  -0.13200  -0.12196  -0.11085
 Alpha virt. eigenvalues --   -0.05523  -0.05215  -0.04472  -0.03356  -0.02952
 Alpha virt. eigenvalues --   -0.02763  -0.01467  -0.01118  -0.00334  -0.00230
 Alpha virt. eigenvalues --    0.00024   0.00350   0.00793   0.00863   0.00923

  Beta  occ. eigenvalues --  -38.43866 -38.43835 -38.43812 -38.43802 -38.43550
  Beta  occ. eigenvalues --  -38.43205 -38.42980  -2.19725  -2.19673  -2.19650
  Beta  occ. eigenvalues --   -2.19608  -2.19365  -2.19156  -2.18844  -1.13417
  Beta  occ. eigenvalues --   -1.13394  -1.13379  -1.13367  -1.13360  -1.13329
  Beta  occ. eigenvalues --   -1.13327  -1.13316  -1.13291  -1.13281  -1.13268
  Beta  occ. eigenvalues --   -1.13259  -1.13043  -1.13027  -1.12992  -1.12867
  Beta  occ. eigenvalues --   -1.12818  -1.12805  -1.12526  -1.12497  -1.12478
  Beta  occ. eigenvalues --   -0.17902  -0.12938  -0.11961
  Beta virt. eigenvalues --   -0.07138  -0.05494  -0.05133  -0.04429  -0.02611
  Beta virt. eigenvalues --   -0.02195  -0.01737  -0.01360  -0.01030  -0.00366
  Beta virt. eigenvalues --   -0.00200   0.00128   0.00393   0.00851   0.00900

 Mulliken charges and spin densities:
               1          2
     1  Na  -0.009455  -0.058655
     2  Na  -0.119986   0.252850
     3  Na   0.118276  -0.005025
     4  Na   0.119785   0.087203
     5  Na  -0.405791   0.660226
     6  Na   0.230898   0.093785
     7  Na   0.066272  -0.030384
 Sum of Mulliken charges =  -0.00000   1.00000

 Dipole moment (field-independent basis, Debye):
    X=              0.1292    Y=              0.1894    Z=              0.1649  Tot=              0.2824
 Quadrupole moment (field-independent basis, Debye-Ang):
   XX=            -57.6637   YY=            -63.6615   ZZ=            -72.8922
   XY=              0.2871   XZ=             -1.1723   YZ=              0.2343

 Normal termination of Gaussian 16 at Fri Dec  8 04:13:49 2023.
