 Gaussian 16, Revision B.01,
 Gaussian 16:  ES64L-G16RevB.01 20-Dec-2017

 -------------------------
 #P B3LYP/6-311+g(d) force
 -------------------------

 -----
 DPGEN
 -----
 Symbolic Z-matrix:
 Charge =  0 Multiplicity = 2

                         Standard orientation:
 ---------------------------------------------------------------------
 Center     Atomic      Atomic             Coordinates (Angstroms)
 Number     Number       Type             X           Y           Z
 ---------------------------------------------------------------------
      1         11           0       -0.419308   -1.039263   -1.695597
      2         11           0        3.664641    0.499166    0.241649
      3         11           0        0.298617    2.455605   -0.665541
      4         11           0       -2.816112    1.682806    0.005645
      5         11           0        1.819720   -1.803008   -0.294160
      6         11           0       -2.760818   -1.817197    0.457332
      7         11           0        0.213261    0.021890    1.950670
 ---------------------------------------------------------------------

 SCF Done:  E(UB3LYP) =  -1136.12030374     A.U. after   22 cycles

 The electronic state is 2-A.
 Alpha  occ. eigenvalues --  -38.45258 -38.44388 -38.44119 -38.44114 -38.43815
 Alpha  occ. eigenvalues --  -38.43483 -38.42911  -2.21071  -2.20255  -2.19941
 Alpha  occ. eigenvalues --   -2.19933  -2.19794  -2.19450  -2.18754  -1.14786
 Alpha  occ. eigenvalues --   -1.14718  -1.14693  -1.13953  -1.13899  -1.13856
 Alpha  occ. eigenvalues --   -1.13702  -1.13627  -1.13610  -1.13602  -1.13595
 Alpha  occ. eigenvalues --   -1.13586  -1.13558  -1.13422  -1.13395  -1.13073
 Alpha  occ. eigenvalues --   -1.13042  -1.13026  -1.12438  -1.12417  -1.12379
 Alpha  occ. eigenvalues --   -0.18586  -0.13758  -0.11745  -0.10858
 Alpha virt. eigenvalues --   -0.06804  -0.05351  -0.03782  -0.03574  -0.02890
 Alpha virt. eigenvalues --   -0.02420  -0.02352  -0.01254  -0.00340  -0.00161
 Alpha virt. eigenvalues --    0.00081   0.00241   0.00532   0.00674   0.00780

  Beta  occ. eigenvalues --  -38.45257 -38.44317 -38.44114 -38.44110 -38.43795
  Beta  occ. eigenvalues --  -38.43413 -38.42891  -2.21072  -2.20123  -2.19936
  Beta  occ. eigenvalues --   -2.19925  -2.19764  -2.19323  -2.18720  -1.14790
  Beta  occ. eigenvalues --   -1.14706  -1.14693  -1.13866  -1.13806  -1.13756
  Beta  occ. eigenvalues --   -1.13647  -1.13620  -1.13600  -1.13590  -1.13588
  Beta  occ. eigenvalues --   -1.13573  -1.13551  -1.13386  -1.13371  -1.12998
  Beta  occ. eigenvalues --   -1.12948  -1.12934  -1.12418  -1.12376  -1.12358
  Beta  occ. eigenvalues --   -0.17864  -0.13547  -0.11502
  Beta virt. eigenvalues --   -0.07032  -0.06625  -0.05350  -0.03570  -0.02964
  Beta virt. eigenvalues --   -0.02336  -0.02065  -0.01437  -0.01235  -0.00292
  Beta virt. eigenvalues --    0.00010   0.00075   0.00268   0.00706   0.00763

 Mulliken charges and spin densities:
               1          2
     1  Na   0.038212   0.277506
     2  Na  -0.079036  -0.013905
     3  Na  -0.196898   0.077039
     4  Na  -0.008298  -0.024729
     5  Na   0.542793   0.124934
     6  Na   0.122636  -0.028386
     7  Na  -0.419409   0.587541
 Sum of Mulliken charges =  -0.00000   1.00000

 Dipole moment (field-independent basis, Debye):
    X=              0.2753    Y=              0.1694    Z=              0.4061  Tot=              0.5190
 Quadrupole moment (field-independent basis, Debye-Ang):
   XX=            -47.6023   YY=            -73.0067   ZZ=            -73.2879
   XY=              2.3404   XZ=             -0.7405   YZ=             -1.4263

 Normal termination of Gaussian 16 at Wed Dec  6 00:30:34 2023.
