 Gaussian 16, Revision B.01,
 Gaussian 16:  ES64L-G16RevB.01 20-Dec-2017

 -------------------------
 #P B3LYP/6-311+g(d) force
 -------------------------

 -----
 DPGEN
 -----
 Symbolic Z-matrix:
 Charge =  0 Multiplicity = 2

                         Standard orientation:
 ---------------------------------------------------------------------
 Center     Atomic      Atomic             Coordinates (Angstroms)
 Number     Number       Type             X           Y           Z
 ---------------------------------------------------------------------
      1         11           0        2.638464    0.951286    0.014566
      2         11           0       -2.987115    0.907289    0.105114
      3         11           0       -1.618745   -2.300923   -0.119057
      4         11           0        0.144890    2.889508   -0.203837
      5         11           0        0.097569    0.014558    1.964007
      6         11           0        0.050895   -0.108785   -1.767173
      7         11           0        1.674043   -2.352933    0.006380
 ---------------------------------------------------------------------

 SCF Done:  E(UB3LYP) =  -1136.14011193     A.U. after   19 cycles

 The electronic state is 2-A.
 Alpha  occ. eigenvalues --  -38.43636 -38.43508 -38.43497 -38.43456 -38.43337
 Alpha  occ. eigenvalues --  -38.43299 -38.43271  -2.19453  -2.19446  -2.19374
 Alpha  occ. eigenvalues --   -2.19352  -2.19272  -2.19261  -2.19204  -1.13148
 Alpha  occ. eigenvalues --   -1.13127  -1.13123  -1.13108  -1.13104  -1.13081
 Alpha  occ. eigenvalues --   -1.13078  -1.13065  -1.13039  -1.13013  -1.13009
 Alpha  occ. eigenvalues --   -1.12986  -1.12979  -1.12919  -1.12913  -1.12907
 Alpha  occ. eigenvalues --   -1.12880  -1.12865  -1.12855  -1.12833  -1.12820
 Alpha  occ. eigenvalues --   -0.19172  -0.13000  -0.12703  -0.11010
 Alpha virt. eigenvalues --   -0.05206  -0.04916  -0.04879  -0.03201  -0.03014
 Alpha virt. eigenvalues --   -0.02677  -0.01199  -0.01107  -0.00171  -0.00065
 Alpha virt. eigenvalues --   -0.00010   0.00375   0.00901   0.00923   0.00946

  Beta  occ. eigenvalues --  -38.43635 -38.43491 -38.43449 -38.43418 -38.43329
  Beta  occ. eigenvalues --  -38.43293 -38.43194  -2.19453  -2.19367  -2.19344
  Beta  occ. eigenvalues --   -2.19281  -2.19251  -2.19196  -2.19132  -1.13125
  Beta  occ. eigenvalues --   -1.13109  -1.13106  -1.13102  -1.13074  -1.13026
  Beta  occ. eigenvalues --   -1.13022  -1.13008  -1.12995  -1.12980  -1.12957
  Beta  occ. eigenvalues --   -1.12947  -1.12937  -1.12888  -1.12871  -1.12869
  Beta  occ. eigenvalues --   -1.12831  -1.12828  -1.12815  -1.12780  -1.12764
  Beta  occ. eigenvalues --   -0.18406  -0.12725  -0.12460
  Beta virt. eigenvalues --   -0.07048  -0.05213  -0.04894  -0.04856  -0.02346
  Beta virt. eigenvalues --   -0.02222  -0.01600  -0.01128  -0.01031  -0.00221
  Beta virt. eigenvalues --   -0.00133   0.00118   0.00388   0.00915   0.00932

 Mulliken charges and spin densities:
               1          2
     1  Na   0.349077  -0.023939
     2  Na  -0.030226  -0.109893
     3  Na   0.183383  -0.078174
     4  Na   0.079280  -0.089934
     5  Na  -0.547027   0.763693
     6  Na  -0.358971   0.583410
     7  Na   0.324485  -0.045163
 Sum of Mulliken charges =  -0.00000   1.00000

 Dipole moment (field-independent basis, Debye):
    X=             -0.1415    Y=              0.0551    Z=              0.1104  Tot=              0.1877
 Quadrupole moment (field-independent basis, Debye-Ang):
   XX=            -60.2763   YY=            -60.9363   ZZ=            -72.9940
   XY=             -0.6716   XZ=             -0.1240   YZ=             -0.2735

 Normal termination of Gaussian 16 at Thu Dec  7 10:33:18 2023.
