 Gaussian 16, Revision B.01,
 Gaussian 16:  ES64L-G16RevB.01 20-Dec-2017

 -------------------------
 #P B3LYP/6-311+g(d) force
 -------------------------

 -----
 DPGEN
 -----
 Symbolic Z-matrix:
 Charge =  0 Multiplicity = 2

                         Standard orientation:
 ---------------------------------------------------------------------
 Center     Atomic      Atomic             Coordinates (Angstroms)
 Number     Number       Type             X           Y           Z
 ---------------------------------------------------------------------
      1         11           0       -0.965408   -2.995631   -0.178164
      2         11           0        3.372759   -1.417451    0.037744
      3         11           0        1.905400    2.467711    0.007886
      4         11           0       -2.068502    2.501178   -0.158492
      5         11           0        0.645181    0.103580   -1.720084
      6         11           0        0.305911    0.053306    1.968947
      7         11           0       -3.195340   -0.712692    0.042163
 ---------------------------------------------------------------------

 SCF Done:  E(UB3LYP) =  -1136.12835646     A.U. after   22 cycles

 The electronic state is 2-A.
 Alpha  occ. eigenvalues --  -38.45080 -38.44324 -38.43942 -38.43891 -38.43767
 Alpha  occ. eigenvalues --  -38.43540 -38.43477  -2.20828  -2.20148  -2.19765
 Alpha  occ. eigenvalues --   -2.19674  -2.19570  -2.19395  -2.19369  -1.14503
 Alpha  occ. eigenvalues --   -1.14484  -1.14468  -1.13854  -1.13818  -1.13759
 Alpha  occ. eigenvalues --   -1.13460  -1.13434  -1.13429  -1.13347  -1.13332
 Alpha  occ. eigenvalues --   -1.13309  -1.13237  -1.13227  -1.13204  -1.13077
 Alpha  occ. eigenvalues --   -1.13042  -1.13025  -1.13015  -1.13008  -1.12977
 Alpha  occ. eigenvalues --   -0.17854  -0.13124  -0.12091  -0.10275
 Alpha virt. eigenvalues --   -0.06522  -0.05528  -0.04700  -0.03152  -0.02670
 Alpha virt. eigenvalues --   -0.02387  -0.02065  -0.01372  -0.00850  -0.00603
 Alpha virt. eigenvalues --   -0.00056   0.00301   0.00672   0.00716   0.00751

  Beta  occ. eigenvalues --  -38.45079 -38.44315 -38.43942 -38.43891 -38.43766
  Beta  occ. eigenvalues --  -38.43447 -38.43412  -2.20829  -2.20136  -2.19768
  Beta  occ. eigenvalues --   -2.19676  -2.19570  -2.19249  -2.19224  -1.14488
  Beta  occ. eigenvalues --   -1.14484  -1.14471  -1.13841  -1.13782  -1.13755
  Beta  occ. eigenvalues --   -1.13466  -1.13437  -1.13417  -1.13338  -1.13331
  Beta  occ. eigenvalues --   -1.13313  -1.13231  -1.13218  -1.13208  -1.12978
  Beta  occ. eigenvalues --   -1.12942  -1.12925  -1.12902  -1.12892  -1.12886
  Beta  occ. eigenvalues --   -0.17155  -0.12947  -0.11908
  Beta virt. eigenvalues --   -0.06514  -0.06401  -0.05418  -0.04678  -0.02444
  Beta virt. eigenvalues --   -0.02020  -0.01947  -0.01349  -0.01275  -0.00897
  Beta virt. eigenvalues --   -0.00644   0.00105   0.00340   0.00693   0.00799

 Mulliken charges and spin densities:
               1          2
     1  Na   0.024649  -0.111631
     2  Na   0.051399  -0.162007
     3  Na   0.224529  -0.108676
     4  Na  -0.006315  -0.065784
     5  Na  -0.032860   0.669641
     6  Na  -0.218159   0.804608
     7  Na  -0.043243  -0.026151
 Sum of Mulliken charges =  -0.00000   1.00000

 Dipole moment (field-independent basis, Debye):
    X=              0.7617    Y=             -0.0076    Z=              0.0455  Tot=              0.7631
 Quadrupole moment (field-independent basis, Debye-Ang):
   XX=            -53.7357   YY=            -61.7162   ZZ=            -77.4660
   XY=             -1.5424   XZ=              0.6146   YZ=              0.0527

 Normal termination of Gaussian 16 at Thu Dec  7 17:18:05 2023.
