 Gaussian 16, Revision B.01,
 Gaussian 16:  ES64L-G16RevB.01 20-Dec-2017

 -------------------------
 #P B3LYP/6-311+g(d) force
 -------------------------

 -----
 DPGEN
 -----
 Symbolic Z-matrix:
 Charge =  0 Multiplicity = 2

                         Standard orientation:
 ---------------------------------------------------------------------
 Center     Atomic      Atomic             Coordinates (Angstroms)
 Number     Number       Type             X           Y           Z
 ---------------------------------------------------------------------
      1         11           0        1.934659   -2.394946    0.161567
      2         11           0       -1.672408   -2.453114   -0.161466
      3         11           0       -0.047532    0.028516    2.098458
      4         11           0       -0.445545   -0.186685   -1.779891
      5         11           0        2.995135    0.683085   -0.301002
      6         11           0       -3.736656    1.231800    0.075849
      7         11           0        0.972346    3.091344   -0.093516
 ---------------------------------------------------------------------

 SCF Done:  E(UB3LYP) =  -1136.12542425     A.U. after   21 cycles

 The electronic state is 2-A.
 Alpha  occ. eigenvalues --  -38.45134 -38.44160 -38.43937 -38.43829 -38.43823
 Alpha  occ. eigenvalues --  -38.43788 -38.43505  -2.20843  -2.20004  -2.19774
 Alpha  occ. eigenvalues --   -2.19709  -2.19652  -2.19633  -2.19345  -1.14523
 Alpha  occ. eigenvalues --   -1.14511  -1.14475  -1.13767  -1.13663  -1.13602
 Alpha  occ. eigenvalues --   -1.13440  -1.13405  -1.13396  -1.13391  -1.13381
 Alpha  occ. eigenvalues --   -1.13349  -1.13323  -1.13312  -1.13304  -1.13287
 Alpha  occ. eigenvalues --   -1.13276  -1.13230  -1.13017  -1.13004  -1.12982
 Alpha  occ. eigenvalues --   -0.17997  -0.12966  -0.12033  -0.10627
 Alpha virt. eigenvalues --   -0.06622  -0.05271  -0.04566  -0.03255  -0.02806
 Alpha virt. eigenvalues --   -0.02636  -0.02082  -0.01255  -0.00686  -0.00496
 Alpha virt. eigenvalues --   -0.00090   0.00293   0.00592   0.00651   0.00783

  Beta  occ. eigenvalues --  -38.45143 -38.44150 -38.43840 -38.43828 -38.43781
  Beta  occ. eigenvalues --  -38.43757 -38.43499  -2.20859  -2.19990  -2.19643
  Beta  occ. eigenvalues --   -2.19632  -2.19595  -2.19587  -2.19337  -1.14529
  Beta  occ. eigenvalues --   -1.14520  -1.14487  -1.13742  -1.13632  -1.13598
  Beta  occ. eigenvalues --   -1.13398  -1.13330  -1.13314  -1.13300  -1.13291
  Beta  occ. eigenvalues --   -1.13282  -1.13271  -1.13269  -1.13259  -1.13255
  Beta  occ. eigenvalues --   -1.13229  -1.13221  -1.13015  -1.12983  -1.12970
  Beta  occ. eigenvalues --   -0.17252  -0.12763  -0.11880
  Beta virt. eigenvalues --   -0.06770  -0.06558  -0.05114  -0.04567  -0.02535
  Beta virt. eigenvalues --   -0.02119  -0.02009  -0.01558  -0.01158  -0.00745
  Beta virt. eigenvalues --   -0.00528   0.00065   0.00326   0.00686   0.00731

 Mulliken charges and spin densities:
               1          2
     1  Na   0.152924   0.056133
     2  Na   0.289460  -0.052261
     3  Na  -0.383611   0.761171
     4  Na   0.001236   0.451148
     5  Na   0.063555   0.043068
     6  Na  -0.097240  -0.144529
     7  Na  -0.026325  -0.114729
 Sum of Mulliken charges =  -0.00000   1.00000

 Dipole moment (field-independent basis, Debye):
    X=             -0.6570    Y=              0.0704    Z=              0.0580  Tot=              0.6633
 Quadrupole moment (field-independent basis, Debye-Ang):
   XX=            -56.2429   YY=            -62.4001   ZZ=            -75.4464
   XY=             -1.8215   XZ=             -0.9466   YZ=             -0.3777

 Normal termination of Gaussian 16 at Thu Dec  7 21:42:01 2023.
