 Gaussian 16, Revision B.01,
 Gaussian 16:  ES64L-G16RevB.01 20-Dec-2017

 -------------------------
 #P B3LYP/6-311+g(d) force
 -------------------------

 -----
 DPGEN
 -----
 Symbolic Z-matrix:
 Charge =  0 Multiplicity = 2

                         Standard orientation:
 ---------------------------------------------------------------------
 Center     Atomic      Atomic             Coordinates (Angstroms)
 Number     Number       Type             X           Y           Z
 ---------------------------------------------------------------------
      1         11           0       -2.841014   -1.534947    0.854627
      2         11           0        3.446155   -1.448192   -0.900217
      3         11           0       -1.072186    2.366526    0.668897
      4         11           0        3.092636    1.733666    0.241725
      5         11           0        0.560434   -1.086686    1.744060
      6         11           0       -3.063713    0.540236   -1.429032
      7         11           0       -0.122312   -0.570604   -1.180060
 ---------------------------------------------------------------------

 SCF Done:  E(UB3LYP) =  -1136.11748338     A.U. after   27 cycles

 The electronic state is 2-A.
 Alpha  occ. eigenvalues --  -38.44839 -38.44487 -38.44430 -38.44351 -38.43958
 Alpha  occ. eigenvalues --  -38.43656 -38.42984  -2.20600  -2.20429  -2.20244
 Alpha  occ. eigenvalues --   -2.20208  -2.19881  -2.19540  -2.18799  -1.14288
 Alpha  occ. eigenvalues --   -1.14257  -1.14245  -1.14198  -1.14086  -1.14045
 Alpha  occ. eigenvalues --   -1.13917  -1.13909  -1.13888  -1.13864  -1.13862
 Alpha  occ. eigenvalues --   -1.13843  -1.13552  -1.13515  -1.13477  -1.13260
 Alpha  occ. eigenvalues --   -1.13159  -1.13130  -1.12481  -1.12463  -1.12429
 Alpha  occ. eigenvalues --   -0.18326  -0.14360  -0.11029  -0.10872
 Alpha virt. eigenvalues --   -0.06904  -0.05625  -0.04613  -0.03135  -0.02815
 Alpha virt. eigenvalues --   -0.02517  -0.02064  -0.01252  -0.00778  -0.00449
 Alpha virt. eigenvalues --    0.00030   0.00243   0.00296   0.00467   0.00683

  Beta  occ. eigenvalues --  -38.44844 -38.44472 -38.44391 -38.44337 -38.43912
  Beta  occ. eigenvalues --  -38.43591 -38.42966  -2.20611  -2.20405  -2.20187
  Beta  occ. eigenvalues --   -2.20170  -2.19795  -2.19424  -2.18767  -1.14294
  Beta  occ. eigenvalues --   -1.14265  -1.14240  -1.14146  -1.14071  -1.14035
  Beta  occ. eigenvalues --   -1.13889  -1.13856  -1.13844  -1.13838  -1.13819
  Beta  occ. eigenvalues --   -1.13816  -1.13488  -1.13464  -1.13416  -1.13186
  Beta  occ. eigenvalues --   -1.13067  -1.13044  -1.12461  -1.12433  -1.12400
  Beta  occ. eigenvalues --   -0.17668  -0.13991  -0.10662
  Beta virt. eigenvalues --   -0.07334  -0.06761  -0.05412  -0.04020  -0.02953
  Beta virt. eigenvalues --   -0.02554  -0.02010  -0.01354  -0.01155  -0.00496
  Beta virt. eigenvalues --   -0.00303   0.00151   0.00248   0.00435   0.00553

 Mulliken charges and spin densities:
               1          2
     1  Na  -0.002988   0.107006
     2  Na   0.610758   0.293679
     3  Na  -0.509659   0.051753
     4  Na  -0.001425   0.009931
     5  Na   0.072353   0.406684
     6  Na   1.770915   0.007574
     7  Na  -1.939954   0.123374
 Sum of Mulliken charges =  -0.00000   1.00000

 Dipole moment (field-independent basis, Debye):
    X=              0.4427    Y=             -0.3419    Z=              0.1895  Tot=              0.5906
 Quadrupole moment (field-independent basis, Debye-Ang):
   XX=            -49.4170   YY=            -76.1602   ZZ=            -69.2632
   XY=              0.9854   XZ=             -0.8732   YZ=              1.5663

 Normal termination of Gaussian 16 at Fri Dec  8 06:02:36 2023.
