 Gaussian 16, Revision B.01,
 Gaussian 16:  ES64L-G16RevB.01 20-Dec-2017

 -------------------------
 #P B3LYP/6-311+g(d) force
 -------------------------

 -----
 DPGEN
 -----
 Symbolic Z-matrix:
 Charge =  0 Multiplicity = 2

                         Standard orientation:
 ---------------------------------------------------------------------
 Center     Atomic      Atomic             Coordinates (Angstroms)
 Number     Number       Type             X           Y           Z
 ---------------------------------------------------------------------
      1         11           0       -0.184360    0.033399   -1.732379
      2         11           0       -2.861854   -1.458722    0.080676
      3         11           0        1.415634    2.511174   -0.162078
      4         11           0        3.213579   -0.609541    0.095139
      5         11           0        0.583519   -2.440950   -0.350225
      6         11           0       -2.142875    2.026110   -0.041754
      7         11           0       -0.023643   -0.061471    2.110622
 ---------------------------------------------------------------------

 SCF Done:  E(UB3LYP) =  -1136.13645091     A.U. after   19 cycles

 The electronic state is 2-A.
 Alpha  occ. eigenvalues --  -38.44126 -38.43910 -38.43871 -38.43603 -38.43409
 Alpha  occ. eigenvalues --  -38.43273 -38.43038  -2.19951  -2.19751  -2.19733
 Alpha  occ. eigenvalues --   -2.19457  -2.19414  -2.19116  -2.18975  -1.13627
 Alpha  occ. eigenvalues --   -1.13613  -1.13596  -1.13423  -1.13404  -1.13393
 Alpha  occ. eigenvalues --   -1.13385  -1.13380  -1.13358  -1.13192  -1.13154
 Alpha  occ. eigenvalues --   -1.13121  -1.13080  -1.13047  -1.13007  -1.12797
 Alpha  occ. eigenvalues --   -1.12779  -1.12740  -1.12664  -1.12622  -1.12569
 Alpha  occ. eigenvalues --   -0.18828  -0.13066  -0.12309  -0.11011
 Alpha virt. eigenvalues --   -0.05723  -0.05226  -0.04203  -0.03274  -0.02904
 Alpha virt. eigenvalues --   -0.02811  -0.01672  -0.01074  -0.00223  -0.00076
 Alpha virt. eigenvalues --   -0.00007   0.00349   0.00759   0.00892   0.00933

  Beta  occ. eigenvalues --  -38.44126 -38.43908 -38.43775 -38.43598 -38.43335
  Beta  occ. eigenvalues --  -38.43269 -38.43023  -2.19954  -2.19733  -2.19575
  Beta  occ. eigenvalues --   -2.19452  -2.19280  -2.19111  -2.18953  -1.13632
  Beta  occ. eigenvalues --   -1.13600  -1.13596  -1.13397  -1.13388  -1.13378
  Beta  occ. eigenvalues --   -1.13303  -1.13259  -1.13234  -1.13159  -1.13101
  Beta  occ. eigenvalues --   -1.13082  -1.13072  -1.12963  -1.12917  -1.12785
  Beta  occ. eigenvalues --   -1.12761  -1.12740  -1.12639  -1.12575  -1.12561
  Beta  occ. eigenvalues --   -0.18070  -0.12860  -0.12049
  Beta virt. eigenvalues --   -0.07049  -0.05650  -0.05254  -0.04189  -0.02492
  Beta virt. eigenvalues --   -0.02092  -0.01712  -0.01574  -0.01026  -0.00279
  Beta virt. eigenvalues --   -0.00082   0.00100   0.00366   0.00823   0.00877

 Mulliken charges and spin densities:
               1          2
     1  Na  -0.239838   0.464479
     2  Na   0.175811  -0.051971
     3  Na   0.105413  -0.084367
     4  Na   0.032694  -0.043915
     5  Na   0.431046  -0.006772
     6  Na   0.146658  -0.080742
     7  Na  -0.651785   0.803288
 Sum of Mulliken charges =  -0.00000   1.00000

 Dipole moment (field-independent basis, Debye):
    X=             -0.0654    Y=              0.0656    Z=              0.2917  Tot=              0.3061
 Quadrupole moment (field-independent basis, Debye-Ang):
   XX=            -54.1026   YY=            -66.4608   ZZ=            -73.0147
   XY=              0.5729   XZ=             -0.1627   YZ=             -0.0173

 Normal termination of Gaussian 16 at Thu Dec  7 08:22:54 2023.
