 Gaussian 16, Revision B.01,
 Gaussian 16:  ES64L-G16RevB.01 20-Dec-2017

 -------------------------
 #P B3LYP/6-311+g(d) force
 -------------------------

 -----
 DPGEN
 -----
 Symbolic Z-matrix:
 Charge =  0 Multiplicity = 2

                         Standard orientation:
 ---------------------------------------------------------------------
 Center     Atomic      Atomic             Coordinates (Angstroms)
 Number     Number       Type             X           Y           Z
 ---------------------------------------------------------------------
      1         11           0        3.876362   -2.096617   -0.177586
      2         11           0        0.620502    3.516248   -0.418932
      3         11           0        3.568584    1.174572   -0.287166
      4         11           0       -1.238074    1.516111    1.191760
      5         11           0       -4.435793    0.268755   -0.358432
      6         11           0       -2.759474   -2.057346   -0.588398
      7         11           0        0.367894   -2.321723    0.638754
 ---------------------------------------------------------------------

 SCF Done:  E(UB3LYP) =  -1136.11534264     A.U. after   20 cycles

 The electronic state is 2-A.
 Alpha  occ. eigenvalues --  -38.44833 -38.44744 -38.44607 -38.44233 -38.43974
 Alpha  occ. eigenvalues --  -38.43736 -38.43731  -2.20631  -2.20528  -2.20477
 Alpha  occ. eigenvalues --   -2.20107  -2.19771  -2.19556  -2.19530  -1.14320
 Alpha  occ. eigenvalues --   -1.14304  -1.14273  -1.14247  -1.14207  -1.14185
 Alpha  occ. eigenvalues --   -1.14149  -1.14130  -1.14112  -1.13738  -1.13722
 Alpha  occ. eigenvalues --   -1.13703  -1.13438  -1.13433  -1.13417  -1.13224
 Alpha  occ. eigenvalues --   -1.13207  -1.13203  -1.13190  -1.13173  -1.13166
 Alpha  occ. eigenvalues --   -0.16590  -0.14160  -0.12693  -0.10779
 Alpha virt. eigenvalues --   -0.06944  -0.05361  -0.04053  -0.03832  -0.03244
 Alpha virt. eigenvalues --   -0.02218  -0.02189  -0.01336  -0.01008  -0.00897
 Alpha virt. eigenvalues --   -0.00451  -0.00039   0.00372   0.00541   0.00694

  Beta  occ. eigenvalues --  -38.44813 -38.44704 -38.44588 -38.44156 -38.43969
  Beta  occ. eigenvalues --  -38.43734 -38.43666  -2.20595  -2.20454  -2.20451
  Beta  occ. eigenvalues --   -2.19966  -2.19763  -2.19537  -2.19429  -1.14296
  Beta  occ. eigenvalues --   -1.14270  -1.14226  -1.14205  -1.14158  -1.14139
  Beta  occ. eigenvalues --   -1.14123  -1.14088  -1.14073  -1.13643  -1.13627
  Beta  occ. eigenvalues --   -1.13611  -1.13435  -1.13425  -1.13398  -1.13202
  Beta  occ. eigenvalues --   -1.13193  -1.13181  -1.13138  -1.13120  -1.13079
  Beta  occ. eigenvalues --   -0.15965  -0.13509  -0.12389
  Beta virt. eigenvalues --   -0.07330  -0.06831  -0.05113  -0.03737  -0.03348
  Beta virt. eigenvalues --   -0.02866  -0.02048  -0.01803  -0.01261  -0.00929
  Beta virt. eigenvalues --   -0.00565  -0.00144   0.00242   0.00495   0.00642

 Mulliken charges and spin densities:
               1          2
     1  Na   0.539089   0.093321
     2  Na   0.155299  -0.113377
     3  Na  -0.381319   0.232241
     4  Na  -0.142061   0.222364
     5  Na   0.103935   0.363850
     6  Na   0.245926   0.014695
     7  Na  -0.520870   0.186906
 Sum of Mulliken charges =  -0.00000   1.00000

 Dipole moment (field-independent basis, Debye):
    X=             -0.1233    Y=              0.2873    Z=             -0.1651  Tot=              0.3536
 Quadrupole moment (field-independent basis, Debye-Ang):
   XX=            -66.5012   YY=            -64.3062   ZZ=            -70.0699
   XY=             -1.2213   XZ=             -1.2080   YZ=             -0.3420

 Normal termination of Gaussian 16 at Sun Dec  3 14:06:03 2023.
