 Gaussian 16, Revision B.01,
 Gaussian 16:  ES64L-G16RevB.01 20-Dec-2017

 -------------------------
 #P B3LYP/6-311+g(d) force
 -------------------------

 -----
 DPGEN
 -----
 Symbolic Z-matrix:
 Charge =  0 Multiplicity = 2

                         Standard orientation:
 ---------------------------------------------------------------------
 Center     Atomic      Atomic             Coordinates (Angstroms)
 Number     Number       Type             X           Y           Z
 ---------------------------------------------------------------------
      1         11           0       -3.019295   -0.254255    0.310325
      2         11           0       -0.860517   -2.794452   -0.217352
      3         11           0        2.546544    1.553894   -0.054627
      4         11           0       -0.370392    0.256958   -1.498583
      5         11           0        2.409690   -1.775426   -0.078187
      6         11           0       -0.951709    2.919939   -0.120617
      7         11           0        0.245679    0.093342    1.659040
 ---------------------------------------------------------------------

 SCF Done:  E(UB3LYP) =  -1136.13708640     A.U. after   19 cycles

 The electronic state is 2-A.
 Alpha  occ. eigenvalues --  -38.43877 -38.43809 -38.43772 -38.43572 -38.43427
 Alpha  occ. eigenvalues --  -38.42826 -38.42738  -2.19742  -2.19685  -2.19635
 Alpha  occ. eigenvalues --   -2.19444  -2.19304  -2.18838  -2.18792  -1.13431
 Alpha  occ. eigenvalues --   -1.13405  -1.13385  -1.13377  -1.13357  -1.13353
 Alpha  occ. eigenvalues --   -1.13315  -1.13286  -1.13249  -1.13126  -1.13102
 Alpha  occ. eigenvalues --   -1.13089  -1.12985  -1.12960  -1.12936  -1.12586
 Alpha  occ. eigenvalues --   -1.12459  -1.12454  -1.12438  -1.12417  -1.12404
 Alpha  occ. eigenvalues --   -0.19130  -0.13138  -0.12860  -0.10224
 Alpha virt. eigenvalues --   -0.05537  -0.05169  -0.04998  -0.02960  -0.02750
 Alpha virt. eigenvalues --   -0.01883  -0.01452  -0.01341  -0.00391  -0.00344
 Alpha virt. eigenvalues --    0.00060   0.00358   0.00859   0.00867   0.00902

  Beta  occ. eigenvalues --  -38.43867 -38.43802 -38.43765 -38.43567 -38.43420
  Beta  occ. eigenvalues --  -38.42749 -38.42673  -2.19728  -2.19677  -2.19626
  Beta  occ. eigenvalues --   -2.19439  -2.19294  -2.18698  -2.18676  -1.13422
  Beta  occ. eigenvalues --   -1.13380  -1.13373  -1.13368  -1.13343  -1.13330
  Beta  occ. eigenvalues --   -1.13305  -1.13261  -1.13245  -1.13122  -1.13092
  Beta  occ. eigenvalues --   -1.13071  -1.12976  -1.12937  -1.12926  -1.12494
  Beta  occ. eigenvalues --   -1.12361  -1.12356  -1.12341  -1.12329  -1.12321
  Beta  occ. eigenvalues --   -0.18428  -0.12881  -0.12582
  Beta virt. eigenvalues --   -0.06349  -0.05516  -0.05139  -0.04981  -0.02167
  Beta virt. eigenvalues --   -0.01989  -0.01366  -0.01265  -0.00910  -0.00438
  Beta virt. eigenvalues --   -0.00390   0.00192   0.00402   0.00866   0.00893

 Mulliken charges and spin densities:
               1          2
     1  Na   0.161068  -0.007976
     2  Na   0.145871  -0.019177
     3  Na   0.232176  -0.082850
     4  Na  -0.490936   0.577297
     5  Na   0.086707  -0.034348
     6  Na   0.238489  -0.098545
     7  Na  -0.373375   0.665600
 Sum of Mulliken charges =  -0.00000   1.00000

 Dipole moment (field-independent basis, Debye):
    X=             -0.0553    Y=              0.1808    Z=              0.0807  Tot=              0.2056
 Quadrupole moment (field-independent basis, Debye-Ang):
   XX=            -56.1530   YY=            -58.0083   ZZ=            -77.0749
   XY=             -0.0649   XZ=             -1.4767   YZ=              0.4316

 Normal termination of Gaussian 16 at Thu Dec  7 06:29:26 2023.
