 Gaussian 16, Revision B.01,
 Gaussian 16:  ES64L-G16RevB.01 20-Dec-2017

 -------------------------
 #P B3LYP/6-311+g(d) force
 -------------------------

 -----
 DPGEN
 -----
 Symbolic Z-matrix:
 Charge =  0 Multiplicity = 2

                         Standard orientation:
 ---------------------------------------------------------------------
 Center     Atomic      Atomic             Coordinates (Angstroms)
 Number     Number       Type             X           Y           Z
 ---------------------------------------------------------------------
      1         11           0        0.262893    0.098031   -1.720894
      2         11           0        0.224294    3.011121   -0.216654
      3         11           0       -2.852599    0.838672    0.008255
      4         11           0        3.030939    0.476770   -0.032636
      5         11           0        1.713923   -2.504037    0.083347
      6         11           0       -2.227151   -2.046128   -0.369533
      7         11           0       -0.152298    0.125571    2.248115
 ---------------------------------------------------------------------

 SCF Done:  E(UB3LYP) =  -1136.13581246     A.U. after   19 cycles

 The electronic state is 2-A.
 Alpha  occ. eigenvalues --  -38.44131 -38.44086 -38.43898 -38.43596 -38.43482
 Alpha  occ. eigenvalues --  -38.43425 -38.43154  -2.19985  -2.19932  -2.19777
 Alpha  occ. eigenvalues --   -2.19456  -2.19383  -2.19316  -2.18985  -1.13682
 Alpha  occ. eigenvalues --   -1.13649  -1.13613  -1.13587  -1.13561  -1.13553
 Alpha  occ. eigenvalues --   -1.13525  -1.13431  -1.13410  -1.13120  -1.13099
 Alpha  occ. eigenvalues --   -1.13087  -1.13065  -1.13034  -1.13014  -1.12978
 Alpha  occ. eigenvalues --   -1.12970  -1.12957  -1.12666  -1.12640  -1.12619
 Alpha  occ. eigenvalues --   -0.18534  -0.13269  -0.12152  -0.11049
 Alpha virt. eigenvalues --   -0.05629  -0.05051  -0.04678  -0.03459  -0.02929
 Alpha virt. eigenvalues --   -0.02852  -0.01439  -0.01038  -0.00344  -0.00283
 Alpha virt. eigenvalues --   -0.00055   0.00383   0.00794   0.00881   0.00916

  Beta  occ. eigenvalues --  -38.44128 -38.43981 -38.43894 -38.43590 -38.43479
  Beta  occ. eigenvalues --  -38.43363 -38.43151  -2.19981  -2.19773  -2.19739
  Beta  occ. eigenvalues --   -2.19447  -2.19314  -2.19270  -2.18982  -1.13676
  Beta  occ. eigenvalues --   -1.13627  -1.13616  -1.13529  -1.13459  -1.13430
  Beta  occ. eigenvalues --   -1.13418  -1.13408  -1.13392  -1.13107  -1.13087
  Beta  occ. eigenvalues --   -1.13073  -1.13005  -1.12983  -1.12963  -1.12958
  Beta  occ. eigenvalues --   -1.12932  -1.12923  -1.12655  -1.12629  -1.12616
  Beta  occ. eigenvalues --   -0.17796  -0.13059  -0.11937
  Beta virt. eigenvalues --   -0.07094  -0.05574  -0.05044  -0.04613  -0.02643
  Beta virt. eigenvalues --   -0.02117  -0.01837  -0.01346  -0.00967  -0.00397
  Beta virt. eigenvalues --   -0.00335   0.00107   0.00408   0.00863   0.00889

 Mulliken charges and spin densities:
               1          2
     1  Na  -0.086571   0.399844
     2  Na   0.105202  -0.068466
     3  Na   0.238774   0.027740
     4  Na   0.215976  -0.044610
     5  Na   0.020900  -0.014929
     6  Na   0.063442  -0.026033
     7  Na  -0.557723   0.726455
 Sum of Mulliken charges =  -0.00000   1.00000

 Dipole moment (field-independent basis, Debye):
    X=              0.2001    Y=              0.0148    Z=              0.2018  Tot=              0.2846
 Quadrupole moment (field-independent basis, Debye-Ang):
   XX=            -58.7774   YY=            -63.7514   ZZ=            -72.8138
   XY=              0.0593   XZ=              0.7418   YZ=              0.1757

 Normal termination of Gaussian 16 at Tue Dec  5 21:11:58 2023.
