 Gaussian 16, Revision B.01,
 Gaussian 16:  ES64L-G16RevB.01 20-Dec-2017

 -------------------------
 #P B3LYP/6-311+g(d) force
 -------------------------

 -----
 DPGEN
 -----
 Symbolic Z-matrix:
 Charge =  0 Multiplicity = 2

                         Standard orientation:
 ---------------------------------------------------------------------
 Center     Atomic      Atomic             Coordinates (Angstroms)
 Number     Number       Type             X           Y           Z
 ---------------------------------------------------------------------
      1         11           0       -2.594691   -0.836661   -1.411303
      2         11           0        0.573854   -1.962499   -1.260929
      3         11           0       -2.891652    1.456494    0.982033
      4         11           0       -0.808232   -0.771207    1.849389
      5         11           0       -0.131220    1.515352   -0.824334
      6         11           0        2.572375   -1.102425    1.263349
      7         11           0        3.279565    1.700947   -0.598204
 ---------------------------------------------------------------------

 SCF Done:  E(UB3LYP) =  -1136.12753189     A.U. after   25 cycles

 The electronic state is 2-A.
 Alpha  occ. eigenvalues --  -38.44492 -38.44221 -38.44070 -38.43924 -38.43491
 Alpha  occ. eigenvalues --  -38.43436 -38.43149  -2.20380  -2.20074  -2.19992
 Alpha  occ. eigenvalues --   -2.19824  -2.19394  -2.19238  -2.19028  -1.14062
 Alpha  occ. eigenvalues --   -1.14024  -1.14007  -1.13767  -1.13739  -1.13693
 Alpha  occ. eigenvalues --   -1.13682  -1.13648  -1.13611  -1.13476  -1.13462
 Alpha  occ. eigenvalues --   -1.13452  -1.13090  -1.13076  -1.13013  -1.12904
 Alpha  occ. eigenvalues --   -1.12892  -1.12877  -1.12718  -1.12673  -1.12663
 Alpha  occ. eigenvalues --   -0.18754  -0.13930  -0.11835  -0.11266
 Alpha virt. eigenvalues --   -0.06218  -0.05225  -0.04781  -0.03385  -0.02803
 Alpha virt. eigenvalues --   -0.02449  -0.02052  -0.00947  -0.00730   0.00123
 Alpha virt. eigenvalues --    0.00217   0.00252   0.00423   0.00447   0.00746

  Beta  occ. eigenvalues --  -38.44448 -38.44198 -38.43997 -38.43900 -38.43465
  Beta  occ. eigenvalues --  -38.43435 -38.43130  -2.20302  -2.20032  -2.19860
  Beta  occ. eigenvalues --   -2.19783  -2.19349  -2.19236  -2.18995  -1.13995
  Beta  occ. eigenvalues --   -1.13972  -1.13951  -1.13724  -1.13715  -1.13661
  Beta  occ. eigenvalues --   -1.13600  -1.13560  -1.13518  -1.13447  -1.13429
  Beta  occ. eigenvalues --   -1.13401  -1.13059  -1.13023  -1.12988  -1.12899
  Beta  occ. eigenvalues --   -1.12892  -1.12873  -1.12694  -1.12647  -1.12625
  Beta  occ. eigenvalues --   -0.18020  -0.13747  -0.11009
  Beta virt. eigenvalues --   -0.07836  -0.06080  -0.05041  -0.04172  -0.03003
  Beta virt. eigenvalues --   -0.02230  -0.02027  -0.01715  -0.00773  -0.00370
  Beta virt. eigenvalues --    0.00141   0.00273   0.00325   0.00538   0.00586

 Mulliken charges and spin densities:
               1          2
     1  Na   0.171060   0.068784
     2  Na  -0.067501   0.124287
     3  Na   1.379829   0.055494
     4  Na  -0.926957   0.302952
     5  Na  -1.033246   0.380250
     6  Na   0.645344   0.160776
     7  Na  -0.168529  -0.092543
 Sum of Mulliken charges =  -0.00000   1.00000

 Dipole moment (field-independent basis, Debye):
    X=             -0.6636    Y=             -0.4577    Z=              0.1571  Tot=              0.8213
 Quadrupole moment (field-independent basis, Debye-Ang):
   XX=            -52.5146   YY=            -75.9572   ZZ=            -67.3106
   XY=             -2.4347   XZ=              1.7627   YZ=              0.9769

 Normal termination of Gaussian 16 at Wed Nov 29 15:35:52 2023.
