 Gaussian 16, Revision B.01,
 Gaussian 16:  ES64L-G16RevB.01 20-Dec-2017

 -------------------------
 #P B3LYP/6-311+g(d) force
 -------------------------

 -----
 DPGEN
 -----
 Symbolic Z-matrix:
 Charge =  0 Multiplicity = 2

                         Standard orientation:
 ---------------------------------------------------------------------
 Center     Atomic      Atomic             Coordinates (Angstroms)
 Number     Number       Type             X           Y           Z
 ---------------------------------------------------------------------
      1         11           0       -2.254202    1.936267   -0.337090
      2         11           0       -2.552514   -1.463602    0.187137
      3         11           0       -0.153713   -0.090059   -1.844068
      4         11           0        3.211881   -0.009266   -0.160944
      5         11           0        0.820185   -2.760461   -0.083915
      6         11           0        1.118272    2.570143    0.340388
      7         11           0       -0.189910   -0.183021    1.898492
 ---------------------------------------------------------------------

 SCF Done:  E(UB3LYP) =  -1136.14023666     A.U. after   19 cycles

 The electronic state is 2-A.
 Alpha  occ. eigenvalues --  -38.43965 -38.43697 -38.43487 -38.43452 -38.43432
 Alpha  occ. eigenvalues --  -38.43344 -38.43219  -2.19778  -2.19585  -2.19436
 Alpha  occ. eigenvalues --   -2.19385  -2.19321  -2.19204  -2.19084  -1.13450
 Alpha  occ. eigenvalues --   -1.13441  -1.13422  -1.13311  -1.13256  -1.13210
 Alpha  occ. eigenvalues --   -1.13107  -1.13079  -1.13065  -1.13056  -1.13051
 Alpha  occ. eigenvalues --   -1.13007  -1.12971  -1.12963  -1.12955  -1.12875
 Alpha  occ. eigenvalues --   -1.12871  -1.12821  -1.12763  -1.12745  -1.12713
 Alpha  occ. eigenvalues --   -0.18893  -0.12980  -0.12549  -0.10975
 Alpha virt. eigenvalues --   -0.05518  -0.05031  -0.04613  -0.03204  -0.03027
 Alpha virt. eigenvalues --   -0.02679  -0.01421  -0.01055  -0.00230  -0.00187
 Alpha virt. eigenvalues --    0.00007   0.00369   0.00843   0.00900   0.00940

  Beta  occ. eigenvalues --  -38.43965 -38.43688 -38.43443 -38.43402 -38.43353
  Beta  occ. eigenvalues --  -38.43338 -38.43212  -2.19780  -2.19572  -2.19309
  Beta  occ. eigenvalues --   -2.19280  -2.19241  -2.19198  -2.19073  -1.13450
  Beta  occ. eigenvalues --   -1.13433  -1.13424  -1.13288  -1.13220  -1.13204
  Beta  occ. eigenvalues --   -1.13030  -1.13005  -1.12967  -1.12960  -1.12956
  Beta  occ. eigenvalues --   -1.12947  -1.12938  -1.12915  -1.12891  -1.12855
  Beta  occ. eigenvalues --   -1.12839  -1.12816  -1.12750  -1.12721  -1.12708
  Beta  occ. eigenvalues --   -0.18144  -0.12740  -0.12282
  Beta virt. eigenvalues --   -0.07043  -0.05489  -0.05023  -0.04573  -0.02419
  Beta virt. eigenvalues --   -0.02217  -0.01619  -0.01340  -0.00985  -0.00284
  Beta virt. eigenvalues --   -0.00209   0.00117   0.00388   0.00887   0.00901

 Mulliken charges and spin densities:
               1          2
     1  Na   0.142968  -0.025378
     2  Na   0.358855  -0.064296
     3  Na  -0.293943   0.686498
     4  Na  -0.075602  -0.098515
     5  Na   0.075080  -0.136398
     6  Na   0.064156  -0.047021
     7  Na  -0.271516   0.685110
 Sum of Mulliken charges =  -0.00000   1.00000

 Dipole moment (field-independent basis, Debye):
    X=              0.0345    Y=             -0.1416    Z=             -0.0181  Tot=              0.1469
 Quadrupole moment (field-independent basis, Debye-Ang):
   XX=            -57.3001   YY=            -63.4641   ZZ=            -73.2038
   XY=             -0.3681   XZ=             -0.0700   YZ=              0.1350

 Normal termination of Gaussian 16 at Thu Dec  7 16:42:52 2023.
