 Gaussian 16, Revision B.01,
 Gaussian 16:  ES64L-G16RevB.01 20-Dec-2017

 -------------------------
 #P B3LYP/6-311+g(d) force
 -------------------------

 -----
 DPGEN
 -----
 Symbolic Z-matrix:
 Charge =  0 Multiplicity = 2

                         Standard orientation:
 ---------------------------------------------------------------------
 Center     Atomic      Atomic             Coordinates (Angstroms)
 Number     Number       Type             X           Y           Z
 ---------------------------------------------------------------------
      1         11           0        1.605651   -2.583071   -0.343978
      2         11           0       -0.511487   -0.021627   -1.610157
      3         11           0       -2.624440   -2.025094   -0.140232
      4         11           0       -0.202441    0.145001    2.165707
      5         11           0        1.039943    2.755067   -0.721163
      6         11           0        3.129152    0.035974    0.383129
      7         11           0       -2.436377    1.693751    0.266695
 ---------------------------------------------------------------------

 SCF Done:  E(UB3LYP) =  -1136.13334066     A.U. after   19 cycles

 The electronic state is 2-A.
 Alpha  occ. eigenvalues --  -38.44091 -38.44049 -38.44018 -38.43878 -38.43687
 Alpha  occ. eigenvalues --  -38.43312 -38.43251  -2.19950  -2.19916  -2.19821
 Alpha  occ. eigenvalues --   -2.19716  -2.19511  -2.19226  -2.19143  -1.13657
 Alpha  occ. eigenvalues --   -1.13613  -1.13592  -1.13569  -1.13545  -1.13523
 Alpha  occ. eigenvalues --   -1.13510  -1.13475  -1.13454  -1.13430  -1.13378
 Alpha  occ. eigenvalues --   -1.13356  -1.13185  -1.13161  -1.13138  -1.12913
 Alpha  occ. eigenvalues --   -1.12886  -1.12867  -1.12797  -1.12787  -1.12768
 Alpha  occ. eigenvalues --   -0.18372  -0.13145  -0.12145  -0.11000
 Alpha virt. eigenvalues --   -0.05657  -0.05444  -0.04486  -0.03386  -0.02868
 Alpha virt. eigenvalues --   -0.02770  -0.01511  -0.01212  -0.00466  -0.00264
 Alpha virt. eigenvalues --   -0.00016   0.00360   0.00776   0.00822   0.00886

  Beta  occ. eigenvalues --  -38.44039 -38.44015 -38.43992 -38.43876 -38.43687
  Beta  occ. eigenvalues --  -38.43295 -38.43192  -2.19901  -2.19819  -2.19768
  Beta  occ. eigenvalues --   -2.19713  -2.19512  -2.19118  -2.19114  -1.13619
  Beta  occ. eigenvalues --   -1.13568  -1.13518  -1.13498  -1.13480  -1.13471
  Beta  occ. eigenvalues --   -1.13451  -1.13445  -1.13436  -1.13429  -1.13363
  Beta  occ. eigenvalues --   -1.13352  -1.13179  -1.13156  -1.13138  -1.12852
  Beta  occ. eigenvalues --   -1.12818  -1.12792  -1.12764  -1.12758  -1.12729
  Beta  occ. eigenvalues --   -0.17652  -0.12956  -0.11886
  Beta virt. eigenvalues --   -0.07076  -0.05656  -0.05306  -0.04413  -0.02639
  Beta virt. eigenvalues --   -0.02178  -0.01730  -0.01428  -0.01124  -0.00467
  Beta virt. eigenvalues --   -0.00283   0.00115   0.00395   0.00823   0.00870

 Mulliken charges and spin densities:
               1          2
     1  Na  -0.084491  -0.063303
     2  Na   0.099826   0.350160
     3  Na  -0.035170  -0.077206
     4  Na  -0.329278   0.650154
     5  Na  -0.006091   0.025399
     6  Na   0.040706   0.043071
     7  Na   0.314498   0.071724
 Sum of Mulliken charges =  -0.00000   1.00000

 Dipole moment (field-independent basis, Debye):
    X=             -0.3407    Y=             -0.0776    Z=              0.2793  Tot=              0.4473
 Quadrupole moment (field-independent basis, Debye-Ang):
   XX=            -57.5671   YY=            -63.6217   ZZ=            -73.3768
   XY=              0.9500   XZ=             -0.3848   YZ=             -0.1916

 Normal termination of Gaussian 16 at Thu Dec  7 02:19:24 2023.
