 Gaussian 16, Revision B.01,
 Gaussian 16:  ES64L-G16RevB.01 20-Dec-2017

 -------------------------
 #P B3LYP/6-311+g(d) force
 -------------------------

 -----
 DPGEN
 -----
 Symbolic Z-matrix:
 Charge =  0 Multiplicity = 2

                         Standard orientation:
 ---------------------------------------------------------------------
 Center     Atomic      Atomic             Coordinates (Angstroms)
 Number     Number       Type             X           Y           Z
 ---------------------------------------------------------------------
      1         11           0        2.111175   -2.665479    0.039438
      2         11           0        1.329767    1.072623    0.169341
      3         11           0       -2.329886    0.934146    1.073434
      4         11           0       -0.800284   -1.602539   -0.836607
      5         11           0       -4.179342   -1.584920   -0.034443
      6         11           0       -0.472084    3.786596   -0.657375
      7         11           0        4.340654    0.059573    0.246213
 ---------------------------------------------------------------------

 SCF Done:  E(UB3LYP) =  -1136.12684320     A.U. after   19 cycles

 The electronic state is 2-A.
 Alpha  occ. eigenvalues --  -38.44519 -38.44119 -38.43935 -38.43647 -38.43602
 Alpha  occ. eigenvalues --  -38.43577 -38.43478  -2.20351  -2.19957  -2.19718
 Alpha  occ. eigenvalues --   -2.19505  -2.19472  -2.19436  -2.19374  -1.14062
 Alpha  occ. eigenvalues --   -1.14036  -1.13943  -1.13648  -1.13626  -1.13579
 Alpha  occ. eigenvalues --   -1.13395  -1.13384  -1.13346  -1.13208  -1.13164
 Alpha  occ. eigenvalues --   -1.13143  -1.13138  -1.13109  -1.13105  -1.13087
 Alpha  occ. eigenvalues --   -1.13084  -1.13081  -1.13066  -1.13035  -1.12940
 Alpha  occ. eigenvalues --   -0.17300  -0.14039  -0.12545  -0.10474
 Alpha virt. eigenvalues --   -0.06024  -0.05839  -0.04198  -0.03541  -0.02744
 Alpha virt. eigenvalues --   -0.02284  -0.01902  -0.01411  -0.00867  -0.00444
 Alpha virt. eigenvalues --   -0.00356  -0.00069   0.00464   0.00525   0.00717

  Beta  occ. eigenvalues --  -38.44509 -38.44092 -38.43938 -38.43559 -38.43558
  Beta  occ. eigenvalues --  -38.43533 -38.43466  -2.20334  -2.19914  -2.19723
  Beta  occ. eigenvalues --   -2.19396  -2.19359  -2.19354  -2.19340  -1.14049
  Beta  occ. eigenvalues --   -1.14029  -1.13914  -1.13603  -1.13590  -1.13537
  Beta  occ. eigenvalues --   -1.13400  -1.13388  -1.13348  -1.13122  -1.13103
  Beta  occ. eigenvalues --   -1.13094  -1.13076  -1.13043  -1.13028  -1.13025
  Beta  occ. eigenvalues --   -1.13023  -1.13020  -1.13004  -1.12973  -1.12915
  Beta  occ. eigenvalues --   -0.16800  -0.13365  -0.12220
  Beta virt. eigenvalues --   -0.06897  -0.05892  -0.05698  -0.03918  -0.02951
  Beta virt. eigenvalues --   -0.02361  -0.02178  -0.01769  -0.00977  -0.00683
  Beta virt. eigenvalues --   -0.00234  -0.00041   0.00207   0.00533   0.00660

 Mulliken charges and spin densities:
               1          2
     1  Na   0.331860   0.064800
     2  Na  -1.329929   0.087039
     3  Na   0.077300   0.114456
     4  Na  -0.327002   0.152850
     5  Na   0.469813   0.227683
     6  Na   0.623591  -0.035940
     7  Na   0.154367   0.389111
 Sum of Mulliken charges =  -0.00000   1.00000

 Dipole moment (field-independent basis, Debye):
    X=             -0.5316    Y=             -0.0935    Z=             -0.1982  Tot=              0.5750
 Quadrupole moment (field-independent basis, Debye-Ang):
   XX=            -66.3505   YY=            -61.3625   ZZ=            -68.8351
   XY=             -3.9054   XZ=             -0.0303   YZ=             -1.7485

 Normal termination of Gaussian 16 at Tue Nov 28 22:33:36 2023.
