 Gaussian 16, Revision B.01,
 Gaussian 16:  ES64L-G16RevB.01 20-Dec-2017

 -------------------------
 #P B3LYP/6-311+g(d) force
 -------------------------

 -----
 DPGEN
 -----
 Symbolic Z-matrix:
 Charge =  0 Multiplicity = 2

                         Standard orientation:
 ---------------------------------------------------------------------
 Center     Atomic      Atomic             Coordinates (Angstroms)
 Number     Number       Type             X           Y           Z
 ---------------------------------------------------------------------
      1         11           0        3.761002   -1.427071   -0.572717
      2         11           0       -2.249592   -0.506010    1.694246
      3         11           0       -0.459030   -1.012424   -1.330611
      4         11           0        1.493223   -0.844448    1.975311
      5         11           0       -1.157320    2.271248    0.718791
      6         11           0        2.576548    2.090552   -1.011381
      7         11           0       -3.964831   -0.571846   -1.473638
 ---------------------------------------------------------------------

 SCF Done:  E(UB3LYP) =  -1136.11746675     A.U. after   28 cycles

 The electronic state is 2-A.
 Alpha  occ. eigenvalues --  -38.45127 -38.44763 -38.44335 -38.44320 -38.44165
 Alpha  occ. eigenvalues --  -38.43769 -38.43371  -2.20903  -2.20549  -2.20141
 Alpha  occ. eigenvalues --   -2.20120  -2.20040  -2.19577  -2.19162  -1.14571
 Alpha  occ. eigenvalues --   -1.14537  -1.14512  -1.14270  -1.14238  -1.14135
 Alpha  occ. eigenvalues --   -1.13832  -1.13812  -1.13786  -1.13782  -1.13759
 Alpha  occ. eigenvalues --   -1.13748  -1.13730  -1.13716  -1.13630  -1.13250
 Alpha  occ. eigenvalues --   -1.13236  -1.13212  -1.12837  -1.12825  -1.12792
 Alpha  occ. eigenvalues --   -0.17559  -0.13915  -0.11565  -0.10748
 Alpha virt. eigenvalues --   -0.06569  -0.05713  -0.05272  -0.03245  -0.02662
 Alpha virt. eigenvalues --   -0.02477  -0.02364  -0.01381  -0.01171  -0.00293
 Alpha virt. eigenvalues --   -0.00009   0.00029   0.00160   0.00192   0.00510

  Beta  occ. eigenvalues --  -38.45042 -38.44761 -38.44324 -38.44257 -38.44153
  Beta  occ. eigenvalues --  -38.43764 -38.43370  -2.20744  -2.20548  -2.20101
  Beta  occ. eigenvalues --   -2.20025  -2.20017  -2.19568  -2.19160  -1.14461
  Beta  occ. eigenvalues --   -1.14431  -1.14398  -1.14249  -1.14240  -1.14139
  Beta  occ. eigenvalues --   -1.13782  -1.13765  -1.13748  -1.13744  -1.13738
  Beta  occ. eigenvalues --   -1.13707  -1.13704  -1.13647  -1.13608  -1.13244
  Beta  occ. eigenvalues --   -1.13219  -1.13205  -1.12834  -1.12825  -1.12791
  Beta  occ. eigenvalues --   -0.16971  -0.13627  -0.10641
  Beta virt. eigenvalues --   -0.07729  -0.06460  -0.05164  -0.04809  -0.02852
  Beta virt. eigenvalues --   -0.02497  -0.02135  -0.01910  -0.01235  -0.00629
  Beta virt. eigenvalues --   -0.00136   0.00066   0.00142   0.00227   0.00376

 Mulliken charges and spin densities:
               1          2
     1  Na   0.667603   0.125693
     2  Na   0.446571   0.079483
     3  Na  -0.937050   0.082127
     4  Na  -0.249141   0.334972
     5  Na  -0.237070   0.075540
     6  Na  -0.044457   0.386906
     7  Na   0.353543  -0.084721
 Sum of Mulliken charges =  -0.00000   1.00000

 Dipole moment (field-independent basis, Debye):
    X=              0.6737    Y=              0.2105    Z=              0.3058  Tot=              0.7692
 Quadrupole moment (field-independent basis, Debye-Ang):
   XX=            -54.8044   YY=            -70.7489   ZZ=            -73.2476
   XY=             -2.6471   XZ=             -3.7988   YZ=             -5.4398

 Normal termination of Gaussian 16 at Fri Dec  8 02:44:05 2023.
