 Gaussian 16, Revision B.01,
 Gaussian 16:  ES64L-G16RevB.01 20-Dec-2017

 -------------------------
 #P B3LYP/6-311+g(d) force
 -------------------------

 -----
 DPGEN
 -----
 Symbolic Z-matrix:
 Charge =  0 Multiplicity = 2

                         Standard orientation:
 ---------------------------------------------------------------------
 Center     Atomic      Atomic             Coordinates (Angstroms)
 Number     Number       Type             X           Y           Z
 ---------------------------------------------------------------------
      1         11           0        1.032174   -0.575168    1.975526
      2         11           0       -2.174817   -1.454980    0.342136
      3         11           0        0.700363   -2.646537   -0.546316
      4         11           0        3.200725   -0.015842   -0.988970
      5         11           0        1.695568    2.723523    0.446744
      6         11           0       -0.392458    0.739393   -0.952984
      7         11           0       -4.061555    1.229612   -0.276137
 ---------------------------------------------------------------------

 SCF Done:  E(UB3LYP) =  -1136.12837691     A.U. after   21 cycles

 The electronic state is 2-A.
 Alpha  occ. eigenvalues --  -38.44314 -38.44303 -38.43892 -38.43613 -38.43571
 Alpha  occ. eigenvalues --  -38.43568 -38.42895  -2.20162  -2.20084  -2.19837
 Alpha  occ. eigenvalues --   -2.19521  -2.19490  -2.19416  -2.18795  -1.13832
 Alpha  occ. eigenvalues --   -1.13809  -1.13782  -1.13759  -1.13746  -1.13717
 Alpha  occ. eigenvalues --   -1.13576  -1.13548  -1.13439  -1.13204  -1.13192
 Alpha  occ. eigenvalues --   -1.13174  -1.13160  -1.13122  -1.13095  -1.13079
 Alpha  occ. eigenvalues --   -1.13056  -1.13046  -1.12471  -1.12456  -1.12429
 Alpha  occ. eigenvalues --   -0.18538  -0.13628  -0.12056  -0.10506
 Alpha virt. eigenvalues --   -0.06676  -0.05139  -0.04377  -0.03163  -0.02586
 Alpha virt. eigenvalues --   -0.02544  -0.01956  -0.01244  -0.00743  -0.00297
 Alpha virt. eigenvalues --   -0.00043   0.00170   0.00516   0.00733   0.00794

  Beta  occ. eigenvalues --  -38.44304 -38.44263 -38.43877 -38.43565 -38.43556
  Beta  occ. eigenvalues --  -38.43533 -38.42883  -2.20085  -2.20067  -2.19814
  Beta  occ. eigenvalues --   -2.19483  -2.19396  -2.19374  -2.18776  -1.13760
  Beta  occ. eigenvalues --   -1.13759  -1.13749  -1.13745  -1.13717  -1.13710
  Beta  occ. eigenvalues --   -1.13563  -1.13505  -1.13424  -1.13196  -1.13148
  Beta  occ. eigenvalues --   -1.13097  -1.13085  -1.13072  -1.13066  -1.13041
  Beta  occ. eigenvalues --   -1.13026  -1.13000  -1.12461  -1.12446  -1.12385
  Beta  occ. eigenvalues --   -0.17873  -0.13405  -0.11852
  Beta virt. eigenvalues --   -0.06709  -0.06376  -0.05077  -0.04202  -0.02645
  Beta virt. eigenvalues --   -0.02311  -0.02006  -0.01284  -0.01066  -0.00600
  Beta virt. eigenvalues --   -0.00083   0.00048   0.00258   0.00617   0.00784

 Mulliken charges and spin densities:
               1          2
     1  Na  -0.498543   0.354636
     2  Na   0.316157  -0.010765
     3  Na   0.146694   0.129419
     4  Na   0.362630   0.267094
     5  Na   0.184904  -0.007758
     6  Na  -0.885134   0.294411
     7  Na   0.373291  -0.027036
 Sum of Mulliken charges =  -0.00000   1.00000

 Dipole moment (field-independent basis, Debye):
    X=             -0.0829    Y=              0.2945    Z=              0.3824  Tot=              0.4898
 Quadrupole moment (field-independent basis, Debye-Ang):
   XX=            -54.4185   YY=            -65.4180   ZZ=            -73.2800
   XY=             -0.8387   XZ=             -0.1644   YZ=              0.6961

 Normal termination of Gaussian 16 at Tue Dec  5 23:13:40 2023.
