 Gaussian 16, Revision B.01,
 Gaussian 16:  ES64L-G16RevB.01 20-Dec-2017

 -------------------------
 #P B3LYP/6-311+g(d) force
 -------------------------

 -----
 DPGEN
 -----
 Symbolic Z-matrix:
 Charge =  0 Multiplicity = 2

                         Standard orientation:
 ---------------------------------------------------------------------
 Center     Atomic      Atomic             Coordinates (Angstroms)
 Number     Number       Type             X           Y           Z
 ---------------------------------------------------------------------
      1         11           0        0.513101    3.209322   -0.274891
      2         11           0       -3.050851    1.103055   -0.094631
      3         11           0       -0.048107    0.559167   -1.238885
      4         11           0        3.140638   -0.034848   -0.207099
      5         11           0        1.247872   -2.522580   -0.477113
      6         11           0        0.303192    0.053791    2.435181
      7         11           0       -2.105845   -2.367907   -0.142563
 ---------------------------------------------------------------------

 SCF Done:  E(UB3LYP) =  -1136.12930947     A.U. after   18 cycles

 The electronic state is 2-A.
 Alpha  occ. eigenvalues --  -38.44421 -38.44162 -38.44069 -38.43980 -38.43670
 Alpha  occ. eigenvalues --  -38.43339 -38.42971  -2.20217  -2.19994  -2.19914
 Alpha  occ. eigenvalues --   -2.19805  -2.19481  -2.19221  -2.19005  -1.13911
 Alpha  occ. eigenvalues --   -1.13880  -1.13840  -1.13768  -1.13630  -1.13611
 Alpha  occ. eigenvalues --   -1.13598  -1.13569  -1.13551  -1.13445  -1.13425
 Alpha  occ. eigenvalues --   -1.13422  -1.13159  -1.13147  -1.13124  -1.12905
 Alpha  occ. eigenvalues --   -1.12868  -1.12862  -1.12684  -1.12660  -1.12625
 Alpha  occ. eigenvalues --   -0.18268  -0.12861  -0.12545  -0.10740
 Alpha virt. eigenvalues --   -0.06019  -0.05095  -0.04829  -0.02976  -0.02801
 Alpha virt. eigenvalues --   -0.02773  -0.01596  -0.01365  -0.00616  -0.00423
 Alpha virt. eigenvalues --   -0.00044   0.00310   0.00752   0.00836   0.00881

  Beta  occ. eigenvalues --  -38.44420 -38.44157 -38.44064 -38.43855 -38.43670
  Beta  occ. eigenvalues --  -38.43329 -38.42938  -2.20218  -2.19987  -2.19908
  Beta  occ. eigenvalues --   -2.19574  -2.19481  -2.19205  -2.18946  -1.13907
  Beta  occ. eigenvalues --   -1.13872  -1.13843  -1.13759  -1.13613  -1.13607
  Beta  occ. eigenvalues --   -1.13596  -1.13554  -1.13539  -1.13290  -1.13266
  Beta  occ. eigenvalues --   -1.13261  -1.13159  -1.13136  -1.13125  -1.12891
  Beta  occ. eigenvalues --   -1.12855  -1.12839  -1.12635  -1.12614  -1.12582
  Beta  occ. eigenvalues --   -0.17608  -0.12681  -0.12360
  Beta virt. eigenvalues --   -0.06652  -0.06009  -0.05033  -0.04791  -0.02254
  Beta virt. eigenvalues --   -0.02085  -0.01609  -0.01527  -0.01314  -0.00648
  Beta virt. eigenvalues --   -0.00442   0.00164   0.00371   0.00761   0.00885

 Mulliken charges and spin densities:
               1          2
     1  Na   0.241217   0.074321
     2  Na   0.173556   0.046542
     3  Na  -0.442382  -0.114997
     4  Na   0.388164   0.093113
     5  Na   0.170705   0.092592
     6  Na  -0.648430   0.770211
     7  Na   0.117171   0.038217
 Sum of Mulliken charges =  -0.00000   1.00000

 Dipole moment (field-independent basis, Debye):
    X=             -0.1404    Y=              0.4383    Z=              0.2183  Tot=              0.5094
 Quadrupole moment (field-independent basis, Debye-Ang):
   XX=            -57.0978   YY=            -60.8131   ZZ=            -75.7857
   XY=              0.3526   XZ=             -0.7917   YZ=              0.9087

 Normal termination of Gaussian 16 at Fri Dec  8 17:09:46 2023.
