 Gaussian 16, Revision B.01,
 Gaussian 16:  ES64L-G16RevB.01 20-Dec-2017

 -------------------------
 #P B3LYP/6-311+g(d) force
 -------------------------

 -----
 DPGEN
 -----
 Symbolic Z-matrix:
 Charge =  0 Multiplicity = 2

                         Standard orientation:
 ---------------------------------------------------------------------
 Center     Atomic      Atomic             Coordinates (Angstroms)
 Number     Number       Type             X           Y           Z
 ---------------------------------------------------------------------
      1         11           0       -2.222796   -2.286038   -0.391418
      2         11           0       -4.134795    0.535331    0.462143
      3         11           0        0.068083   -0.521314    1.533857
      4         11           0        2.290945    1.841812    0.267648
      5         11           0       -0.925358    2.314328   -0.762233
      6         11           0        0.810998   -0.859774   -1.266905
      7         11           0        4.112923   -1.024346    0.156907
 ---------------------------------------------------------------------

 SCF Done:  E(UB3LYP) =  -1136.11913918     A.U. after   23 cycles

 The electronic state is 2-A.
 Alpha  occ. eigenvalues --  -38.46017 -38.44217 -38.43887 -38.43726 -38.43704
 Alpha  occ. eigenvalues --  -38.43568 -38.42759  -2.21903  -2.20183  -2.19698
 Alpha  occ. eigenvalues --   -2.19599  -2.19557  -2.19402  -2.18590  -1.15671
 Alpha  occ. eigenvalues --   -1.15518  -1.15506  -1.13922  -1.13802  -1.13782
 Alpha  occ. eigenvalues --   -1.13353  -1.13330  -1.13314  -1.13305  -1.13278
 Alpha  occ. eigenvalues --   -1.13239  -1.13216  -1.13184  -1.13153  -1.13088
 Alpha  occ. eigenvalues --   -1.13060  -1.13039  -1.12283  -1.12253  -1.12223
 Alpha  occ. eigenvalues --   -0.18374  -0.14141  -0.11540  -0.10511
 Alpha virt. eigenvalues --   -0.07191  -0.05475  -0.04312  -0.03175  -0.03117
 Alpha virt. eigenvalues --   -0.02223  -0.01799  -0.01454  -0.00952  -0.00580
 Alpha virt. eigenvalues --   -0.00339   0.00049   0.00370   0.00572   0.00690

  Beta  occ. eigenvalues --  -38.46010 -38.44179 -38.43793 -38.43695 -38.43662
  Beta  occ. eigenvalues --  -38.43561 -38.42760  -2.21893  -2.20117  -2.19585
  Beta  occ. eigenvalues --   -2.19521  -2.19439  -2.19394  -2.18595  -1.15647
  Beta  occ. eigenvalues --   -1.15518  -1.15506  -1.13876  -1.13752  -1.13729
  Beta  occ. eigenvalues --   -1.13300  -1.13270  -1.13232  -1.13210  -1.13198
  Beta  occ. eigenvalues --   -1.13183  -1.13136  -1.13106  -1.13090  -1.13087
  Beta  occ. eigenvalues --   -1.13057  -1.12997  -1.12283  -1.12256  -1.12216
  Beta  occ. eigenvalues --   -0.17943  -0.13334  -0.11310
  Beta virt. eigenvalues --   -0.07092  -0.06961  -0.05323  -0.03753  -0.02946
  Beta virt. eigenvalues --   -0.02761  -0.01975  -0.01519  -0.01298  -0.00560
  Beta virt. eigenvalues --   -0.00262  -0.00039   0.00159   0.00534   0.00679

 Mulliken charges and spin densities:
               1          2
     1  Na   0.225158  -0.060617
     2  Na  -0.177674   0.640994
     3  Na  -0.090542  -0.166227
     4  Na   0.172915   0.150014
     5  Na  -0.317929  -0.127910
     6  Na   0.034575   0.176632
     7  Na   0.153496   0.387115
 Sum of Mulliken charges =  -0.00000   1.00000

 Dipole moment (field-independent basis, Debye):
    X=              0.6095    Y=             -0.4395    Z=              0.1895  Tot=              0.7749
 Quadrupole moment (field-independent basis, Debye-Ang):
   XX=            -71.4921   YY=            -73.6032   ZZ=            -61.5480
   XY=              2.3755   XZ=              0.8966   YZ=              1.0564

 Normal termination of Gaussian 16 at Fri Dec  8 03:32:27 2023.
