 Gaussian 16, Revision B.01,
 Gaussian 16:  ES64L-G16RevB.01 20-Dec-2017

 -------------------------
 #P B3LYP/6-311+g(d) force
 -------------------------

 -----
 DPGEN
 -----
 Symbolic Z-matrix:
 Charge =  0 Multiplicity = 2

                         Standard orientation:
 ---------------------------------------------------------------------
 Center     Atomic      Atomic             Coordinates (Angstroms)
 Number     Number       Type             X           Y           Z
 ---------------------------------------------------------------------
      1         11           0       -2.319224    2.577692    0.281373
      2         11           0        2.263967   -1.500235   -0.389750
      3         11           0        4.876992    0.324033   -0.175914
      4         11           0       -3.917308   -1.017368   -0.199140
      5         11           0        1.218858    1.671825    0.487503
      6         11           0       -1.364458   -0.348815   -1.676765
      7         11           0       -0.758826   -1.707132    1.672693
 ---------------------------------------------------------------------

 SCF Done:  E(UB3LYP) =  -1136.11753962     A.U. after   24 cycles

 The electronic state is 2-A.
 Alpha  occ. eigenvalues --  -38.45498 -38.44324 -38.44212 -38.44203 -38.43831
 Alpha  occ. eigenvalues --  -38.43511 -38.43030  -2.21361  -2.20152  -2.20061
 Alpha  occ. eigenvalues --   -2.20020  -2.19690  -2.19329  -2.18816  -1.15091
 Alpha  occ. eigenvalues --   -1.15017  -1.14963  -1.13815  -1.13791  -1.13766
 Alpha  occ. eigenvalues --   -1.13750  -1.13698  -1.13684  -1.13670  -1.13664
 Alpha  occ. eigenvalues --   -1.13644  -1.13388  -1.13366  -1.13312  -1.13033
 Alpha  occ. eigenvalues --   -1.13016  -1.12918  -1.12504  -1.12472  -1.12458
 Alpha  occ. eigenvalues --   -0.17669  -0.14403  -0.11103  -0.10868
 Alpha virt. eigenvalues --   -0.07211  -0.05321  -0.04328  -0.03436  -0.03173
 Alpha virt. eigenvalues --   -0.02297  -0.01811  -0.01452  -0.01116  -0.00830
 Alpha virt. eigenvalues --   -0.00496   0.00110   0.00276   0.00587   0.00685

  Beta  occ. eigenvalues --  -38.45485 -38.44244 -38.44177 -38.44145 -38.43823
  Beta  occ. eigenvalues --  -38.43489 -38.43035  -2.21342  -2.20002  -2.19959
  Beta  occ. eigenvalues --   -2.19952  -2.19682  -2.19291  -2.18828  -1.15064
  Beta  occ. eigenvalues --   -1.14981  -1.14958  -1.13714  -1.13688  -1.13672
  Beta  occ. eigenvalues --   -1.13669  -1.13645  -1.13629  -1.13619  -1.13604
  Beta  occ. eigenvalues --   -1.13581  -1.13387  -1.13363  -1.13260  -1.13011
  Beta  occ. eigenvalues --   -1.12975  -1.12891  -1.12514  -1.12482  -1.12450
  Beta  occ. eigenvalues --   -0.17083  -0.13650  -0.10876
  Beta virt. eigenvalues --   -0.07400  -0.07020  -0.05222  -0.03605  -0.03103
  Beta virt. eigenvalues --   -0.02998  -0.02106  -0.01426  -0.01327  -0.00620
  Beta virt. eigenvalues --   -0.00429  -0.00285   0.00143   0.00375   0.00663

 Mulliken charges and spin densities:
               1          2
     1  Na  -0.073949  -0.063775
     2  Na  -0.044889   0.079702
     3  Na   0.375284   0.439742
     4  Na   0.384012   0.345578
     5  Na  -0.500192   0.058877
     6  Na  -0.092630   0.044992
     7  Na  -0.047637   0.094884
 Sum of Mulliken charges =  -0.00000   1.00000

 Dipole moment (field-independent basis, Debye):
    X=             -0.1590    Y=             -0.5472    Z=              0.2296  Tot=              0.6143
 Quadrupole moment (field-independent basis, Debye-Ang):
   XX=            -60.8131   YY=            -78.3120   ZZ=            -62.8541
   XY=              1.1185   XZ=             -2.7561   YZ=              1.5198

 Normal termination of Gaussian 16 at Mon Dec  4 05:32:57 2023.
