 Gaussian 16, Revision B.01,
 Gaussian 16:  ES64L-G16RevB.01 20-Dec-2017

 -------------------------
 #P B3LYP/6-311+g(d) force
 -------------------------

 -----
 DPGEN
 -----
 Symbolic Z-matrix:
 Charge =  0 Multiplicity = 2

                         Standard orientation:
 ---------------------------------------------------------------------
 Center     Atomic      Atomic             Coordinates (Angstroms)
 Number     Number       Type             X           Y           Z
 ---------------------------------------------------------------------
      1         11           0       -0.015544   -0.278963    2.304662
      2         11           0       -2.954275   -1.225304   -0.110771
      3         11           0        3.168210   -0.839515   -0.094861
      4         11           0       -2.053449    2.455787   -0.083728
      5         11           0        1.654516    2.390913    0.144800
      6         11           0        0.220110    0.307057   -1.855249
      7         11           0       -0.019567   -2.809974   -0.304853
 ---------------------------------------------------------------------

 SCF Done:  E(UB3LYP) =  -1136.13730343     A.U. after   19 cycles

 The electronic state is 2-A.
 Alpha  occ. eigenvalues --  -38.44202 -38.43971 -38.43921 -38.43700 -38.43679
 Alpha  occ. eigenvalues --  -38.43662 -38.43276  -2.20029  -2.19770  -2.19724
 Alpha  occ. eigenvalues --   -2.19608  -2.19504  -2.19467  -2.19125  -1.13681
 Alpha  occ. eigenvalues --   -1.13659  -1.13649  -1.13443  -1.13429  -1.13421
 Alpha  occ. eigenvalues --   -1.13398  -1.13388  -1.13370  -1.13319  -1.13270
 Alpha  occ. eigenvalues --   -1.13224  -1.13171  -1.13162  -1.13142  -1.13128
 Alpha  occ. eigenvalues --   -1.13121  -1.13099  -1.12808  -1.12792  -1.12752
 Alpha  occ. eigenvalues --   -0.18142  -0.12723  -0.12308  -0.11028
 Alpha virt. eigenvalues --   -0.05547  -0.05373  -0.04688  -0.03291  -0.03044
 Alpha virt. eigenvalues --   -0.02943  -0.01491  -0.01121  -0.00442  -0.00354
 Alpha virt. eigenvalues --   -0.00093   0.00368   0.00734   0.00846   0.00862

  Beta  occ. eigenvalues --  -38.44098 -38.43970 -38.43921 -38.43679 -38.43657
  Beta  occ. eigenvalues --  -38.43635 -38.43269  -2.19838  -2.19772  -2.19726
  Beta  occ. eigenvalues --   -2.19498  -2.19489  -2.19469  -2.19115  -1.13554
  Beta  occ. eigenvalues --   -1.13523  -1.13513  -1.13432  -1.13425  -1.13421
  Beta  occ. eigenvalues --   -1.13395  -1.13378  -1.13373  -1.13263  -1.13194
  Beta  occ. eigenvalues --   -1.13155  -1.13151  -1.13130  -1.13123  -1.13119
  Beta  occ. eigenvalues --   -1.13112  -1.13101  -1.12799  -1.12762  -1.12749
  Beta  occ. eigenvalues --   -0.17395  -0.12550  -0.12119
  Beta virt. eigenvalues --   -0.07074  -0.05496  -0.05382  -0.04550  -0.02500
  Beta virt. eigenvalues --   -0.02293  -0.01920  -0.01406  -0.01060  -0.00491
  Beta virt. eigenvalues --   -0.00406   0.00077   0.00392   0.00828   0.00846

 Mulliken charges and spin densities:
               1          2
     1  Na  -0.538603   0.761441
     2  Na   0.050227  -0.071155
     3  Na   0.187649  -0.052690
     4  Na   0.040567  -0.084888
     5  Na   0.148567  -0.019899
     6  Na  -0.032766   0.502480
     7  Na   0.144359  -0.035288
 Sum of Mulliken charges =  -0.00000   1.00000

 Dipole moment (field-independent basis, Debye):
    X=              0.0778    Y=              0.0520    Z=              0.1250  Tot=              0.1561
 Quadrupole moment (field-independent basis, Debye-Ang):
   XX=            -57.7641   YY=            -64.7621   ZZ=            -72.4275
   XY=             -0.5991   XZ=              0.3431   YZ=              1.1192

 Normal termination of Gaussian 16 at Fri Dec  8 05:21:10 2023.
