 Gaussian 16, Revision B.01,
 Gaussian 16:  ES64L-G16RevB.01 20-Dec-2017

 -------------------------
 #P B3LYP/6-311+g(d) force
 -------------------------

 -----
 DPGEN
 -----
 Symbolic Z-matrix:
 Charge =  0 Multiplicity = 2

                         Standard orientation:
 ---------------------------------------------------------------------
 Center     Atomic      Atomic             Coordinates (Angstroms)
 Number     Number       Type             X           Y           Z
 ---------------------------------------------------------------------
      1         11           0        1.804433   -2.814656    0.704653
      2         11           0       -1.397817   -2.427944   -0.973135
      3         11           0        1.755353    2.801646   -0.493870
      4         11           0       -1.882433    2.514073    0.426108
      5         11           0       -3.602566   -0.243368   -0.443290
      6         11           0        0.012980   -0.018033    1.558961
      7         11           0        3.310051    0.188281   -0.779427
 ---------------------------------------------------------------------

 SCF Done:  E(UB3LYP) =  -1136.12715955     A.U. after   19 cycles

 The electronic state is 2-A.
 Alpha  occ. eigenvalues --  -38.44170 -38.44140 -38.44125 -38.43953 -38.43911
 Alpha  occ. eigenvalues --  -38.43875 -38.43774  -2.20034  -2.19971  -2.19964
 Alpha  occ. eigenvalues --   -2.19800  -2.19745  -2.19697  -2.19605  -1.13724
 Alpha  occ. eigenvalues --   -1.13686  -1.13681  -1.13675  -1.13670  -1.13639
 Alpha  occ. eigenvalues --   -1.13620  -1.13601  -1.13581  -1.13467  -1.13448
 Alpha  occ. eigenvalues --   -1.13440  -1.13410  -1.13395  -1.13362  -1.13357
 Alpha  occ. eigenvalues --   -1.13342  -1.13336  -1.13272  -1.13266  -1.13226
 Alpha  occ. eigenvalues --   -0.17424  -0.13759  -0.12970  -0.10451
 Alpha virt. eigenvalues --   -0.06310  -0.05744  -0.04377  -0.03532  -0.03280
 Alpha virt. eigenvalues --   -0.01819  -0.01628  -0.01382  -0.01171  -0.00806
 Alpha virt. eigenvalues --   -0.00022   0.00322   0.00450   0.00610   0.00759

  Beta  occ. eigenvalues --  -38.44116 -38.44107 -38.44081 -38.43922 -38.43890
  Beta  occ. eigenvalues --  -38.43855 -38.43755  -2.19936  -2.19912  -2.19887
  Beta  occ. eigenvalues --   -2.19745  -2.19707  -2.19662  -2.19575  -1.13659
  Beta  occ. eigenvalues --   -1.13638  -1.13627  -1.13619  -1.13603  -1.13590
  Beta  occ. eigenvalues --   -1.13570  -1.13540  -1.13516  -1.13435  -1.13411
  Beta  occ. eigenvalues --   -1.13393  -1.13374  -1.13366  -1.13328  -1.13326
  Beta  occ. eigenvalues --   -1.13321  -1.13313  -1.13251  -1.13248  -1.13177
  Beta  occ. eigenvalues --   -0.16939  -0.13159  -0.12536
  Beta virt. eigenvalues --   -0.06999  -0.06327  -0.05582  -0.04090  -0.02959
  Beta virt. eigenvalues --   -0.02659  -0.01721  -0.01404  -0.01017  -0.00986
  Beta virt. eigenvalues --   -0.00682   0.00218   0.00413   0.00556   0.00706

 Mulliken charges and spin densities:
               1          2
     1  Na   0.552687   0.136068
     2  Na  -0.206013   0.158306
     3  Na  -0.075906   0.052887
     4  Na   0.282497   0.029302
     5  Na  -0.009822   0.103236
     6  Na  -0.395746   0.342605
     7  Na  -0.147697   0.177596
 Sum of Mulliken charges =  -0.00000   1.00000

 Dipole moment (field-independent basis, Debye):
    X=             -0.0341    Y=             -0.1765    Z=              0.0605  Tot=              0.1897
 Quadrupole moment (field-independent basis, Debye-Ang):
   XX=            -64.3557   YY=            -62.3588   ZZ=            -72.4329
   XY=             -8.4012   XZ=             -0.1095   YZ=             -0.0770

 Normal termination of Gaussian 16 at Sun Dec  3 20:01:59 2023.
