 Gaussian 16, Revision B.01,
 Gaussian 16:  ES64L-G16RevB.01 20-Dec-2017

 -------------------------
 #P B3LYP/6-311+g(d) force
 -------------------------

 -----
 DPGEN
 -----
 Symbolic Z-matrix:
 Charge =  0 Multiplicity = 2

                         Standard orientation:
 ---------------------------------------------------------------------
 Center     Atomic      Atomic             Coordinates (Angstroms)
 Number     Number       Type             X           Y           Z
 ---------------------------------------------------------------------
      1         11           0       -4.914837    0.010926    0.150257
      2         11           0       -2.479030   -2.458290    0.403996
      3         11           0       -1.038066    1.328487   -0.597295
      4         11           0        0.044024    3.771834   -0.337518
      5         11           0        2.755917    1.854790    0.920079
      6         11           0        1.718648   -3.509026   -0.323735
      7         11           0        3.913343   -0.998721   -0.215785
 ---------------------------------------------------------------------

 SCF Done:  E(UB3LYP) =  -1136.10977733     A.U. after   20 cycles

 The electronic state is 2-A.
 Alpha  occ. eigenvalues --  -38.45153 -38.45037 -38.44566 -38.44481 -38.44143
 Alpha  occ. eigenvalues --  -38.43720 -38.43642  -2.20905  -2.20894  -2.20347
 Alpha  occ. eigenvalues --   -2.20305  -2.20045  -2.19505  -2.19456  -1.14744
 Alpha  occ. eigenvalues --   -1.14589  -1.14575  -1.14553  -1.14520  -1.14514
 Alpha  occ. eigenvalues --   -1.14005  -1.14001  -1.13977  -1.13976  -1.13956
 Alpha  occ. eigenvalues --   -1.13913  -1.13707  -1.13651  -1.13628  -1.13177
 Alpha  occ. eigenvalues --   -1.13167  -1.13147  -1.13129  -1.13125  -1.13070
 Alpha  occ. eigenvalues --   -0.16227  -0.13800  -0.13211  -0.10509
 Alpha virt. eigenvalues --   -0.06784  -0.05596  -0.04253  -0.03701  -0.03125
 Alpha virt. eigenvalues --   -0.02419  -0.01985  -0.01783  -0.01503  -0.00636
 Alpha virt. eigenvalues --   -0.00376   0.00049   0.00332   0.00442   0.00637

  Beta  occ. eigenvalues --  -38.45154 -38.45016 -38.44516 -38.44419 -38.44123
  Beta  occ. eigenvalues --  -38.43670 -38.43633  -2.20901  -2.20868  -2.20253
  Beta  occ. eigenvalues --   -2.20193  -2.20009  -2.19444  -2.19409  -1.14708
  Beta  occ. eigenvalues --   -1.14597  -1.14581  -1.14527  -1.14499  -1.14490
  Beta  occ. eigenvalues --   -1.13940  -1.13934  -1.13903  -1.13900  -1.13897
  Beta  occ. eigenvalues --   -1.13822  -1.13672  -1.13628  -1.13607  -1.13140
  Beta  occ. eigenvalues --   -1.13125  -1.13108  -1.13098  -1.13078  -1.13026
  Beta  occ. eigenvalues --   -0.15836  -0.13216  -0.12748
  Beta virt. eigenvalues --   -0.07174  -0.06584  -0.05288  -0.03986  -0.03400
  Beta virt. eigenvalues --   -0.02672  -0.02206  -0.01686  -0.01574  -0.01375
  Beta virt. eigenvalues --   -0.00293  -0.00116   0.00267   0.00407   0.00514

 Mulliken charges and spin densities:
               1          2
     1  Na   0.657546   0.284778
     2  Na   0.024172   0.061235
     3  Na  -1.271921   0.043030
     4  Na   0.741586  -0.005683
     5  Na  -0.091425   0.361455
     6  Na  -0.039539   0.260386
     7  Na  -0.020419  -0.005200
 Sum of Mulliken charges =  -0.00000   1.00000

 Dipole moment (field-independent basis, Debye):
    X=             -1.2933    Y=              1.2207    Z=              0.1564  Tot=              1.7853
 Quadrupole moment (field-independent basis, Debye-Ang):
   XX=            -65.1024   YY=            -61.7668   ZZ=            -72.5602
   XY=             -0.0172   XZ=             -0.6588   YZ=              0.0726

 Normal termination of Gaussian 16 at Mon Dec  4 00:59:20 2023.
