 Gaussian 16, Revision B.01,
 Gaussian 16:  ES64L-G16RevB.01 20-Dec-2017

 -------------------------
 #P B3LYP/6-311+g(d) force
 -------------------------

 -----
 DPGEN
 -----
 Symbolic Z-matrix:
 Charge =  0 Multiplicity = 2

                         Standard orientation:
 ---------------------------------------------------------------------
 Center     Atomic      Atomic             Coordinates (Angstroms)
 Number     Number       Type             X           Y           Z
 ---------------------------------------------------------------------
      1         11           0       -1.953230   -2.346048   -1.011344
      2         11           0        2.451282   -1.212042    1.175758
      3         11           0        3.228796    0.664402   -1.299766
      4         11           0        0.477354    0.272764   -1.166113
      5         11           0       -0.621393   -0.878109    1.978053
      6         11           0       -0.736270    2.619448    0.969343
      7         11           0       -2.846538    0.879584   -0.645932
 ---------------------------------------------------------------------

 SCF Done:  E(UB3LYP) =  -1136.12315076     A.U. after   22 cycles

 The electronic state is 2-A.
 Alpha  occ. eigenvalues --  -38.44332 -38.44182 -38.44053 -38.43933 -38.43530
 Alpha  occ. eigenvalues --  -38.43228 -38.42863  -2.20239  -2.20066  -2.19945
 Alpha  occ. eigenvalues --   -2.19839  -2.19574  -2.19069  -2.18733  -1.14066
 Alpha  occ. eigenvalues --   -1.13880  -1.13835  -1.13780  -1.13705  -1.13677
 Alpha  occ. eigenvalues --   -1.13634  -1.13612  -1.13570  -1.13523  -1.13462
 Alpha  occ. eigenvalues --   -1.13448  -1.13255  -1.13208  -1.13174  -1.12737
 Alpha  occ. eigenvalues --   -1.12724  -1.12697  -1.12400  -1.12377  -1.12374
 Alpha  occ. eigenvalues --   -0.18659  -0.13872  -0.11847  -0.11498
 Alpha virt. eigenvalues --   -0.05738  -0.05039  -0.04114  -0.03550  -0.03388
 Alpha virt. eigenvalues --   -0.02447  -0.01775  -0.00784  -0.00608   0.00066
 Alpha virt. eigenvalues --    0.00251   0.00345   0.00541   0.00788   0.00875

  Beta  occ. eigenvalues --  -38.44299 -38.44154 -38.44042 -38.43861 -38.43496
  Beta  occ. eigenvalues --  -38.43204 -38.42844  -2.20178  -2.20018  -2.19927
  Beta  occ. eigenvalues --   -2.19710  -2.19516  -2.19026  -2.18698  -1.14016
  Beta  occ. eigenvalues --   -1.13842  -1.13793  -1.13730  -1.13672  -1.13634
  Beta  occ. eigenvalues --   -1.13620  -1.13594  -1.13551  -1.13440  -1.13362
  Beta  occ. eigenvalues --   -1.13353  -1.13189  -1.13165  -1.13143  -1.12704
  Beta  occ. eigenvalues --   -1.12692  -1.12668  -1.12376  -1.12355  -1.12340
  Beta  occ. eigenvalues --   -0.17956  -0.13547  -0.11279
  Beta virt. eigenvalues --   -0.07900  -0.05605  -0.04620  -0.03871  -0.03234
  Beta virt. eigenvalues --   -0.02644  -0.01755  -0.01649  -0.00697  -0.00324
  Beta virt. eigenvalues --    0.00194   0.00303   0.00444   0.00666   0.00851

 Mulliken charges and spin densities:
               1          2
     1  Na  -0.101664   0.118911
     2  Na  -0.509257   0.068088
     3  Na   0.561528   0.141846
     4  Na  -0.741664   0.280570
     5  Na   0.395506   0.330681
     6  Na  -0.417064   0.118233
     7  Na   0.812616  -0.058329
 Sum of Mulliken charges =  -0.00000   1.00000

 Dipole moment (field-independent basis, Debye):
    X=              0.3652    Y=             -0.0747    Z=              0.1354  Tot=              0.3965
 Quadrupole moment (field-independent basis, Debye-Ang):
   XX=            -55.6945   YY=            -72.0668   ZZ=            -67.1411
   XY=              0.3740   XZ=              1.0808   YZ=              0.6927

 Normal termination of Gaussian 16 at Tue Dec  5 10:25:13 2023.
