 Gaussian 16, Revision B.01,
 Gaussian 16:  ES64L-G16RevB.01 20-Dec-2017

 -------------------------
 #P B3LYP/6-311+g(d) force
 -------------------------

 -----
 DPGEN
 -----
 Symbolic Z-matrix:
 Charge =  0 Multiplicity = 2

                         Standard orientation:
 ---------------------------------------------------------------------
 Center     Atomic      Atomic             Coordinates (Angstroms)
 Number     Number       Type             X           Y           Z
 ---------------------------------------------------------------------
      1         11           0        1.562870    2.283583   -0.112302
      2         11           0       -0.164951   -0.307130    1.886598
      3         11           0       -0.263032    0.259856   -1.798669
      4         11           0        0.660676   -2.756656   -0.448767
      5         11           0       -2.028896    2.315374    0.120442
      6         11           0        2.918609   -0.330572    0.267947
      7         11           0       -2.685277   -1.464455    0.084750
 ---------------------------------------------------------------------

 SCF Done:  E(UB3LYP) =  -1136.13806784     A.U. after   19 cycles

 The electronic state is 2-A.
 Alpha  occ. eigenvalues --  -38.43927 -38.43711 -38.43508 -38.43423 -38.43422
 Alpha  occ. eigenvalues --  -38.43402 -38.43269  -2.19768  -2.19545  -2.19412
 Alpha  occ. eigenvalues --   -2.19361  -2.19317  -2.19290  -2.19240  -1.13460
 Alpha  occ. eigenvalues --   -1.13436  -1.13392  -1.13232  -1.13217  -1.13214
 Alpha  occ. eigenvalues --   -1.13176  -1.13087  -1.13064  -1.13029  -1.13021
 Alpha  occ. eigenvalues --   -1.12995  -1.12978  -1.12976  -1.12951  -1.12935
 Alpha  occ. eigenvalues --   -1.12916  -1.12896  -1.12893  -1.12856  -1.12844
 Alpha  occ. eigenvalues --   -0.18994  -0.13028  -0.12637  -0.10917
 Alpha virt. eigenvalues --   -0.05504  -0.05087  -0.04578  -0.03226  -0.03061
 Alpha virt. eigenvalues --   -0.02579  -0.01327  -0.01175  -0.00193  -0.00122
 Alpha virt. eigenvalues --    0.00023   0.00379   0.00852   0.00896   0.00954

  Beta  occ. eigenvalues --  -38.43922 -38.43708 -38.43502 -38.43411 -38.43395
  Beta  occ. eigenvalues --  -38.43341 -38.43192  -2.19762  -2.19542  -2.19405
  Beta  occ. eigenvalues --   -2.19310  -2.19271  -2.19212  -2.19100  -1.13448
  Beta  occ. eigenvalues --   -1.13416  -1.13391  -1.13224  -1.13216  -1.13199
  Beta  occ. eigenvalues --   -1.13173  -1.13075  -1.13029  -1.12995  -1.12965
  Beta  occ. eigenvalues --   -1.12935  -1.12930  -1.12915  -1.12909  -1.12891
  Beta  occ. eigenvalues --   -1.12875  -1.12864  -1.12809  -1.12762  -1.12746
  Beta  occ. eigenvalues --   -0.18247  -0.12772  -0.12390
  Beta virt. eigenvalues --   -0.06992  -0.05506  -0.05028  -0.04556  -0.02410
  Beta virt. eigenvalues --   -0.02277  -0.01529  -0.01242  -0.01109  -0.00221
  Beta virt. eigenvalues --   -0.00164   0.00128   0.00394   0.00867   0.00911

 Mulliken charges and spin densities:
               1          2
     1  Na   0.203310  -0.040579
     2  Na  -0.374843   0.692674
     3  Na  -0.260289   0.582270
     4  Na   0.139219   0.000026
     5  Na   0.062285  -0.126200
     6  Na   0.117318   0.011603
     7  Na   0.113001  -0.119794
 Sum of Mulliken charges =  -0.00000   1.00000

 Dipole moment (field-independent basis, Debye):
    X=             -0.4480    Y=             -0.0877    Z=              0.0744  Tot=              0.4626
 Quadrupole moment (field-independent basis, Debye-Ang):
   XX=            -58.5945   YY=            -62.0549   ZZ=            -73.3770
   XY=             -0.4762   XZ=             -0.1618   YZ=              1.2716

 Normal termination of Gaussian 16 at Thu Dec  7 10:58:21 2023.
