 Gaussian 16, Revision B.01,
 Gaussian 16:  ES64L-G16RevB.01 20-Dec-2017

 -------------------------
 #P B3LYP/6-311+g(d) force
 -------------------------

 -----
 DPGEN
 -----
 Symbolic Z-matrix:
 Charge =  0 Multiplicity = 2

                         Standard orientation:
 ---------------------------------------------------------------------
 Center     Atomic      Atomic             Coordinates (Angstroms)
 Number     Number       Type             X           Y           Z
 ---------------------------------------------------------------------
      1         11           0        1.680614   -1.059265    1.849326
      2         11           0        3.869118   -1.108429   -0.939459
      3         11           0        0.257400    2.715518    1.340217
      4         11           0       -4.202814   -1.005002   -0.282749
      5         11           0        1.621803    1.187439   -1.439469
      6         11           0       -2.172734    1.383834   -0.689729
      7         11           0       -1.053387   -2.114094    0.161863
 ---------------------------------------------------------------------

 SCF Done:  E(UB3LYP) =  -1136.12556522     A.U. after   20 cycles

 The electronic state is 2-A.
 Alpha  occ. eigenvalues --  -38.44295 -38.44140 -38.44080 -38.44061 -38.43884
 Alpha  occ. eigenvalues --  -38.43776 -38.43389  -2.20110  -2.19990  -2.19906
 Alpha  occ. eigenvalues --   -2.19898  -2.19720  -2.19634  -2.19209  -1.13798
 Alpha  occ. eigenvalues --   -1.13795  -1.13732  -1.13689  -1.13667  -1.13635
 Alpha  occ. eigenvalues --   -1.13593  -1.13559  -1.13546  -1.13532  -1.13523
 Alpha  occ. eigenvalues --   -1.13519  -1.13395  -1.13357  -1.13338  -1.13335
 Alpha  occ. eigenvalues --   -1.13313  -1.13226  -1.12880  -1.12861  -1.12835
 Alpha  occ. eigenvalues --   -0.17388  -0.13982  -0.11924  -0.11050
 Alpha virt. eigenvalues --   -0.06464  -0.05279  -0.04355  -0.03410  -0.03070
 Alpha virt. eigenvalues --   -0.02433  -0.02248  -0.01355  -0.00685  -0.00366
 Alpha virt. eigenvalues --    0.00017   0.00106   0.00392   0.00546   0.00821

  Beta  occ. eigenvalues --  -38.44271 -38.44102 -38.44049 -38.44033 -38.43827
  Beta  occ. eigenvalues --  -38.43769 -38.43369  -2.20070  -2.19922  -2.19876
  Beta  occ. eigenvalues --   -2.19820  -2.19620  -2.19616  -2.19171  -1.13774
  Beta  occ. eigenvalues --   -1.13759  -1.13694  -1.13645  -1.13623  -1.13575
  Beta  occ. eigenvalues --   -1.13561  -1.13530  -1.13511  -1.13503  -1.13470
  Beta  occ. eigenvalues --   -1.13458  -1.13326  -1.13318  -1.13302  -1.13283
  Beta  occ. eigenvalues --   -1.13264  -1.13213  -1.12855  -1.12830  -1.12810
  Beta  occ. eigenvalues --   -0.16837  -0.13543  -0.11716
  Beta virt. eigenvalues --   -0.07332  -0.06165  -0.05143  -0.03988  -0.03124
  Beta virt. eigenvalues --   -0.02559  -0.02253  -0.01708  -0.01104  -0.00337
  Beta virt. eigenvalues --   -0.00266   0.00124   0.00164   0.00594   0.00672

 Mulliken charges and spin densities:
               1          2
     1  Na  -0.069666   0.283181
     2  Na   0.244391   0.133452
     3  Na   0.259365   0.127454
     4  Na   0.580826   0.047979
     5  Na  -0.128157   0.248888
     6  Na  -0.427836   0.091151
     7  Na  -0.458922   0.067896
 Sum of Mulliken charges =  -0.00000   1.00000

 Dipole moment (field-independent basis, Debye):
    X=             -0.3676    Y=             -0.1619    Z=              0.2846  Tot=              0.4923
 Quadrupole moment (field-independent basis, Debye-Ang):
   XX=            -57.2298   YY=            -71.5686   ZZ=            -68.2531
   XY=             -0.4728   XZ=              1.7991   YZ=              2.6284

 Normal termination of Gaussian 16 at Mon Dec  4 01:21:32 2023.
