 Gaussian 16, Revision B.01,
 Gaussian 16:  ES64L-G16RevB.01 20-Dec-2017

 -------------------------
 #P B3LYP/6-311+g(d) force
 -------------------------

 -----
 DPGEN
 -----
 Symbolic Z-matrix:
 Charge =  0 Multiplicity = 2

                         Standard orientation:
 ---------------------------------------------------------------------
 Center     Atomic      Atomic             Coordinates (Angstroms)
 Number     Number       Type             X           Y           Z
 ---------------------------------------------------------------------
      1         11           0        3.321659    0.710678   -0.572857
      2         11           0       -2.832293   -1.676053    0.026660
      3         11           0        0.468646    2.398863    0.171599
      4         11           0       -0.410811   -0.395202   -1.569860
      5         11           0       -2.725757    1.618882   -0.069379
      6         11           0        0.561848   -0.297926    2.077890
      7         11           0        1.616708   -2.359243   -0.064054
 ---------------------------------------------------------------------

 SCF Done:  E(UB3LYP) =  -1136.12953469     A.U. after   20 cycles

 The electronic state is 2-A.
 Alpha  occ. eigenvalues --  -38.44746 -38.44363 -38.43956 -38.43592 -38.43560
 Alpha  occ. eigenvalues --  -38.43447 -38.42559  -2.20556  -2.20192  -2.19816
 Alpha  occ. eigenvalues --   -2.19532  -2.19505  -2.19326  -2.18467  -1.14219
 Alpha  occ. eigenvalues --   -1.14213  -1.14190  -1.13889  -1.13858  -1.13824
 Alpha  occ. eigenvalues --   -1.13496  -1.13473  -1.13457  -1.13240  -1.13192
 Alpha  occ. eigenvalues --   -1.13187  -1.13159  -1.13156  -1.13111  -1.12987
 Alpha  occ. eigenvalues --   -1.12977  -1.12933  -1.12162  -1.12133  -1.12096
 Alpha  occ. eigenvalues --   -0.18707  -0.13653  -0.11932  -0.10752
 Alpha virt. eigenvalues --   -0.06360  -0.05464  -0.03831  -0.03478  -0.02660
 Alpha virt. eigenvalues --   -0.02544  -0.02095  -0.01186  -0.00429  -0.00108
 Alpha virt. eigenvalues --    0.00023   0.00269   0.00702   0.00780   0.00857

  Beta  occ. eigenvalues --  -38.44725 -38.44364 -38.43957 -38.43514 -38.43490
  Beta  occ. eigenvalues --  -38.43437 -38.42549  -2.20519  -2.20197  -2.19819
  Beta  occ. eigenvalues --   -2.19448  -2.19318  -2.19311  -2.18454  -1.14191
  Beta  occ. eigenvalues --   -1.14176  -1.14168  -1.13888  -1.13858  -1.13822
  Beta  occ. eigenvalues --   -1.13497  -1.13472  -1.13453  -1.13182  -1.13136
  Beta  occ. eigenvalues --   -1.13096  -1.13085  -1.13027  -1.12982  -1.12964
  Beta  occ. eigenvalues --   -1.12929  -1.12912  -1.12156  -1.12099  -1.12081
  Beta  occ. eigenvalues --   -0.18014  -0.13410  -0.11694
  Beta virt. eigenvalues --   -0.06877  -0.06220  -0.05434  -0.03827  -0.02771
  Beta virt. eigenvalues --   -0.02043  -0.01858  -0.01447  -0.01137  -0.00465
  Beta virt. eigenvalues --   -0.00019   0.00102   0.00328   0.00770   0.00804

 Mulliken charges and spin densities:
               1          2
     1  Na   0.040187   0.104949
     2  Na   0.386120  -0.043170
     3  Na   0.121130   0.068816
     4  Na  -0.344256   0.276014
     5  Na  -0.013614  -0.033107
     6  Na  -0.464263   0.586406
     7  Na   0.274697   0.040091
 Sum of Mulliken charges =  -0.00000   1.00000

 Dipole moment (field-independent basis, Debye):
    X=             -0.0949    Y=             -0.2587    Z=              0.0530  Tot=              0.2806
 Quadrupole moment (field-independent basis, Debye-Ang):
   XX=            -50.6614   YY=            -68.9162   ZZ=            -73.8225
   XY=              0.4537   XZ=             -2.3504   YZ=             -0.6792

 Normal termination of Gaussian 16 at Tue Dec  5 22:44:44 2023.
