 Gaussian 16, Revision B.01,
 Gaussian 16:  ES64L-G16RevB.01 20-Dec-2017

 -------------------------
 #P B3LYP/6-311+g(d) force
 -------------------------

 -----
 DPGEN
 -----
 Symbolic Z-matrix:
 Charge =  0 Multiplicity = 2

                         Standard orientation:
 ---------------------------------------------------------------------
 Center     Atomic      Atomic             Coordinates (Angstroms)
 Number     Number       Type             X           Y           Z
 ---------------------------------------------------------------------
      1         11           0       -3.819588   -1.882366    0.061202
      2         11           0        4.029711   -0.257632    0.540214
      3         11           0       -3.078669    1.494638    1.442404
      4         11           0        2.496380   -3.316195    0.288917
      5         11           0       -1.281431    3.317693   -0.891115
      6         11           0        2.789255    2.983734   -0.255494
      7         11           0       -1.135658   -2.339872   -1.186128
 ---------------------------------------------------------------------

 SCF Done:  E(UB3LYP) =  -1136.10500210     A.U. after   20 cycles

 The electronic state is 2-A.
 Alpha  occ. eigenvalues --  -38.45107 -38.45048 -38.44707 -38.44621 -38.44281
 Alpha  occ. eigenvalues --  -38.44149 -38.43852  -2.20903  -2.20822  -2.20447
 Alpha  occ. eigenvalues --   -2.20383  -2.20116  -2.19927  -2.19644  -1.14602
 Alpha  occ. eigenvalues --   -1.14559  -1.14546  -1.14490  -1.14470  -1.14450
 Alpha  occ. eigenvalues --   -1.14131  -1.14113  -1.14085  -1.14072  -1.14058
 Alpha  occ. eigenvalues --   -1.14028  -1.13787  -1.13759  -1.13739  -1.13584
 Alpha  occ. eigenvalues --   -1.13571  -1.13544  -1.13296  -1.13281  -1.13278
 Alpha  occ. eigenvalues --   -0.15575  -0.13843  -0.13036  -0.10716
 Alpha virt. eigenvalues --   -0.07500  -0.04954  -0.04734  -0.03465  -0.03331
 Alpha virt. eigenvalues --   -0.02418  -0.02036  -0.01826  -0.01439  -0.01023
 Alpha virt. eigenvalues --   -0.00791  -0.00082   0.00179   0.00255   0.00667

  Beta  occ. eigenvalues --  -38.45087 -38.45006 -38.44711 -38.44617 -38.44253
  Beta  occ. eigenvalues --  -38.44074 -38.43787  -2.20871  -2.20745  -2.20458
  Beta  occ. eigenvalues --   -2.20384  -2.20066  -2.19787  -2.19525  -1.14570
  Beta  occ. eigenvalues --   -1.14541  -1.14512  -1.14438  -1.14419  -1.14392
  Beta  occ. eigenvalues --   -1.14141  -1.14123  -1.14080  -1.14075  -1.14065
  Beta  occ. eigenvalues --   -1.13981  -1.13745  -1.13726  -1.13704  -1.13490
  Beta  occ. eigenvalues --   -1.13478  -1.13448  -1.13215  -1.13202  -1.13197
  Beta  occ. eigenvalues --   -0.15124  -0.13018  -0.12327
  Beta virt. eigenvalues --   -0.07651  -0.07575  -0.04601  -0.04370  -0.03167
  Beta virt. eigenvalues --   -0.03065  -0.02102  -0.01837  -0.01591  -0.01164
  Beta virt. eigenvalues --   -0.00917  -0.00411   0.00135   0.00204   0.00294

 Mulliken charges and spin densities:
               1          2
     1  Na   0.396217   0.082943
     2  Na  -0.006071   0.044403
     3  Na  -0.001692   0.200041
     4  Na   0.161951   0.282952
     5  Na  -0.071026  -0.052169
     6  Na   0.013337   0.337965
     7  Na  -0.492716   0.103865
 Sum of Mulliken charges =  -0.00000   1.00000

 Dipole moment (field-independent basis, Debye):
    X=             -1.3270    Y=             -0.1031    Z=              0.1147  Tot=              1.3359
 Quadrupole moment (field-independent basis, Debye-Ang):
   XX=            -64.4417   YY=            -71.4208   ZZ=            -67.1885
   XY=              0.9106   XZ=             -2.2877   YZ=             -2.0242

 Normal termination of Gaussian 16 at Sun Dec  3 23:14:19 2023.
