 Gaussian 16, Revision B.01,
 Gaussian 16:  ES64L-G16RevB.01 20-Dec-2017

 -------------------------
 #P B3LYP/6-311+g(d) force
 -------------------------

 -----
 DPGEN
 -----
 Symbolic Z-matrix:
 Charge =  0 Multiplicity = 2

                         Standard orientation:
 ---------------------------------------------------------------------
 Center     Atomic      Atomic             Coordinates (Angstroms)
 Number     Number       Type             X           Y           Z
 ---------------------------------------------------------------------
      1         11           0        0.197965    0.155941   -1.864432
      2         11           0       -1.648420    2.435593    0.126293
      3         11           0        2.055715    2.369402   -0.002520
      4         11           0       -0.391080   -2.818774    0.444033
      5         11           0        2.823920   -1.646757   -0.273849
      6         11           0        0.261253    0.288329    1.884788
      7         11           0       -3.299353   -0.783733   -0.314313
 ---------------------------------------------------------------------

 SCF Done:  E(UB3LYP) =  -1136.13795503     A.U. after   19 cycles

 The electronic state is 2-A.
 Alpha  occ. eigenvalues --  -38.43978 -38.43875 -38.43867 -38.43788 -38.43561
 Alpha  occ. eigenvalues --  -38.43449 -38.43447  -2.19781  -2.19709  -2.19648
 Alpha  occ. eigenvalues --   -2.19626  -2.19458  -2.19364  -2.19280  -1.13458
 Alpha  occ. eigenvalues --   -1.13436  -1.13427  -1.13396  -1.13385  -1.13338
 Alpha  occ. eigenvalues --   -1.13325  -1.13320  -1.13311  -1.13304  -1.13291
 Alpha  occ. eigenvalues --   -1.13234  -1.13135  -1.13089  -1.13074  -1.13034
 Alpha  occ. eigenvalues --   -1.13004  -1.12990  -1.12948  -1.12943  -1.12903
 Alpha  occ. eigenvalues --   -0.18310  -0.12661  -0.12561  -0.10701
 Alpha virt. eigenvalues --   -0.05581  -0.05446  -0.04768  -0.03087  -0.02990
 Alpha virt. eigenvalues --   -0.02570  -0.01516  -0.01357  -0.00478  -0.00382
 Alpha virt. eigenvalues --   -0.00022   0.00353   0.00786   0.00819   0.00880

  Beta  occ. eigenvalues --  -38.43975 -38.43870 -38.43867 -38.43782 -38.43484
  Beta  occ. eigenvalues --  -38.43440 -38.43364  -2.19777  -2.19703  -2.19649
  Beta  occ. eigenvalues --   -2.19618  -2.19318  -2.19265  -2.19212  -1.13445
  Beta  occ. eigenvalues --   -1.13430  -1.13421  -1.13389  -1.13361  -1.13332
  Beta  occ. eigenvalues --   -1.13321  -1.13312  -1.13304  -1.13293  -1.13278
  Beta  occ. eigenvalues --   -1.13230  -1.13042  -1.12993  -1.12969  -1.12963
  Beta  occ. eigenvalues --   -1.12924  -1.12922  -1.12899  -1.12887  -1.12861
  Beta  occ. eigenvalues --   -0.17578  -0.12427  -0.12344
  Beta virt. eigenvalues --   -0.06835  -0.05595  -0.05350  -0.04693  -0.02312
  Beta virt. eigenvalues --   -0.02282  -0.01543  -0.01418  -0.01305  -0.00519
  Beta virt. eigenvalues --   -0.00402   0.00109   0.00377   0.00796   0.00855

 Mulliken charges and spin densities:
               1          2
     1  Na  -0.199317   0.786968
     2  Na   0.113130  -0.079323
     3  Na   0.163010  -0.157451
     4  Na  -0.001736  -0.020827
     5  Na   0.032341  -0.099134
     6  Na   0.006804   0.624423
     7  Na  -0.114232  -0.054656
 Sum of Mulliken charges =   0.00000   1.00000

 Dipole moment (field-independent basis, Debye):
    X=              0.2449    Y=              0.2078    Z=             -0.0658  Tot=              0.3279
 Quadrupole moment (field-independent basis, Debye-Ang):
   XX=            -56.8390   YY=            -61.8518   ZZ=            -74.6194
   XY=              0.1930   XZ=             -0.0569   YZ=             -0.1418

 Normal termination of Gaussian 16 at Thu Dec  7 11:05:42 2023.
