 Gaussian 16, Revision B.01,
 Gaussian 16:  ES64L-G16RevB.01 20-Dec-2017

 -------------------------
 #P B3LYP/6-311+g(d) force
 -------------------------

 -----
 DPGEN
 -----
 Symbolic Z-matrix:
 Charge =  0 Multiplicity = 2

                         Standard orientation:
 ---------------------------------------------------------------------
 Center     Atomic      Atomic             Coordinates (Angstroms)
 Number     Number       Type             X           Y           Z
 ---------------------------------------------------------------------
      1         11           0        2.255917   -1.205200   -0.783873
      2         11           0        4.826454   -0.878458    1.628098
      3         11           0        4.378373    1.613408   -0.137899
      4         11           0        0.690148    1.729016   -1.182548
      5         11           0       -1.267388   -1.508659   -0.103748
      6         11           0       -4.665034   -1.066551   -0.769034
      7         11           0       -6.218469    1.316444    1.349004
 ---------------------------------------------------------------------

 SCF Done:  E(UB3LYP) =  -1136.11271131     A.U. after   21 cycles

 The electronic state is 2-A.
 Alpha  occ. eigenvalues --  -38.44697 -38.44550 -38.44478 -38.44229 -38.44144
 Alpha  occ. eigenvalues --  -38.43764 -38.43657  -2.20448  -2.20399  -2.20320
 Alpha  occ. eigenvalues --   -2.19990  -2.19965  -2.19612  -2.19460  -1.14110
 Alpha  occ. eigenvalues --   -1.14109  -1.14107  -1.14096  -1.14064  -1.14012
 Alpha  occ. eigenvalues --   -1.14005  -1.13977  -1.13958  -1.13673  -1.13669
 Alpha  occ. eigenvalues --   -1.13634  -1.13624  -1.13622  -1.13563  -1.13263
 Alpha  occ. eigenvalues --   -1.13256  -1.13244  -1.13137  -1.13124  -1.13068
 Alpha  occ. eigenvalues --   -0.16668  -0.13899  -0.11828  -0.10813
 Alpha virt. eigenvalues --   -0.07162  -0.05205  -0.04651  -0.03564  -0.02866
 Alpha virt. eigenvalues --   -0.02672  -0.02071  -0.01570  -0.01010  -0.00846
 Alpha virt. eigenvalues --   -0.00342  -0.00184  -0.00125   0.00276   0.00423

  Beta  occ. eigenvalues --  -38.44656 -38.44543 -38.44468 -38.44243 -38.44081
  Beta  occ. eigenvalues --  -38.43731 -38.43621  -2.20390  -2.20370  -2.20303
  Beta  occ. eigenvalues --   -2.20020  -2.19848  -2.19549  -2.19392  -1.14097
  Beta  occ. eigenvalues --   -1.14068  -1.14055  -1.14053  -1.14014  -1.14006
  Beta  occ. eigenvalues --   -1.13997  -1.13966  -1.13922  -1.13694  -1.13689
  Beta  occ. eigenvalues --   -1.13630  -1.13556  -1.13545  -1.13470  -1.13225
  Beta  occ. eigenvalues --   -1.13212  -1.13201  -1.13090  -1.13074  -1.13034
  Beta  occ. eigenvalues --   -0.16093  -0.13680  -0.11528
  Beta virt. eigenvalues --   -0.07427  -0.06581  -0.05000  -0.04180  -0.03414
  Beta virt. eigenvalues --   -0.02587  -0.02323  -0.01742  -0.01407  -0.00925
  Beta virt. eigenvalues --   -0.00446  -0.00153   0.00038   0.00075   0.00332

 Mulliken charges and spin densities:
               1          2
     1  Na  -0.050297   0.042068
     2  Na   0.190590   0.193664
     3  Na   0.197961  -0.025293
     4  Na  -0.138032   0.441904
     5  Na  -0.392336   0.175952
     6  Na   0.152886  -0.047042
     7  Na   0.039229   0.218747
 Sum of Mulliken charges =  -0.00000   1.00000

 Dipole moment (field-independent basis, Debye):
    X=              0.6311    Y=              0.6647    Z=              0.3037  Tot=              0.9656
 Quadrupole moment (field-independent basis, Debye-Ang):
   XX=            -66.9852   YY=            -65.1708   ZZ=            -67.4899
   XY=             -2.2002   XZ=             -1.0069   YZ=              2.5515

 Normal termination of Gaussian 16 at Wed Nov 29 00:38:06 2023.
