 Gaussian 16, Revision B.01,
 Gaussian 16:  ES64L-G16RevB.01 20-Dec-2017

 -------------------------
 #P B3LYP/6-311+g(d) force
 -------------------------

 -----
 DPGEN
 -----
 Symbolic Z-matrix:
 Charge =  0 Multiplicity = 2

                         Standard orientation:
 ---------------------------------------------------------------------
 Center     Atomic      Atomic             Coordinates (Angstroms)
 Number     Number       Type             X           Y           Z
 ---------------------------------------------------------------------
      1         11           0        3.080029    0.707956   -1.487932
      2         11           0       -2.559656    3.005295   -0.618210
      3         11           0        2.892641    0.480662    1.846669
      4         11           0       -3.046884   -1.844874   -0.345728
      5         11           0       -0.823706   -0.954012    2.463702
      6         11           0        0.844243   -2.294837   -1.693003
      7         11           0       -0.386666    0.899811   -0.165499
 ---------------------------------------------------------------------

 SCF Done:  E(UB3LYP) =  -1136.11414038     A.U. after   26 cycles

 The electronic state is 2-A.
 Alpha  occ. eigenvalues --  -38.45221 -38.44812 -38.44796 -38.44378 -38.44017
 Alpha  occ. eigenvalues --  -38.43329 -38.42763  -2.21036  -2.20606  -2.20543
 Alpha  occ. eigenvalues --   -2.20185  -2.19775  -2.19143  -2.18699  -1.14723
 Alpha  occ. eigenvalues --   -1.14673  -1.14628  -1.14266  -1.14252  -1.14247
 Alpha  occ. eigenvalues --   -1.14224  -1.14193  -1.14179  -1.13859  -1.13829
 Alpha  occ. eigenvalues --   -1.13821  -1.13466  -1.13445  -1.13384  -1.12847
 Alpha  occ. eigenvalues --   -1.12775  -1.12768  -1.12433  -1.12338  -1.12320
 Alpha  occ. eigenvalues --   -0.17336  -0.13117  -0.11784  -0.11221
 Alpha virt. eigenvalues --   -0.06369  -0.05532  -0.04925  -0.03147  -0.02832
 Alpha virt. eigenvalues --   -0.02536  -0.02073  -0.01212  -0.00970  -0.00467
 Alpha virt. eigenvalues --   -0.00164   0.00152   0.00285   0.00456   0.00692

  Beta  occ. eigenvalues --  -38.45141 -38.44799 -38.44774 -38.44365 -38.44003
  Beta  occ. eigenvalues --  -38.43283 -38.42750  -2.20888  -2.20548  -2.20535
  Beta  occ. eigenvalues --   -2.20161  -2.19750  -2.19058  -2.18681  -1.14626
  Beta  occ. eigenvalues --   -1.14575  -1.14514  -1.14220  -1.14219  -1.14206
  Beta  occ. eigenvalues --   -1.14200  -1.14189  -1.14184  -1.13839  -1.13817
  Beta  occ. eigenvalues --   -1.13799  -1.13444  -1.13431  -1.13366  -1.12787
  Beta  occ. eigenvalues --   -1.12718  -1.12711  -1.12380  -1.12330  -1.12308
  Beta  occ. eigenvalues --   -0.16666  -0.12944  -0.10754
  Beta virt. eigenvalues --   -0.08152  -0.06196  -0.04985  -0.04479  -0.02927
  Beta virt. eigenvalues --   -0.02470  -0.02039  -0.01963  -0.00847  -0.00688
  Beta virt. eigenvalues --   -0.00280  -0.00006   0.00181   0.00374   0.00546

 Mulliken charges and spin densities:
               1          2
     1  Na   1.258462  -0.035406
     2  Na   0.279050   0.124844
     3  Na   0.118296   0.238446
     4  Na   0.259423   0.005127
     5  Na   0.277258   0.426956
     6  Na   0.118177   0.081313
     7  Na  -2.310666   0.158721
 Sum of Mulliken charges =  -0.00000   1.00000

 Dipole moment (field-independent basis, Debye):
    X=              0.3717    Y=             -0.8181    Z=              0.4999  Tot=              1.0283
 Quadrupole moment (field-independent basis, Debye-Ang):
   XX=            -54.5597   YY=            -73.8807   ZZ=            -65.4345
   XY=              4.4191   XZ=              0.5707   YZ=             -3.1666

 Normal termination of Gaussian 16 at Tue Dec  5 19:31:51 2023.
