 Gaussian 16, Revision B.01,
 Gaussian 16:  ES64L-G16RevB.01 20-Dec-2017

 -------------------------
 #P B3LYP/6-311+g(d) force
 -------------------------

 -----
 DPGEN
 -----
 Symbolic Z-matrix:
 Charge =  0 Multiplicity = 2

                         Standard orientation:
 ---------------------------------------------------------------------
 Center     Atomic      Atomic             Coordinates (Angstroms)
 Number     Number       Type             X           Y           Z
 ---------------------------------------------------------------------
      1         11           0       -1.701692   -2.259432    0.110304
      2         11           0       -0.106241    0.170890    1.674346
      3         11           0        0.058553   -0.346112   -1.585331
      4         11           0       -2.991490    0.462376   -0.326311
      5         11           0       -0.265526    2.931068    0.244160
      6         11           0        2.279714   -2.168721    0.298524
      7         11           0        2.726682    1.209931   -0.415692
 ---------------------------------------------------------------------

 SCF Done:  E(UB3LYP) =  -1136.13535458     A.U. after   19 cycles

 The electronic state is 2-A.
 Alpha  occ. eigenvalues --  -38.43950 -38.43885 -38.43726 -38.43554 -38.43163
 Alpha  occ. eigenvalues --  -38.43052 -38.42924  -2.19846  -2.19747  -2.19557
 Alpha  occ. eigenvalues --   -2.19488  -2.19077  -2.19030  -2.18938  -1.13567
 Alpha  occ. eigenvalues --   -1.13508  -1.13477  -1.13440  -1.13407  -1.13375
 Alpha  occ. eigenvalues --   -1.13228  -1.13220  -1.13201  -1.13193  -1.13148
 Alpha  occ. eigenvalues --   -1.13097  -1.12799  -1.12769  -1.12710  -1.12684
 Alpha  occ. eigenvalues --   -1.12671  -1.12658  -1.12608  -1.12548  -1.12529
 Alpha  occ. eigenvalues --   -0.19144  -0.13406  -0.12490  -0.10501
 Alpha virt. eigenvalues --   -0.05528  -0.05275  -0.04652  -0.03208  -0.02712
 Alpha virt. eigenvalues --   -0.02088  -0.01583  -0.01184  -0.00286  -0.00228
 Alpha virt. eigenvalues --    0.00059   0.00353   0.00813   0.00884   0.00902

  Beta  occ. eigenvalues --  -38.43940 -38.43873 -38.43721 -38.43545 -38.43157
  Beta  occ. eigenvalues --  -38.42987 -38.42845  -2.19831  -2.19728  -2.19551
  Beta  occ. eigenvalues --   -2.19476  -2.19022  -2.18959  -2.18794  -1.13562
  Beta  occ. eigenvalues --   -1.13488  -1.13450  -1.13420  -1.13382  -1.13365
  Beta  occ. eigenvalues --   -1.13218  -1.13211  -1.13191  -1.13183  -1.13118
  Beta  occ. eigenvalues --   -1.13077  -1.12757  -1.12700  -1.12661  -1.12653
  Beta  occ. eigenvalues --   -1.12621  -1.12593  -1.12513  -1.12451  -1.12428
  Beta  occ. eigenvalues --   -0.18433  -0.13119  -0.12227
  Beta virt. eigenvalues --   -0.06618  -0.05479  -0.05246  -0.04634  -0.02410
  Beta virt. eigenvalues --   -0.01980  -0.01481  -0.01104  -0.01093  -0.00299
  Beta virt. eigenvalues --   -0.00270   0.00174   0.00388   0.00867   0.00888

 Mulliken charges and spin densities:
               1          2
     1  Na   0.259933  -0.008499
     2  Na  -0.341938   0.670967
     3  Na  -0.256511   0.426994
     4  Na   0.181703   0.023342
     5  Na   0.100924  -0.060968
     6  Na   0.008569  -0.040009
     7  Na   0.047320  -0.011828
 Sum of Mulliken charges =  -0.00000   1.00000

 Dipole moment (field-independent basis, Debye):
    X=              0.1036    Y=             -0.0722    Z=             -0.0091  Tot=              0.1266
 Quadrupole moment (field-independent basis, Debye-Ang):
   XX=            -55.1285   YY=            -61.3289   ZZ=            -75.6977
   XY=             -0.7087   XZ=              0.4639   YZ=             -1.5749

 Normal termination of Gaussian 16 at Thu Dec  7 18:07:24 2023.
