 Gaussian 16, Revision B.01,
 Gaussian 16:  ES64L-G16RevB.01 20-Dec-2017

 -------------------------
 #P B3LYP/6-311+g(d) force
 -------------------------

 -----
 DPGEN
 -----
 Symbolic Z-matrix:
 Charge =  0 Multiplicity = 2

                         Standard orientation:
 ---------------------------------------------------------------------
 Center     Atomic      Atomic             Coordinates (Angstroms)
 Number     Number       Type             X           Y           Z
 ---------------------------------------------------------------------
      1         11           0        2.957695   -0.618017   -1.573659
      2         11           0       -3.744626   -0.614385   -0.681455
      3         11           0       -0.309510    0.025528   -1.408429
      4         11           0        0.164741    2.920975   -0.349987
      5         11           0        2.108999    0.102590    1.784251
      6         11           0        0.144272   -2.430882    0.619103
      7         11           0       -1.321570    0.614191    1.610175
 ---------------------------------------------------------------------

 SCF Done:  E(UB3LYP) =  -1136.12689939     A.U. after   21 cycles

 The electronic state is 2-A.
 Alpha  occ. eigenvalues --  -38.44478 -38.44475 -38.44287 -38.43491 -38.43468
 Alpha  occ. eigenvalues --  -38.43267 -38.42425  -2.20293  -2.20251  -2.20149
 Alpha  occ. eigenvalues --   -2.19431  -2.19327  -2.19289  -2.18276  -1.13976
 Alpha  occ. eigenvalues --   -1.13938  -1.13932  -1.13904  -1.13903  -1.13875
 Alpha  occ. eigenvalues --   -1.13843  -1.13783  -1.13762  -1.13176  -1.13087
 Alpha  occ. eigenvalues --   -1.13076  -1.13031  -1.13002  -1.12963  -1.12928
 Alpha  occ. eigenvalues --   -1.12915  -1.12892  -1.11977  -1.11921  -1.11899
 Alpha  occ. eigenvalues --   -0.18599  -0.12939  -0.11813  -0.11343
 Alpha virt. eigenvalues --   -0.06256  -0.04745  -0.03967  -0.03185  -0.03045
 Alpha virt. eigenvalues --   -0.02634  -0.02087  -0.01053  -0.00570   0.00177
 Alpha virt. eigenvalues --    0.00255   0.00305   0.00343   0.00766   0.00889

  Beta  occ. eigenvalues --  -38.44470 -38.44428 -38.44237 -38.43451 -38.43451
  Beta  occ. eigenvalues --  -38.43219 -38.42424  -2.20238  -2.20208  -2.20061
  Beta  occ. eigenvalues --   -2.19361  -2.19300  -2.19204  -2.18276  -1.13919
  Beta  occ. eigenvalues --   -1.13903  -1.13895  -1.13885  -1.13867  -1.13847
  Beta  occ. eigenvalues --   -1.13765  -1.13718  -1.13702  -1.13134  -1.13054
  Beta  occ. eigenvalues --   -1.13011  -1.12981  -1.12952  -1.12905  -1.12902
  Beta  occ. eigenvalues --   -1.12875  -1.12821  -1.11972  -1.11913  -1.11900
  Beta  occ. eigenvalues --   -0.17804  -0.12699  -0.11171
  Beta virt. eigenvalues --   -0.07782  -0.06118  -0.04216  -0.03883  -0.03011
  Beta virt. eigenvalues --   -0.02203  -0.02065  -0.01795  -0.00693  -0.00466
  Beta virt. eigenvalues --    0.00264   0.00285   0.00337   0.00421   0.00841

 Mulliken charges and spin densities:
               1          2
     1  Na   0.183852   0.065725
     2  Na   0.024963  -0.009606
     3  Na  -0.158482   0.289810
     4  Na  -0.290400   0.090148
     5  Na   0.136914   0.259497
     6  Na  -0.247354   0.098280
     7  Na   0.350507   0.206145
 Sum of Mulliken charges =  -0.00000   1.00000

 Dipole moment (field-independent basis, Debye):
    X=              0.1324    Y=             -0.2954    Z=              0.0630  Tot=              0.3298
 Quadrupole moment (field-independent basis, Debye-Ang):
   XX=            -52.9323   YY=            -73.1363   ZZ=            -65.6363
   XY=              0.8313   XZ=              0.3048   YZ=              0.0258

 Normal termination of Gaussian 16 at Thu Dec  7 13:44:39 2023.
