 Gaussian 16, Revision B.01,
 Gaussian 16:  ES64L-G16RevB.01 20-Dec-2017

 -------------------------
 #P B3LYP/6-311+g(d) force
 -------------------------

 -----
 DPGEN
 -----
 Symbolic Z-matrix:
 Charge =  0 Multiplicity = 2

                         Standard orientation:
 ---------------------------------------------------------------------
 Center     Atomic      Atomic             Coordinates (Angstroms)
 Number     Number       Type             X           Y           Z
 ---------------------------------------------------------------------
      1         11           0        0.772383   -1.742395    0.675898
      2         11           0        4.628668   -2.196891    0.150579
      3         11           0        2.489114    0.239434   -1.075228
      4         11           0        1.155086    3.829925    0.394503
      5         11           0       -1.213180    1.622936   -0.661806
      6         11           0       -2.918050   -0.075554    1.370085
      7         11           0       -4.914021   -1.677455   -0.854032
 ---------------------------------------------------------------------

 SCF Done:  E(UB3LYP) =  -1136.11447796     A.U. after   22 cycles

 The electronic state is 2-A.
 Alpha  occ. eigenvalues --  -38.44657 -38.44643 -38.44364 -38.44211 -38.44081
 Alpha  occ. eigenvalues --  -38.43987 -38.43690  -2.20484  -2.20420  -2.20190
 Alpha  occ. eigenvalues --   -2.20047  -2.19874  -2.19813  -2.19469  -1.14234
 Alpha  occ. eigenvalues --   -1.14182  -1.14096  -1.14086  -1.14063  -1.14011
 Alpha  occ. eigenvalues --   -1.13881  -1.13862  -1.13783  -1.13751  -1.13717
 Alpha  occ. eigenvalues --   -1.13669  -1.13527  -1.13519  -1.13509  -1.13496
 Alpha  occ. eigenvalues --   -1.13454  -1.13424  -1.13133  -1.13130  -1.13092
 Alpha  occ. eigenvalues --   -0.16732  -0.13838  -0.12224  -0.10099
 Alpha virt. eigenvalues --   -0.06694  -0.05848  -0.04771  -0.03294  -0.03064
 Alpha virt. eigenvalues --   -0.02307  -0.02191  -0.01455  -0.01081  -0.00591
 Alpha virt. eigenvalues --   -0.00431  -0.00012   0.00160   0.00334   0.00523

  Beta  occ. eigenvalues --  -38.44655 -38.44615 -38.44305 -38.44213 -38.43998
  Beta  occ. eigenvalues --  -38.43994 -38.43669  -2.20482  -2.20368  -2.20082
  Beta  occ. eigenvalues --   -2.20052  -2.19831  -2.19718  -2.19428  -1.14211
  Beta  occ. eigenvalues --   -1.14179  -1.14076  -1.14050  -1.14037  -1.13987
  Beta  occ. eigenvalues --   -1.13812  -1.13791  -1.13789  -1.13702  -1.13683
  Beta  occ. eigenvalues --   -1.13665  -1.13516  -1.13487  -1.13434  -1.13412
  Beta  occ. eigenvalues --   -1.13409  -1.13363  -1.13104  -1.13101  -1.13067
  Beta  occ. eigenvalues --   -0.16248  -0.13550  -0.11755
  Beta virt. eigenvalues --   -0.06875  -0.06246  -0.05480  -0.04565  -0.03036
  Beta virt. eigenvalues --   -0.02807  -0.02150  -0.01908  -0.01091  -0.00841
  Beta virt. eigenvalues --   -0.00364  -0.00149   0.00145   0.00336   0.00455

 Mulliken charges and spin densities:
               1          2
     1  Na  -0.415825   0.263940
     2  Na   0.628496   0.181639
     3  Na  -0.357199   0.124038
     4  Na   0.469346   0.169607
     5  Na  -0.759836  -0.045924
     6  Na   0.494944  -0.142839
     7  Na  -0.059926   0.449540
 Sum of Mulliken charges =  -0.00000   1.00000

 Dipole moment (field-independent basis, Debye):
    X=              1.4665    Y=             -0.7410    Z=              0.4523  Tot=              1.7042
 Quadrupole moment (field-independent basis, Debye-Ang):
   XX=            -68.0386   YY=            -67.6127   ZZ=            -65.8856
   XY=             -4.3362   XZ=              2.1018   YZ=              2.2264

 Normal termination of Gaussian 16 at Tue Nov 28 19:11:05 2023.
