 Gaussian 16, Revision B.01,
 Gaussian 16:  ES64L-G16RevB.01 20-Dec-2017

 -------------------------
 #P B3LYP/6-311+g(d) force
 -------------------------

 -----
 DPGEN
 -----
 Symbolic Z-matrix:
 Charge =  0 Multiplicity = 2

                         Standard orientation:
 ---------------------------------------------------------------------
 Center     Atomic      Atomic             Coordinates (Angstroms)
 Number     Number       Type             X           Y           Z
 ---------------------------------------------------------------------
      1         11           0       -0.802151   -1.836164    1.515658
      2         11           0        0.744248   -0.624946   -1.342992
      3         11           0        4.110429   -0.937867   -0.302822
      4         11           0        1.590193    0.894122    0.998413
      5         11           0       -3.131616   -1.678268   -1.268377
      6         11           0       -1.974245    1.102352    1.311333
      7         11           0       -0.536857    3.080772   -0.911212
 ---------------------------------------------------------------------

 SCF Done:  E(UB3LYP) =  -1136.12560240     A.U. after   21 cycles

 The electronic state is 2-A.
 Alpha  occ. eigenvalues --  -38.44514 -38.44347 -38.44065 -38.43752 -38.43601
 Alpha  occ. eigenvalues --  -38.43507 -38.42857  -2.20304  -2.20248  -2.19849
 Alpha  occ. eigenvalues --   -2.19644  -2.19551  -2.19397  -2.18685  -1.14047
 Alpha  occ. eigenvalues --   -1.13981  -1.13963  -1.13938  -1.13896  -1.13819
 Alpha  occ. eigenvalues --   -1.13511  -1.13504  -1.13464  -1.13367  -1.13306
 Alpha  occ. eigenvalues --   -1.13291  -1.13268  -1.13203  -1.13112  -1.13073
 Alpha  occ. eigenvalues --   -1.13053  -1.12990  -1.12351  -1.12340  -1.12319
 Alpha  occ. eigenvalues --   -0.18246  -0.13244  -0.11812  -0.10912
 Alpha virt. eigenvalues --   -0.06478  -0.04943  -0.04232  -0.03357  -0.02803
 Alpha virt. eigenvalues --   -0.02303  -0.02236  -0.01273  -0.00671  -0.00061
 Alpha virt. eigenvalues --    0.00140   0.00240   0.00345   0.00772   0.00842

  Beta  occ. eigenvalues --  -38.44517 -38.44318 -38.44019 -38.43726 -38.43580
  Beta  occ. eigenvalues --  -38.43462 -38.42839  -2.20309  -2.20195  -2.19763
  Beta  occ. eigenvalues --   -2.19602  -2.19517  -2.19318  -2.18652  -1.14005
  Beta  occ. eigenvalues --   -1.13983  -1.13964  -1.13940  -1.13855  -1.13781
  Beta  occ. eigenvalues --   -1.13452  -1.13437  -1.13412  -1.13319  -1.13272
  Beta  occ. eigenvalues --   -1.13256  -1.13247  -1.13144  -1.13094  -1.13023
  Beta  occ. eigenvalues --   -1.12990  -1.12918  -1.12329  -1.12310  -1.12299
  Beta  occ. eigenvalues --   -0.17529  -0.13049  -0.11624
  Beta virt. eigenvalues --   -0.07074  -0.06309  -0.04620  -0.03990  -0.02973
  Beta virt. eigenvalues --   -0.02471  -0.02122  -0.01432  -0.01064  -0.00404
  Beta virt. eigenvalues --   -0.00028   0.00191   0.00363   0.00479   0.00808

 Mulliken charges and spin densities:
               1          2
     1  Na  -0.018165   0.115070
     2  Na  -0.497398   0.400609
     3  Na   0.257445  -0.093048
     4  Na   0.184741   0.131466
     5  Na  -0.239250   0.209462
     6  Na   0.409582   0.266349
     7  Na  -0.096956  -0.029907
 Sum of Mulliken charges =  -0.00000   1.00000

 Dipole moment (field-independent basis, Debye):
    X=              0.6630    Y=             -0.3566    Z=             -0.0447  Tot=              0.7542
 Quadrupole moment (field-independent basis, Debye-Ang):
   XX=            -52.5452   YY=            -70.5507   ZZ=            -69.1526
   XY=             -2.6232   XZ=              0.6826   YZ=             -0.6156

 Normal termination of Gaussian 16 at Thu Dec  7 11:46:35 2023.
