 Gaussian 16, Revision B.01,
 Gaussian 16:  ES64L-G16RevB.01 20-Dec-2017

 -------------------------
 #P B3LYP/6-311+g(d) force
 -------------------------

 -----
 DPGEN
 -----
 Symbolic Z-matrix:
 Charge =  0 Multiplicity = 2

                         Standard orientation:
 ---------------------------------------------------------------------
 Center     Atomic      Atomic             Coordinates (Angstroms)
 Number     Number       Type             X           Y           Z
 ---------------------------------------------------------------------
      1         11           0       -0.300367    0.113272    1.877193
      2         11           0        0.091951    0.096031   -1.811338
      3         11           0        1.071675   -2.617907   -0.104213
      4         11           0       -2.695001    1.478693   -0.040139
      5         11           0        3.100072    0.146227    0.242654
      6         11           0        0.737133    2.892935   -0.126722
      7         11           0       -2.005463   -2.109251   -0.037435
 ---------------------------------------------------------------------

 SCF Done:  E(UB3LYP) =  -1136.14072918     A.U. after   19 cycles

 The electronic state is 2-A.
 Alpha  occ. eigenvalues --  -38.43748 -38.43746 -38.43689 -38.43461 -38.43346
 Alpha  occ. eigenvalues --  -38.43299 -38.43251  -2.19588  -2.19584  -2.19513
 Alpha  occ. eigenvalues --   -2.19352  -2.19282  -2.19208  -2.19199  -1.13284
 Alpha  occ. eigenvalues --   -1.13272  -1.13257  -1.13252  -1.13227  -1.13201
 Alpha  occ. eigenvalues --   -1.13182  -1.13181  -1.13152  -1.13086  -1.13020
 Alpha  occ. eigenvalues --   -1.13002  -1.12950  -1.12908  -1.12905  -1.12895
 Alpha  occ. eigenvalues --   -1.12867  -1.12844  -1.12825  -1.12818  -1.12809
 Alpha  occ. eigenvalues --   -0.18868  -0.12859  -0.12741  -0.10769
 Alpha virt. eigenvalues --   -0.05464  -0.05021  -0.04874  -0.03095  -0.03035
 Alpha virt. eigenvalues --   -0.02517  -0.01333  -0.01194  -0.00332  -0.00212
 Alpha virt. eigenvalues --   -0.00000   0.00376   0.00860   0.00891   0.00924

  Beta  occ. eigenvalues --  -38.43744 -38.43740 -38.43685 -38.43455 -38.43293
  Beta  occ. eigenvalues --  -38.43265 -38.43172  -2.19583  -2.19578  -2.19509
  Beta  occ. eigenvalues --   -2.19345  -2.19192  -2.19132  -2.19063  -1.13276
  Beta  occ. eigenvalues --   -1.13259  -1.13236  -1.13230  -1.13226  -1.13201
  Beta  occ. eigenvalues --   -1.13180  -1.13158  -1.13152  -1.13082  -1.12999
  Beta  occ. eigenvalues --   -1.12980  -1.12879  -1.12852  -1.12826  -1.12816
  Beta  occ. eigenvalues --   -1.12796  -1.12786  -1.12778  -1.12724  -1.12717
  Beta  occ. eigenvalues --   -0.18122  -0.12598  -0.12507
  Beta virt. eigenvalues --   -0.06858  -0.05470  -0.04965  -0.04861  -0.02269
  Beta virt. eigenvalues --   -0.02255  -0.01468  -0.01254  -0.01115  -0.00393
  Beta virt. eigenvalues --   -0.00271   0.00127   0.00389   0.00863   0.00907

 Mulliken charges and spin densities:
               1          2
     1  Na  -0.392794   0.766346
     2  Na  -0.266677   0.663974
     3  Na   0.147330  -0.031817
     4  Na   0.172639  -0.137434
     5  Na   0.018488  -0.060449
     6  Na   0.091220  -0.131423
     7  Na   0.229793  -0.069198
 Sum of Mulliken charges =  -0.00000   1.00000

 Dipole moment (field-independent basis, Debye):
    X=             -0.0522    Y=              0.3073    Z=              0.0385  Tot=              0.3141
 Quadrupole moment (field-independent basis, Debye-Ang):
   XX=            -58.6064   YY=            -60.7522   ZZ=            -74.1624
   XY=             -0.0359   XZ=              1.0032   YZ=             -0.0370

 Normal termination of Gaussian 16 at Thu Dec  7 08:05:23 2023.
