 Gaussian 16, Revision B.01,
 Gaussian 16:  ES64L-G16RevB.01 20-Dec-2017

 -------------------------
 #P B3LYP/6-311+g(d) force
 -------------------------

 -----
 DPGEN
 -----
 Symbolic Z-matrix:
 Charge =  0 Multiplicity = 2

                         Standard orientation:
 ---------------------------------------------------------------------
 Center     Atomic      Atomic             Coordinates (Angstroms)
 Number     Number       Type             X           Y           Z
 ---------------------------------------------------------------------
      1         11           0       -0.522332   -0.344038    1.966058
      2         11           0       -0.534261   -2.630274    0.093850
      3         11           0       -0.027183    0.362418   -1.675986
      4         11           0        2.464862   -1.514752   -0.386603
      5         11           0       -3.029578   -0.337724   -0.416127
      6         11           0       -1.097909    2.894033    0.110934
      7         11           0        2.746401    1.570337    0.307874
 ---------------------------------------------------------------------

 SCF Done:  E(UB3LYP) =  -1136.13420726     A.U. after   20 cycles

 The electronic state is 2-A.
 Alpha  occ. eigenvalues --  -38.44144 -38.44088 -38.43708 -38.43600 -38.43452
 Alpha  occ. eigenvalues --  -38.43180 -38.43089  -2.20004  -2.19904  -2.19538
 Alpha  occ. eigenvalues --   -2.19519  -2.19347  -2.19156  -2.19036  -1.13691
 Alpha  occ. eigenvalues --   -1.13668  -1.13629  -1.13593  -1.13567  -1.13539
 Alpha  occ. eigenvalues --   -1.13274  -1.13215  -1.13190  -1.13157  -1.13148
 Alpha  occ. eigenvalues --   -1.13141  -1.13038  -1.13003  -1.12994  -1.12837
 Alpha  occ. eigenvalues --   -1.12790  -1.12779  -1.12716  -1.12674  -1.12650
 Alpha  occ. eigenvalues --   -0.18868  -0.13156  -0.12479  -0.10817
 Alpha virt. eigenvalues --   -0.05813  -0.05009  -0.04585  -0.03271  -0.02998
 Alpha virt. eigenvalues --   -0.02495  -0.01523  -0.01061  -0.00363  -0.00170
 Alpha virt. eigenvalues --    0.00025   0.00364   0.00840   0.00860   0.00937

  Beta  occ. eigenvalues --  -38.44131 -38.44086 -38.43706 -38.43513 -38.43445
  Beta  occ. eigenvalues --  -38.43115 -38.43078  -2.19985  -2.19901  -2.19518
  Beta  occ. eigenvalues --   -2.19377  -2.19336  -2.19038  -2.19022  -1.13673
  Beta  occ. eigenvalues --   -1.13634  -1.13619  -1.13593  -1.13553  -1.13537
  Beta  occ. eigenvalues --   -1.13209  -1.13174  -1.13170  -1.13146  -1.13047
  Beta  occ. eigenvalues --   -1.13034  -1.13022  -1.13000  -1.12968  -1.12763
  Beta  occ. eigenvalues --   -1.12709  -1.12692  -1.12686  -1.12646  -1.12626
  Beta  occ. eigenvalues --   -0.18130  -0.12928  -0.12234
  Beta virt. eigenvalues --   -0.06904  -0.05775  -0.04970  -0.04526  -0.02528
  Beta virt. eigenvalues --   -0.02215  -0.01493  -0.01406  -0.00986  -0.00387
  Beta virt. eigenvalues --   -0.00182   0.00143   0.00396   0.00855   0.00900

 Mulliken charges and spin densities:
               1          2
     1  Na  -0.513912   0.701324
     2  Na   0.523753   0.086217
     3  Na  -0.116646   0.443890
     4  Na   0.092957  -0.037506
     5  Na   0.219852  -0.084929
     6  Na  -0.132063  -0.094233
     7  Na  -0.073942  -0.014762
 Sum of Mulliken charges =  -0.00000   1.00000

 Dipole moment (field-independent basis, Debye):
    X=             -0.1927    Y=              0.3824    Z=              0.0897  Tot=              0.4375
 Quadrupole moment (field-independent basis, Debye-Ang):
   XX=            -57.0206   YY=            -63.1618   ZZ=            -73.7502
   XY=              0.4077   XZ=              1.2235   YZ=              2.0736

 Normal termination of Gaussian 16 at Fri Dec  8 01:12:15 2023.
