 Gaussian 16, Revision B.01,
 Gaussian 16:  ES64L-G16RevB.01 20-Dec-2017

 -------------------------
 #P B3LYP/6-311+g(d) force
 -------------------------

 -----
 DPGEN
 -----
 Symbolic Z-matrix:
 Charge =  0 Multiplicity = 2

                         Standard orientation:
 ---------------------------------------------------------------------
 Center     Atomic      Atomic             Coordinates (Angstroms)
 Number     Number       Type             X           Y           Z
 ---------------------------------------------------------------------
      1         11           0       -1.855818    2.383150    0.484364
      2         11           0       -3.038516   -1.385066    0.374553
      3         11           0        0.181364   -2.307061   -0.822834
      4         11           0       -0.951937    0.408504   -1.778556
      5         11           0        0.176980   -0.115665    2.153234
      6         11           0        1.848559    1.483237   -0.897345
      7         11           0        3.639366   -0.467099    0.486583
 ---------------------------------------------------------------------

 SCF Done:  E(UB3LYP) =  -1136.12600867     A.U. after   21 cycles

 The electronic state is 2-A.
 Alpha  occ. eigenvalues --  -38.44734 -38.44537 -38.44457 -38.43577 -38.43432
 Alpha  occ. eigenvalues --  -38.43211 -38.43031  -2.20568  -2.20357  -2.20259
 Alpha  occ. eigenvalues --   -2.19482  -2.19438  -2.19074  -2.18873  -1.14237
 Alpha  occ. eigenvalues --   -1.14205  -1.14183  -1.14085  -1.14003  -1.13979
 Alpha  occ. eigenvalues --   -1.13940  -1.13911  -1.13893  -1.13254  -1.13140
 Alpha  occ. eigenvalues --   -1.13126  -1.13100  -1.13077  -1.13030  -1.12776
 Alpha  occ. eigenvalues --   -1.12731  -1.12660  -1.12551  -1.12535  -1.12500
 Alpha  occ. eigenvalues --   -0.18581  -0.13397  -0.11640  -0.11471
 Alpha virt. eigenvalues --   -0.06427  -0.04873  -0.04011  -0.03377  -0.03193
 Alpha virt. eigenvalues --   -0.02870  -0.02037  -0.00969  -0.00447   0.00054
 Alpha virt. eigenvalues --    0.00167   0.00327   0.00423   0.00782   0.00868

  Beta  occ. eigenvalues --  -38.44651 -38.44536 -38.44454 -38.43555 -38.43364
  Beta  occ. eigenvalues --  -38.43187 -38.43025  -2.20414  -2.20358  -2.20256
  Beta  occ. eigenvalues --   -2.19446  -2.19316  -2.19035  -2.18865  -1.14136
  Beta  occ. eigenvalues --   -1.14097  -1.14088  -1.14067  -1.13994  -1.13978
  Beta  occ. eigenvalues --   -1.13931  -1.13907  -1.13888  -1.13197  -1.13103
  Beta  occ. eigenvalues --   -1.13072  -1.13050  -1.12999  -1.12950  -1.12738
  Beta  occ. eigenvalues --   -1.12687  -1.12638  -1.12543  -1.12521  -1.12487
  Beta  occ. eigenvalues --   -0.17776  -0.13256  -0.11261
  Beta virt. eigenvalues --   -0.07629  -0.06241  -0.04781  -0.03621  -0.03067
  Beta virt. eigenvalues --   -0.02331  -0.02030  -0.01901  -0.00892  -0.00237
  Beta virt. eigenvalues --    0.00094   0.00176   0.00342   0.00620   0.00856

 Mulliken charges and spin densities:
               1          2
     1  Na  -0.107777   0.068907
     2  Na   0.129082  -0.016072
     3  Na  -0.261301   0.011566
     4  Na   0.524903   0.256146
     5  Na  -0.356880   0.661466
     6  Na  -0.189743   0.014105
     7  Na   0.261715   0.003882
 Sum of Mulliken charges =  -0.00000   1.00000

 Dipole moment (field-independent basis, Debye):
    X=              0.0599    Y=             -0.3999    Z=              0.6993  Tot=              0.8078
 Quadrupole moment (field-independent basis, Debye-Ang):
   XX=            -52.2097   YY=            -73.4737   ZZ=            -68.9516
   XY=             -0.8450   XZ=             -0.9125   YZ=              0.1445

 Normal termination of Gaussian 16 at Fri Dec  8 00:04:08 2023.
