 Gaussian 16, Revision B.01,
 Gaussian 16:  ES64L-G16RevB.01 20-Dec-2017

 -------------------------
 #P B3LYP/6-311+g(d) force
 -------------------------

 -----
 DPGEN
 -----
 Symbolic Z-matrix:
 Charge =  0 Multiplicity = 2

                         Standard orientation:
 ---------------------------------------------------------------------
 Center     Atomic      Atomic             Coordinates (Angstroms)
 Number     Number       Type             X           Y           Z
 ---------------------------------------------------------------------
      1         11           0       -3.967552   -1.029635   -0.909754
      2         11           0       -0.508214   -1.457928   -0.312655
      3         11           0        3.290353   -1.976797    0.011820
      4         11           0        2.334942    0.957457   -1.598509
      5         11           0        1.580994    1.014927    1.735478
      6         11           0       -0.830863    2.406443   -0.728976
      7         11           0       -1.899660    0.085534    1.802596
 ---------------------------------------------------------------------

 SCF Done:  E(UB3LYP) =  -1136.12661591     A.U. after   22 cycles

 The electronic state is 2-A.
 Alpha  occ. eigenvalues --  -38.44424 -38.44163 -38.44103 -38.44073 -38.44048
 Alpha  occ. eigenvalues --  -38.43386 -38.43116  -2.20214  -2.20040  -2.19983
 Alpha  occ. eigenvalues --   -2.19958  -2.19903  -2.19182  -2.18942  -1.13906
 Alpha  occ. eigenvalues --   -1.13884  -1.13869  -1.13835  -1.13722  -1.13653
 Alpha  occ. eigenvalues --   -1.13650  -1.13633  -1.13623  -1.13604  -1.13575
 Alpha  occ. eigenvalues --   -1.13555  -1.13550  -1.13538  -1.13508  -1.12851
 Alpha  occ. eigenvalues --   -1.12845  -1.12820  -1.12625  -1.12593  -1.12571
 Alpha  occ. eigenvalues --   -0.18115  -0.13776  -0.11243  -0.11089
 Alpha virt. eigenvalues --   -0.06303  -0.05223  -0.04898  -0.03200  -0.02705
 Alpha virt. eigenvalues --   -0.02333  -0.02222  -0.01198  -0.00788  -0.00257
 Alpha virt. eigenvalues --    0.00141   0.00248   0.00327   0.00517   0.00632

  Beta  occ. eigenvalues --  -38.44401 -38.44155 -38.44056 -38.44028 -38.44009
  Beta  occ. eigenvalues --  -38.43385 -38.43094  -2.20170  -2.20028  -2.19905
  Beta  occ. eigenvalues --   -2.19871  -2.19835  -2.19181  -2.18903  -1.13871
  Beta  occ. eigenvalues --   -1.13851  -1.13837  -1.13808  -1.13706  -1.13621
  Beta  occ. eigenvalues --   -1.13593  -1.13578  -1.13569  -1.13563  -1.13528
  Beta  occ. eigenvalues --   -1.13491  -1.13486  -1.13476  -1.13459  -1.12848
  Beta  occ. eigenvalues --   -1.12841  -1.12822  -1.12596  -1.12553  -1.12547
  Beta  occ. eigenvalues --   -0.17429  -0.13562  -0.11012
  Beta virt. eigenvalues --   -0.07309  -0.06044  -0.05161  -0.04321  -0.02957
  Beta virt. eigenvalues --   -0.02316  -0.01991  -0.01650  -0.01038  -0.00371
  Beta virt. eigenvalues --   -0.00145   0.00195   0.00341   0.00446   0.00594

 Mulliken charges and spin densities:
               1          2
     1  Na   0.498585   0.084667
     2  Na  -1.383283   0.352775
     3  Na   0.438161  -0.074297
     4  Na   0.177440   0.156162
     5  Na   0.062559   0.322850
     6  Na  -0.345881   0.194545
     7  Na   0.552419  -0.036701
 Sum of Mulliken charges =  -0.00000   1.00000

 Dipole moment (field-independent basis, Debye):
    X=             -0.5556    Y=              0.3253    Z=              0.1107  Tot=              0.6532
 Quadrupole moment (field-independent basis, Debye-Ang):
   XX=            -53.1385   YY=            -74.3425   ZZ=            -67.1595
   XY=             -0.6647   XZ=              2.1441   YZ=             -0.2142

 Normal termination of Gaussian 16 at Thu Dec  7 17:27:56 2023.
