 Gaussian 16, Revision B.01,
 Gaussian 16:  ES64L-G16RevB.01 20-Dec-2017

 -------------------------
 #P B3LYP/6-311+g(d) force
 -------------------------

 -----
 DPGEN
 -----
 Symbolic Z-matrix:
 Charge =  0 Multiplicity = 2

                         Standard orientation:
 ---------------------------------------------------------------------
 Center     Atomic      Atomic             Coordinates (Angstroms)
 Number     Number       Type             X           Y           Z
 ---------------------------------------------------------------------
      1         11           0        1.553783   -2.709774    1.307238
      2         11           0       -4.097364   -1.292985   -0.733026
      3         11           0        3.150475    2.579671    0.110124
      4         11           0       -3.602611    1.946050    0.136191
      5         11           0        4.207348   -0.739477   -1.140728
      6         11           0       -0.392277    2.540246    0.400069
      7         11           0       -0.819354   -2.323730   -0.079868
 ---------------------------------------------------------------------

 SCF Done:  E(UB3LYP) =  -1136.10612970     A.U. after   21 cycles

 The electronic state is 2-A.
 Alpha  occ. eigenvalues --  -38.45392 -38.44905 -38.44811 -38.44260 -38.44127
 Alpha  occ. eigenvalues --  -38.44092 -38.43784  -2.21150  -2.20699  -2.20552
 Alpha  occ. eigenvalues --   -2.20081  -2.19998  -2.19938  -2.19587  -1.14814
 Alpha  occ. eigenvalues --   -1.14779  -1.14772  -1.14380  -1.14372  -1.14346
 Alpha  occ. eigenvalues --   -1.14241  -1.14227  -1.14195  -1.13961  -1.13729
 Alpha  occ. eigenvalues --   -1.13726  -1.13704  -1.13636  -1.13630  -1.13553
 Alpha  occ. eigenvalues --   -1.13534  -1.13450  -1.13250  -1.13238  -1.13217
 Alpha  occ. eigenvalues --   -0.16052  -0.13952  -0.12995  -0.10771
 Alpha virt. eigenvalues --   -0.07517  -0.05190  -0.03919  -0.03740  -0.03509
 Alpha virt. eigenvalues --   -0.02485  -0.02202  -0.01700  -0.01065  -0.00648
 Alpha virt. eigenvalues --   -0.00412  -0.00219   0.00035   0.00384   0.00622

  Beta  occ. eigenvalues --  -38.45318 -38.44905 -38.44831 -38.44191 -38.44107
  Beta  occ. eigenvalues --  -38.44061 -38.43733  -2.21013  -2.20704  -2.20592
  Beta  occ. eigenvalues --   -2.19966  -2.19951  -2.19886  -2.19492  -1.14721
  Beta  occ. eigenvalues --   -1.14688  -1.14673  -1.14382  -1.14375  -1.14322
  Beta  occ. eigenvalues --   -1.14271  -1.14257  -1.14199  -1.13906  -1.13643
  Beta  occ. eigenvalues --   -1.13638  -1.13622  -1.13616  -1.13608  -1.13520
  Beta  occ. eigenvalues --   -1.13500  -1.13400  -1.13184  -1.13173  -1.13161
  Beta  occ. eigenvalues --   -0.15531  -0.13214  -0.12524
  Beta virt. eigenvalues --   -0.07576  -0.07433  -0.04805  -0.03589  -0.03404
  Beta virt. eigenvalues --   -0.03051  -0.02245  -0.02044  -0.01501  -0.00725
  Beta virt. eigenvalues --   -0.00509  -0.00273   0.00005   0.00199   0.00457

 Mulliken charges and spin densities:
               1          2
     1  Na   1.244800  -0.003031
     2  Na  -0.022161   0.333301
     3  Na  -0.176074   0.150988
     4  Na   0.782493  -0.128252
     5  Na   0.131172   0.368275
     6  Na  -0.628107   0.109231
     7  Na  -1.332122   0.169488
 Sum of Mulliken charges =  -0.00000   1.00000

 Dipole moment (field-independent basis, Debye):
    X=              0.3248    Y=             -0.0078    Z=             -0.0989  Tot=              0.3396
 Quadrupole moment (field-independent basis, Debye-Ang):
   XX=            -58.8089   YY=            -69.3166   ZZ=            -70.6802
   XY=             -3.8100   XZ=              0.8136   YZ=              2.1537

 Normal termination of Gaussian 16 at Sun Dec  3 14:01:30 2023.
