 Gaussian 16, Revision B.01,
 Gaussian 16:  ES64L-G16RevB.01 20-Dec-2017

 -------------------------
 #P B3LYP/6-311+g(d) force
 -------------------------

 -----
 DPGEN
 -----
 Symbolic Z-matrix:
 Charge =  0 Multiplicity = 2

                         Standard orientation:
 ---------------------------------------------------------------------
 Center     Atomic      Atomic             Coordinates (Angstroms)
 Number     Number       Type             X           Y           Z
 ---------------------------------------------------------------------
      1         11           0       -0.242706   -0.182293    2.148246
      2         11           0        1.807340    0.112806   -1.258137
      3         11           0        1.879927    3.024016    0.429954
      4         11           0        2.327645   -2.761436    0.099354
      5         11           0       -3.521089   -0.017420   -0.074029
      6         11           0       -1.064694    1.846931   -0.830789
      7         11           0       -1.186424   -2.022604   -0.514597
 ---------------------------------------------------------------------

 SCF Done:  E(UB3LYP) =  -1136.13291552     A.U. after   19 cycles

 The electronic state is 2-A.
 Alpha  occ. eigenvalues --  -38.43936 -38.43871 -38.43855 -38.43807 -38.43789
 Alpha  occ. eigenvalues --  -38.43507 -38.43305  -2.19750  -2.19746  -2.19739
 Alpha  occ. eigenvalues --   -2.19662  -2.19598  -2.19415  -2.19213  -1.13500
 Alpha  occ. eigenvalues --   -1.13453  -1.13438  -1.13423  -1.13417  -1.13397
 Alpha  occ. eigenvalues --   -1.13394  -1.13368  -1.13320  -1.13297  -1.13293
 Alpha  occ. eigenvalues --   -1.13282  -1.13272  -1.13252  -1.13229  -1.13125
 Alpha  occ. eigenvalues --   -1.13084  -1.13011  -1.12911  -1.12877  -1.12804
 Alpha  occ. eigenvalues --   -0.18350  -0.13147  -0.12630  -0.10546
 Alpha virt. eigenvalues --   -0.05706  -0.05556  -0.04638  -0.03187  -0.02914
 Alpha virt. eigenvalues --   -0.02487  -0.01674  -0.01552  -0.00365  -0.00243
 Alpha virt. eigenvalues --    0.00066   0.00271   0.00721   0.00778   0.00838

  Beta  occ. eigenvalues --  -38.43935 -38.43866 -38.43844 -38.43791 -38.43698
  Beta  occ. eigenvalues --  -38.43485 -38.43275  -2.19747  -2.19738  -2.19727
  Beta  occ. eigenvalues --   -2.19604  -2.19461  -2.19378  -2.19158  -1.13495
  Beta  occ. eigenvalues --   -1.13442  -1.13425  -1.13417  -1.13395  -1.13388
  Beta  occ. eigenvalues --   -1.13384  -1.13344  -1.13295  -1.13293  -1.13247
  Beta  occ. eigenvalues --   -1.13232  -1.13190  -1.13140  -1.13133  -1.13098
  Beta  occ. eigenvalues --   -1.13040  -1.12984  -1.12873  -1.12831  -1.12767
  Beta  occ. eigenvalues --   -0.17645  -0.12944  -0.12460
  Beta virt. eigenvalues --   -0.06657  -0.05548  -0.05480  -0.04582  -0.02520
  Beta virt. eigenvalues --   -0.02286  -0.01662  -0.01445  -0.01403  -0.00401
  Beta virt. eigenvalues --   -0.00085   0.00179   0.00345   0.00765   0.00832

 Mulliken charges and spin densities:
               1          2
     1  Na  -0.494838   0.668806
     2  Na  -0.025355   0.127563
     3  Na   0.137270  -0.057393
     4  Na   0.250537  -0.020186
     5  Na   0.732389   0.053180
     6  Na  -0.342318   0.120325
     7  Na  -0.257684   0.107706
 Sum of Mulliken charges =  -0.00000   1.00000

 Dipole moment (field-independent basis, Debye):
    X=              0.0350    Y=              0.0523    Z=              0.3321  Tot=              0.3381
 Quadrupole moment (field-independent basis, Debye-Ang):
   XX=            -57.4762   YY=            -61.4447   ZZ=            -74.4305
   XY=              0.4919   XZ=              1.6595   YZ=              0.9234

 Normal termination of Gaussian 16 at Thu Dec  7 04:38:32 2023.
