 Gaussian 16, Revision B.01,
 Gaussian 16:  ES64L-G16RevB.01 20-Dec-2017

 -------------------------
 #P B3LYP/6-311+g(d) force
 -------------------------

 -----
 DPGEN
 -----
 Symbolic Z-matrix:
 Charge =  0 Multiplicity = 2

                         Standard orientation:
 ---------------------------------------------------------------------
 Center     Atomic      Atomic             Coordinates (Angstroms)
 Number     Number       Type             X           Y           Z
 ---------------------------------------------------------------------
      1         11           0        2.486365   -1.706272    0.214950
      2         11           0       -1.140983   -1.268390   -1.619857
      3         11           0       -1.030142   -0.641285    2.062864
      4         11           0        4.649457    0.894148    0.560436
      5         11           0        1.366259    0.824702   -1.498465
      6         11           0       -2.181864    2.400210    0.175873
      7         11           0       -4.149092   -0.503113    0.104199
 ---------------------------------------------------------------------

 SCF Done:  E(UB3LYP) =  -1136.10884387     A.U. after   29 cycles

 The electronic state is 2-A.
 Alpha  occ. eigenvalues --  -38.45784 -38.45738 -38.44442 -38.44371 -38.43830
 Alpha  occ. eigenvalues --  -38.43377 -38.42437  -2.21575  -2.21527  -2.20241
 Alpha  occ. eigenvalues --   -2.20204  -2.19702  -2.19159  -2.18295  -1.15260
 Alpha  occ. eigenvalues --   -1.15217  -1.15207  -1.15188  -1.15178  -1.15147
 Alpha  occ. eigenvalues --   -1.13924  -1.13904  -1.13893  -1.13885  -1.13855
 Alpha  occ. eigenvalues --   -1.13794  -1.13383  -1.13363  -1.13310  -1.12830
 Alpha  occ. eigenvalues --   -1.12826  -1.12799  -1.11983  -1.11956  -1.11942
 Alpha  occ. eigenvalues --   -0.17646  -0.14127  -0.11157  -0.10372
 Alpha virt. eigenvalues --   -0.07889  -0.05543  -0.04519  -0.03311  -0.03129
 Alpha virt. eigenvalues --   -0.02478  -0.02193  -0.01642  -0.01240  -0.00564
 Alpha virt. eigenvalues --   -0.00367   0.00002   0.00150   0.00476   0.00592

  Beta  occ. eigenvalues --  -38.45737 -38.45720 -38.44391 -38.44357 -38.43784
  Beta  occ. eigenvalues --  -38.43377 -38.42436  -2.21527  -2.21458  -2.20178
  Beta  occ. eigenvalues --   -2.20147  -2.19619  -2.19159  -2.18298  -1.15207
  Beta  occ. eigenvalues --   -1.15176  -1.15169  -1.15159  -1.15129  -1.15093
  Beta  occ. eigenvalues --   -1.13886  -1.13870  -1.13860  -1.13819  -1.13783
  Beta  occ. eigenvalues --   -1.13774  -1.13329  -1.13303  -1.13243  -1.12827
  Beta  occ. eigenvalues --   -1.12825  -1.12800  -1.11973  -1.11959  -1.11930
  Beta  occ. eigenvalues --   -0.16963  -0.14003  -0.10230
  Beta virt. eigenvalues --   -0.07592  -0.07369  -0.05081  -0.04301  -0.03128
  Beta virt. eigenvalues --   -0.02707  -0.01913  -0.01680  -0.01406  -0.00946
  Beta virt. eigenvalues --   -0.00439  -0.00305   0.00097   0.00237   0.00551

 Mulliken charges and spin densities:
               1          2
     1  Na   0.195239   0.132136
     2  Na  -0.209528   0.022429
     3  Na  -0.229914   0.379487
     4  Na   0.049490  -0.027345
     5  Na  -0.267060   0.227415
     6  Na  -0.137105   0.236864
     7  Na   0.598878   0.029014
 Sum of Mulliken charges =  -0.00000   1.00000

 Dipole moment (field-independent basis, Debye):
    X=             -1.5589    Y=             -0.6277    Z=              0.2759  Tot=              1.7030
 Quadrupole moment (field-independent basis, Debye-Ang):
   XX=            -60.8865   YY=            -68.9804   ZZ=            -72.5414
   XY=              4.6508   XZ=              3.2705   YZ=             -2.1140

 Normal termination of Gaussian 16 at Thu Dec  7 15:53:52 2023.
