 Gaussian 16, Revision B.01,
 Gaussian 16:  ES64L-G16RevB.01 20-Dec-2017

 -------------------------
 #P B3LYP/6-311+g(d) force
 -------------------------

 -----
 DPGEN
 -----
 Symbolic Z-matrix:
 Charge =  0 Multiplicity = 2

                         Standard orientation:
 ---------------------------------------------------------------------
 Center     Atomic      Atomic             Coordinates (Angstroms)
 Number     Number       Type             X           Y           Z
 ---------------------------------------------------------------------
      1         11           0       -1.543096   -2.518778    0.152246
      2         11           0       -4.479208   -1.247947   -0.671093
      3         11           0       -0.186755    3.376919   -0.428958
      4         11           0        3.496926    1.515823    0.077138
      5         11           0       -2.615014    1.975034    0.378207
      6         11           0        1.484527   -1.244354    1.706555
      7         11           0        3.842620   -1.856696   -1.214094
 ---------------------------------------------------------------------

 SCF Done:  E(UB3LYP) =  -1136.11022960     A.U. after   22 cycles

 The electronic state is 2-A.
 Alpha  occ. eigenvalues --  -38.45632 -38.45564 -38.44423 -38.44280 -38.43899
 Alpha  occ. eigenvalues --  -38.43594 -38.43269  -2.21383  -2.21325  -2.20231
 Alpha  occ. eigenvalues --   -2.20087  -2.19684  -2.19403  -2.19088  -1.15073
 Alpha  occ. eigenvalues --   -1.15047  -1.15005  -1.14994  -1.14974  -1.14934
 Alpha  occ. eigenvalues --   -1.13959  -1.13898  -1.13857  -1.13749  -1.13746
 Alpha  occ. eigenvalues --   -1.13696  -1.13370  -1.13358  -1.13331  -1.13055
 Alpha  occ. eigenvalues --   -1.13045  -1.13030  -1.12780  -1.12732  -1.12713
 Alpha  occ. eigenvalues --   -0.16072  -0.13898  -0.12383  -0.10497
 Alpha virt. eigenvalues --   -0.07266  -0.05830  -0.04114  -0.03576  -0.02867
 Alpha virt. eigenvalues --   -0.02552  -0.02010  -0.01889  -0.01408  -0.00656
 Alpha virt. eigenvalues --   -0.00495  -0.00010   0.00218   0.00373   0.00422

  Beta  occ. eigenvalues --  -38.45617 -38.45526 -38.44423 -38.44207 -38.43887
  Beta  occ. eigenvalues --  -38.43544 -38.43267  -2.21356  -2.21255  -2.20233
  Beta  occ. eigenvalues --   -2.19955  -2.19668  -2.19309  -2.19083  -1.15052
  Beta  occ. eigenvalues --   -1.15029  -1.14974  -1.14948  -1.14915  -1.14892
  Beta  occ. eigenvalues --   -1.13955  -1.13895  -1.13858  -1.13659  -1.13655
  Beta  occ. eigenvalues --   -1.13593  -1.13365  -1.13351  -1.13279  -1.12990
  Beta  occ. eigenvalues --   -1.12983  -1.12970  -1.12777  -1.12728  -1.12710
  Beta  occ. eigenvalues --   -0.15519  -0.13458  -0.12067
  Beta virt. eigenvalues --   -0.07132  -0.06975  -0.05611  -0.03689  -0.03369
  Beta virt. eigenvalues --   -0.02537  -0.02108  -0.01817  -0.01688  -0.01087
  Beta virt. eigenvalues --   -0.00612  -0.00153   0.00158   0.00350   0.00453

 Mulliken charges and spin densities:
               1          2
     1  Na  -0.376394  -0.002232
     2  Na   0.467298   0.294509
     3  Na   0.054014  -0.043929
     4  Na  -0.078221   0.185597
     5  Na  -0.326615   0.064175
     6  Na   0.108255   0.291148
     7  Na   0.151663   0.210732
 Sum of Mulliken charges =  -0.00000   1.00000

 Dipole moment (field-independent basis, Debye):
    X=              1.8304    Y=             -0.4828    Z=             -0.3852  Tot=              1.9318
 Quadrupole moment (field-independent basis, Debye-Ang):
   XX=            -61.7142   YY=            -68.0040   ZZ=            -69.9989
   XY=             -1.0013   XZ=             -0.3714   YZ=              4.4725

 Normal termination of Gaussian 16 at Sun Dec  3 22:09:03 2023.
