 Gaussian 16, Revision B.01,
 Gaussian 16:  ES64L-G16RevB.01 20-Dec-2017

 -------------------------
 #P B3LYP/6-311+g(d) force
 -------------------------

 -----
 DPGEN
 -----
 Symbolic Z-matrix:
 Charge =  0 Multiplicity = 2

                         Standard orientation:
 ---------------------------------------------------------------------
 Center     Atomic      Atomic             Coordinates (Angstroms)
 Number     Number       Type             X           Y           Z
 ---------------------------------------------------------------------
      1         11           0        1.994166    2.206452    0.197979
      2         11           0       -0.529930   -2.575913    0.409089
      3         11           0        2.742772   -1.596883   -0.438635
      4         11           0       -3.305662   -0.520649   -0.038958
      5         11           0        0.126861   -0.122992   -1.709886
      6         11           0       -1.355866    2.343816   -0.353641
      7         11           0        0.327659    0.266168    1.934053
 ---------------------------------------------------------------------

 SCF Done:  E(UB3LYP) =  -1136.13731282     A.U. after   18 cycles

 The electronic state is 2-A.
 Alpha  occ. eigenvalues --  -38.43924 -38.43808 -38.43557 -38.43535 -38.43332
 Alpha  occ. eigenvalues --  -38.43304 -38.43247  -2.19730  -2.19646  -2.19506
 Alpha  occ. eigenvalues --   -2.19418  -2.19321  -2.19200  -2.19135  -1.13400
 Alpha  occ. eigenvalues --   -1.13392  -1.13380  -1.13342  -1.13293  -1.13284
 Alpha  occ. eigenvalues --   -1.13250  -1.13172  -1.13119  -1.13080  -1.13044
 Alpha  occ. eigenvalues --   -1.13039  -1.13022  -1.12996  -1.12934  -1.12861
 Alpha  occ. eigenvalues --   -1.12856  -1.12820  -1.12804  -1.12801  -1.12738
 Alpha  occ. eigenvalues --   -0.18907  -0.12861  -0.12668  -0.10968
 Alpha virt. eigenvalues --   -0.05552  -0.05105  -0.04470  -0.03107  -0.03081
 Alpha virt. eigenvalues --   -0.02611  -0.01576  -0.01128  -0.00159  -0.00122
 Alpha virt. eigenvalues --    0.00022   0.00335   0.00823   0.00895   0.00927

  Beta  occ. eigenvalues --  -38.43927 -38.43797 -38.43527 -38.43469 -38.43292
  Beta  occ. eigenvalues --  -38.43262 -38.43234  -2.19738  -2.19627  -2.19408
  Beta  occ. eigenvalues --   -2.19343  -2.19194  -2.19182  -2.19115  -1.13407
  Beta  occ. eigenvalues --   -1.13386  -1.13383  -1.13316  -1.13276  -1.13270
  Beta  occ. eigenvalues --   -1.13184  -1.13071  -1.13052  -1.13037  -1.13003
  Beta  occ. eigenvalues --   -1.12970  -1.12958  -1.12916  -1.12854  -1.12835
  Beta  occ. eigenvalues --   -1.12809  -1.12794  -1.12789  -1.12761  -1.12726
  Beta  occ. eigenvalues --   -0.18177  -0.12620  -0.12390
  Beta virt. eigenvalues --   -0.07040  -0.05488  -0.05079  -0.04441  -0.02372
  Beta virt. eigenvalues --   -0.02285  -0.01567  -0.01479  -0.01063  -0.00157
  Beta virt. eigenvalues --   -0.00129   0.00117   0.00362   0.00878   0.00896

 Mulliken charges and spin densities:
               1          2
     1  Na   0.308129  -0.045360
     2  Na   0.158200   0.010771
     3  Na   0.107636  -0.045686
     4  Na  -0.136118  -0.093673
     5  Na  -0.308388   0.590441
     6  Na   0.182724  -0.037976
     7  Na  -0.312184   0.621482
 Sum of Mulliken charges =  -0.00000   1.00000

 Dipole moment (field-independent basis, Debye):
    X=              0.1095    Y=             -0.0195    Z=              0.0512  Tot=              0.1224
 Quadrupole moment (field-independent basis, Debye-Ang):
   XX=            -55.6395   YY=            -64.3933   ZZ=            -73.4442
   XY=              0.1475   XZ=             -0.5543   YZ=             -0.7085

 Normal termination of Gaussian 16 at Thu Dec  7 21:28:57 2023.
