 Gaussian 16, Revision B.01,
 Gaussian 16:  ES64L-G16RevB.01 20-Dec-2017

 -------------------------
 #P B3LYP/6-311+g(d) force
 -------------------------

 -----
 DPGEN
 -----
 Symbolic Z-matrix:
 Charge =  0 Multiplicity = 2

                         Standard orientation:
 ---------------------------------------------------------------------
 Center     Atomic      Atomic             Coordinates (Angstroms)
 Number     Number       Type             X           Y           Z
 ---------------------------------------------------------------------
      1         11           0       -0.017689   -0.040849    1.945875
      2         11           0        0.023368   -0.023591   -1.867199
      3         11           0        2.609865    0.041116    0.011584
      4         11           0        0.717753    2.144767   -0.053717
      5         11           0       -2.133345    1.380857    0.035260
      6         11           0        0.800164   -2.037673    0.006422
      7         11           0       -2.000116   -1.464628   -0.078224
 ---------------------------------------------------------------------

 SCF Done:  E(UB3LYP) =  -1136.09626248     A.U. after   19 cycles

 The electronic state is 2-A.
 Alpha  occ. eigenvalues --  -38.44190 -38.44170 -38.43837 -38.43451 -38.43448
 Alpha  occ. eigenvalues --  -38.43331 -38.43133  -2.20352  -2.20322  -2.19916
 Alpha  occ. eigenvalues --   -2.19549  -2.19501  -2.19484  -2.19244  -1.14135
 Alpha  occ. eigenvalues --   -1.14054  -1.14036  -1.13981  -1.13974  -1.13939
 Alpha  occ. eigenvalues --   -1.13740  -1.13649  -1.13509  -1.13410  -1.13355
 Alpha  occ. eigenvalues --   -1.13229  -1.13169  -1.13111  -1.13103  -1.13092
 Alpha  occ. eigenvalues --   -1.13021  -1.12954  -1.12901  -1.12872  -1.12806
 Alpha  occ. eigenvalues --   -0.21387  -0.13728  -0.12857  -0.12408
 Alpha virt. eigenvalues --   -0.05058  -0.04304  -0.04027  -0.03760  -0.03307
 Alpha virt. eigenvalues --   -0.03150  -0.00978  -0.00474  -0.00148   0.00364
 Alpha virt. eigenvalues --    0.00783   0.00801   0.01044   0.01164   0.01189

  Beta  occ. eigenvalues --  -38.44091 -38.44074 -38.43828 -38.43440 -38.43440
  Beta  occ. eigenvalues --  -38.43315 -38.43120  -2.20179  -2.20143  -2.19905
  Beta  occ. eigenvalues --   -2.19535  -2.19486  -2.19467  -2.19227  -1.14039
  Beta  occ. eigenvalues --   -1.13937  -1.13915  -1.13866  -1.13847  -1.13811
  Beta  occ. eigenvalues --   -1.13728  -1.13637  -1.13453  -1.13408  -1.13345
  Beta  occ. eigenvalues --   -1.13226  -1.13110  -1.13085  -1.13056  -1.13024
  Beta  occ. eigenvalues --   -1.13017  -1.12950  -1.12892  -1.12808  -1.12801
  Beta  occ. eigenvalues --   -0.20525  -0.13363  -0.12492
  Beta virt. eigenvalues --   -0.08236  -0.05086  -0.04299  -0.04002  -0.02787
  Beta virt. eigenvalues --   -0.02367  -0.02070  -0.00906  -0.00434   0.00011
  Beta virt. eigenvalues --    0.00382   0.00748   0.00779   0.01088   0.01151

 Mulliken charges and spin densities:
               1          2
     1  Na  -0.265148   0.494897
     2  Na  -0.154846   0.443544
     3  Na   0.059422  -0.040340
     4  Na   0.119883   0.054989
     5  Na   0.021139  -0.006675
     6  Na   0.136867   0.057715
     7  Na   0.082683  -0.004130
 Sum of Mulliken charges =  -0.00000   1.00000

 Dipole moment (field-independent basis, Debye):
    X=             -0.0803    Y=              0.1232    Z=              0.1262  Tot=              0.1938
 Quadrupole moment (field-independent basis, Debye-Ang):
   XX=            -61.4204   YY=            -69.8241   ZZ=            -66.9999
   XY=              0.0567   XZ=              0.0794   YZ=              0.0888

 Normal termination of Gaussian 16 at Thu Dec  7 16:27:15 2023.
