 Gaussian 16, Revision B.01,
 Gaussian 16:  ES64L-G16RevB.01 20-Dec-2017

 -------------------------
 #P B3LYP/6-311+g(d) force
 -------------------------

 -----
 DPGEN
 -----
 Symbolic Z-matrix:
 Charge =  0 Multiplicity = 2

                         Standard orientation:
 ---------------------------------------------------------------------
 Center     Atomic      Atomic             Coordinates (Angstroms)
 Number     Number       Type             X           Y           Z
 ---------------------------------------------------------------------
      1         11           0        0.512918   -0.306754   -1.714091
      2         11           0        2.300207    1.673328   -0.093906
      3         11           0       -1.473688   -2.574729   -0.542073
      4         11           0       -0.978795    2.831223   -0.276508
      5         11           0       -2.703906    0.252108    0.242805
      6         11           0        2.446482   -1.657724    0.364070
      7         11           0       -0.103218   -0.217452    2.019703
 ---------------------------------------------------------------------

 SCF Done:  E(UB3LYP) =  -1136.13527984     A.U. after   19 cycles

 The electronic state is 2-A.
 Alpha  occ. eigenvalues --  -38.43791 -38.43778 -38.43638 -38.43517 -38.43409
 Alpha  occ. eigenvalues --  -38.43393 -38.43286  -2.19719  -2.19665  -2.19529
 Alpha  occ. eigenvalues --   -2.19394  -2.19388  -2.19338  -2.19139  -1.13410
 Alpha  occ. eigenvalues --   -1.13399  -1.13370  -1.13334  -1.13308  -1.13292
 Alpha  occ. eigenvalues --   -1.13262  -1.13184  -1.13140  -1.13131  -1.13086
 Alpha  occ. eigenvalues --   -1.13044  -1.13031  -1.13021  -1.13005  -1.12998
 Alpha  occ. eigenvalues --   -1.12973  -1.12940  -1.12799  -1.12784  -1.12777
 Alpha  occ. eigenvalues --   -0.19080  -0.13216  -0.12546  -0.11185
 Alpha virt. eigenvalues --   -0.05284  -0.04997  -0.04700  -0.03442  -0.02999
 Alpha virt. eigenvalues --   -0.02761  -0.01202  -0.01101  -0.00140  -0.00031
 Alpha virt. eigenvalues --    0.00047   0.00372   0.00886   0.00911   0.00943

  Beta  occ. eigenvalues --  -38.43767 -38.43699 -38.43631 -38.43503 -38.43402
  Beta  occ. eigenvalues --  -38.43327 -38.43285  -2.19648  -2.19550  -2.19520
  Beta  occ. eigenvalues --   -2.19366  -2.19329  -2.19271  -2.19139  -1.13378
  Beta  occ. eigenvalues --   -1.13310  -1.13290  -1.13286  -1.13242  -1.13226
  Beta  occ. eigenvalues --   -1.13210  -1.13164  -1.13133  -1.13108  -1.13060
  Beta  occ. eigenvalues --   -1.13023  -1.12998  -1.12969  -1.12962  -1.12929
  Beta  occ. eigenvalues --   -1.12923  -1.12900  -1.12796  -1.12785  -1.12766
  Beta  occ. eigenvalues --   -0.18341  -0.12967  -0.12284
  Beta virt. eigenvalues --   -0.07234  -0.05283  -0.04924  -0.04626  -0.02618
  Beta virt. eigenvalues --   -0.02266  -0.01700  -0.01116  -0.01019  -0.00132
  Beta virt. eigenvalues --   -0.00054   0.00130   0.00404   0.00893   0.00941

 Mulliken charges and spin densities:
               1          2
     1  Na  -0.320659   0.506586
     2  Na   0.202779   0.021600
     3  Na   0.112628  -0.063446
     4  Na  -0.165916  -0.082432
     5  Na   0.260221   0.097110
     6  Na   0.269620  -0.022501
     7  Na  -0.358673   0.543084
 Sum of Mulliken charges =  -0.00000   1.00000

 Dipole moment (field-independent basis, Debye):
    X=              0.3193    Y=             -0.2060    Z=              0.1402  Tot=              0.4051
 Quadrupole moment (field-independent basis, Debye-Ang):
   XX=            -60.9072   YY=            -62.1629   ZZ=            -72.1474
   XY=             -0.0039   XZ=              1.1764   YZ=             -0.2042

 Normal termination of Gaussian 16 at Fri Dec  8 04:57:44 2023.
