 Gaussian 16, Revision B.01,
 Gaussian 16:  ES64L-G16RevB.01 20-Dec-2017

 -------------------------
 #P B3LYP/6-311+g(d) force
 -------------------------

 -----
 DPGEN
 -----
 Symbolic Z-matrix:
 Charge =  0 Multiplicity = 2

                         Standard orientation:
 ---------------------------------------------------------------------
 Center     Atomic      Atomic             Coordinates (Angstroms)
 Number     Number       Type             X           Y           Z
 ---------------------------------------------------------------------
      1         11           0        4.313088    0.225617    1.422375
      2         11           0       -2.423099   -2.915959   -0.033596
      3         11           0        1.682252    2.352893   -0.567114
      4         11           0        2.918531   -1.906382   -1.079676
      5         11           0       -3.591238   -0.052064    0.913534
      6         11           0       -0.423739   -0.456076   -0.220929
      7         11           0       -2.475795    2.751972   -0.434594
 ---------------------------------------------------------------------

 SCF Done:  E(UB3LYP) =  -1136.11660520     A.U. after   26 cycles

 The electronic state is 2-A.
 Alpha  occ. eigenvalues --  -38.45631 -38.44860 -38.44057 -38.43845 -38.43787
 Alpha  occ. eigenvalues --  -38.43770 -38.43184  -2.21370  -2.20621  -2.19862
 Alpha  occ. eigenvalues --   -2.19681  -2.19673  -2.19555  -2.19110  -1.15056
 Alpha  occ. eigenvalues --   -1.15031  -1.15009  -1.14310  -1.14296  -1.14223
 Alpha  occ. eigenvalues --   -1.13511  -1.13508  -1.13468  -1.13399  -1.13361
 Alpha  occ. eigenvalues --   -1.13346  -1.13345  -1.13329  -1.13261  -1.13233
 Alpha  occ. eigenvalues --   -1.13203  -1.13183  -1.12816  -1.12753  -1.12736
 Alpha  occ. eigenvalues --   -0.16904  -0.14306  -0.11839  -0.10200
 Alpha virt. eigenvalues --   -0.07209  -0.05029  -0.04833  -0.03740  -0.02840
 Alpha virt. eigenvalues --   -0.02326  -0.01719  -0.01527  -0.01293  -0.00576
 Alpha virt. eigenvalues --   -0.00382   0.00053   0.00176   0.00404   0.00455

  Beta  occ. eigenvalues --  -38.45634 -38.44836 -38.43963 -38.43848 -38.43768
  Beta  occ. eigenvalues --  -38.43747 -38.43144  -2.21382  -2.20580  -2.19689
  Beta  occ. eigenvalues --   -2.19686  -2.19598  -2.19555  -2.19039  -1.15067
  Beta  occ. eigenvalues --   -1.15030  -1.14998  -1.14284  -1.14255  -1.14193
  Beta  occ. eigenvalues --   -1.13394  -1.13391  -1.13386  -1.13354  -1.13345
  Beta  occ. eigenvalues --   -1.13341  -1.13310  -1.13286  -1.13236  -1.13232
  Beta  occ. eigenvalues --   -1.13191  -1.13161  -1.12767  -1.12697  -1.12682
  Beta  occ. eigenvalues --   -0.16397  -0.13720  -0.11612
  Beta virt. eigenvalues --   -0.07070  -0.06720  -0.04902  -0.04288  -0.03534
  Beta virt. eigenvalues --   -0.02451  -0.01965  -0.01541  -0.01299  -0.00894
  Beta virt. eigenvalues --   -0.00491  -0.00141   0.00252   0.00312   0.00475

 Mulliken charges and spin densities:
               1          2
     1  Na   0.244995   0.605397
     2  Na   0.828035   0.038387
     3  Na   1.028762  -0.006565
     4  Na   0.399013  -0.046451
     5  Na   1.253540   0.355664
     6  Na  -4.407271   0.040715
     7  Na   0.652926   0.012853
 Sum of Mulliken charges =  -0.00000   1.00000

 Dipole moment (field-independent basis, Debye):
    X=              0.1084    Y=             -0.4264    Z=             -0.6790  Tot=              0.8091
 Quadrupole moment (field-independent basis, Debye-Ang):
   XX=            -67.2156   YY=            -61.4034   ZZ=            -69.8838
   XY=              0.7155   XZ=             -4.2244   YZ=              2.0085

 Normal termination of Gaussian 16 at Tue Dec  5 23:52:36 2023.
