 Gaussian 16, Revision B.01,
 Gaussian 16:  ES64L-G16RevB.01 20-Dec-2017

 -------------------------
 #P B3LYP/6-311+g(d) force
 -------------------------

 -----
 DPGEN
 -----
 Symbolic Z-matrix:
 Charge =  0 Multiplicity = 2

                         Standard orientation:
 ---------------------------------------------------------------------
 Center     Atomic      Atomic             Coordinates (Angstroms)
 Number     Number       Type             X           Y           Z
 ---------------------------------------------------------------------
      1         11           0        0.454634   -0.608598    1.827468
      2         11           0       -0.023743   -0.930274   -1.777903
      3         11           0       -2.504235   -2.558674    0.325579
      4         11           0        3.137419   -1.809382   -0.243896
      5         11           0       -0.661419    2.918947   -0.032857
      6         11           0       -2.915923    1.115281   -0.171856
      7         11           0        2.513266    1.872700    0.073465
 ---------------------------------------------------------------------

 SCF Done:  E(UB3LYP) =  -1136.12609544     A.U. after   21 cycles

 The electronic state is 2-A.
 Alpha  occ. eigenvalues --  -38.44630 -38.44513 -38.44391 -38.44232 -38.43798
 Alpha  occ. eigenvalues --  -38.43710 -38.43139  -2.20418  -2.20314  -2.20237
 Alpha  occ. eigenvalues --   -2.20010  -2.19635  -2.19557  -2.19009  -1.14088
 Alpha  occ. eigenvalues --   -1.14076  -1.14058  -1.13994  -1.13987  -1.13985
 Alpha  occ. eigenvalues --   -1.13939  -1.13890  -1.13851  -1.13679  -1.13668
 Alpha  occ. eigenvalues --   -1.13651  -1.13322  -1.13284  -1.13245  -1.13234
 Alpha  occ. eigenvalues --   -1.13202  -1.13164  -1.12711  -1.12649  -1.12639
 Alpha  occ. eigenvalues --   -0.17827  -0.13255  -0.12409  -0.10204
 Alpha virt. eigenvalues --   -0.06534  -0.05847  -0.04548  -0.03243  -0.02729
 Alpha virt. eigenvalues --   -0.02304  -0.01976  -0.01704  -0.00906  -0.00331
 Alpha virt. eigenvalues --   -0.00061   0.00302   0.00626   0.00643   0.00672

  Beta  occ. eigenvalues --  -38.44621 -38.44507 -38.44385 -38.44225 -38.43734
  Beta  occ. eigenvalues --  -38.43636 -38.43138  -2.20404  -2.20307  -2.20229
  Beta  occ. eigenvalues --   -2.19999  -2.19516  -2.19420  -2.19009  -1.14075
  Beta  occ. eigenvalues --   -1.14053  -1.14048  -1.13991  -1.13982  -1.13962
  Beta  occ. eigenvalues --   -1.13938  -1.13868  -1.13846  -1.13668  -1.13650
  Beta  occ. eigenvalues --   -1.13644  -1.13240  -1.13200  -1.13156  -1.13139
  Beta  occ. eigenvalues --   -1.13108  -1.13062  -1.12712  -1.12650  -1.12623
  Beta  occ. eigenvalues --   -0.17197  -0.13052  -0.12184
  Beta virt. eigenvalues --   -0.06657  -0.06301  -0.05670  -0.04453  -0.02586
  Beta virt. eigenvalues --   -0.02133  -0.01844  -0.01667  -0.01261  -0.00955
  Beta virt. eigenvalues --   -0.00322   0.00135   0.00358   0.00646   0.00751

 Mulliken charges and spin densities:
               1          2
     1  Na  -0.164836   0.434174
     2  Na  -0.165570   0.377209
     3  Na   0.205589   0.058396
     4  Na   0.219699   0.083988
     5  Na  -0.321438  -0.067457
     6  Na   0.125023   0.055850
     7  Na   0.101533   0.057840
 Sum of Mulliken charges =  -0.00000   1.00000

 Dipole moment (field-independent basis, Debye):
    X=              0.4787    Y=             -0.6656    Z=              0.0127  Tot=              0.8200
 Quadrupole moment (field-independent basis, Debye-Ang):
   XX=            -53.1161   YY=            -64.3459   ZZ=            -76.7931
   XY=              1.2035   XZ=             -0.5733   YZ=             -0.7126

 Normal termination of Gaussian 16 at Mon Dec  4 02:32:28 2023.
