 Gaussian 16, Revision B.01,
 Gaussian 16:  ES64L-G16RevB.01 20-Dec-2017

 -------------------------
 #P B3LYP/6-311+g(d) force
 -------------------------

 -----
 DPGEN
 -----
 Symbolic Z-matrix:
 Charge =  0 Multiplicity = 2

                         Standard orientation:
 ---------------------------------------------------------------------
 Center     Atomic      Atomic             Coordinates (Angstroms)
 Number     Number       Type             X           Y           Z
 ---------------------------------------------------------------------
      1         11           0       -1.437399    1.356502    1.018402
      2         11           0       -0.620915   -2.207572    1.318567
      3         11           0        1.937275    0.268147    1.703847
      4         11           0        2.681020   -1.894952   -1.109004
      5         11           0        0.991690    3.205318   -0.535308
      6         11           0       -3.566203   -0.550708   -0.703961
      7         11           0        0.014532   -0.176735   -1.692542
 ---------------------------------------------------------------------

 SCF Done:  E(UB3LYP) =  -1136.13459325     A.U. after   19 cycles

 The electronic state is 2-A.
 Alpha  occ. eigenvalues --  -38.44187 -38.44005 -38.43872 -38.43711 -38.43681
 Alpha  occ. eigenvalues --  -38.43254 -38.43162  -2.20005  -2.19849  -2.19676
 Alpha  occ. eigenvalues --   -2.19595  -2.19531  -2.19161  -2.18966  -1.13701
 Alpha  occ. eigenvalues --   -1.13666  -1.13607  -1.13540  -1.13499  -1.13454
 Alpha  occ. eigenvalues --   -1.13352  -1.13340  -1.13307  -1.13295  -1.13281
 Alpha  occ. eigenvalues --   -1.13221  -1.13180  -1.13166  -1.13140  -1.12867
 Alpha  occ. eigenvalues --   -1.12841  -1.12764  -1.12634  -1.12624  -1.12599
 Alpha  occ. eigenvalues --   -0.18191  -0.12741  -0.11948  -0.11399
 Alpha virt. eigenvalues --   -0.05637  -0.04901  -0.04683  -0.03307  -0.02962
 Alpha virt. eigenvalues --   -0.02804  -0.01604  -0.01117  -0.00794   0.00146
 Alpha virt. eigenvalues --    0.00231   0.00313   0.00398   0.00765   0.00813

  Beta  occ. eigenvalues --  -38.44147 -38.43958 -38.43867 -38.43686 -38.43617
  Beta  occ. eigenvalues --  -38.43239 -38.43160  -2.19934  -2.19767  -2.19667
  Beta  occ. eigenvalues --   -2.19487  -2.19479  -2.19137  -2.18964  -1.13647
  Beta  occ. eigenvalues --   -1.13602  -1.13561  -1.13475  -1.13436  -1.13398
  Beta  occ. eigenvalues --   -1.13347  -1.13325  -1.13301  -1.13231  -1.13199
  Beta  occ. eigenvalues --   -1.13155  -1.13137  -1.13118  -1.13093  -1.12854
  Beta  occ. eigenvalues --   -1.12792  -1.12754  -1.12624  -1.12623  -1.12598
  Beta  occ. eigenvalues --   -0.17422  -0.12527  -0.11774
  Beta virt. eigenvalues --   -0.07459  -0.05481  -0.04760  -0.04396  -0.02862
  Beta virt. eigenvalues --   -0.02459  -0.01901  -0.01487  -0.01035  -0.00374
  Beta virt. eigenvalues --    0.00123   0.00313   0.00352   0.00527   0.00795

 Mulliken charges and spin densities:
               1          2
     1  Na  -0.051779   0.256015
     2  Na  -0.253434   0.156313
     3  Na   0.139663   0.313002
     4  Na  -0.032896  -0.083318
     5  Na  -0.019022  -0.162881
     6  Na   0.336892  -0.123624
     7  Na  -0.119424   0.644493
 Sum of Mulliken charges =  -0.00000   1.00000

 Dipole moment (field-independent basis, Debye):
    X=             -0.0466    Y=             -0.3916    Z=              0.0797  Tot=              0.4023
 Quadrupole moment (field-independent basis, Debye-Ang):
   XX=            -58.2542   YY=            -66.7386   ZZ=            -68.2808
   XY=              1.1441   XZ=              0.9434   YZ=             -1.1861

 Normal termination of Gaussian 16 at Tue Dec  5 13:27:13 2023.
