 Gaussian 16, Revision B.01,
 Gaussian 16:  ES64L-G16RevB.01 20-Dec-2017

 -------------------------
 #P B3LYP/6-311+g(d) force
 -------------------------

 -----
 DPGEN
 -----
 Symbolic Z-matrix:
 Charge =  0 Multiplicity = 2

                         Standard orientation:
 ---------------------------------------------------------------------
 Center     Atomic      Atomic             Coordinates (Angstroms)
 Number     Number       Type             X           Y           Z
 ---------------------------------------------------------------------
      1         11           0       -3.926791   -1.310084   -1.693922
      2         11           0        4.165760    0.627002   -0.700028
      3         11           0       -0.672367    0.547789   -1.288126
      4         11           0        2.895596   -2.203965   -0.068071
      5         11           0        0.111448   -1.587334    2.033339
      6         11           0       -3.220594    0.871265    1.484616
      7         11           0        0.646948    3.055327    0.232193
 ---------------------------------------------------------------------

 SCF Done:  E(UB3LYP) =  -1136.10699958     A.U. after   24 cycles

 The electronic state is 2-A.
 Alpha  occ. eigenvalues --  -38.46177 -38.45141 -38.44734 -38.44482 -38.44453
 Alpha  occ. eigenvalues --  -38.43388 -38.42793  -2.21898  -2.20920  -2.20545
 Alpha  occ. eigenvalues --   -2.20271  -2.20236  -2.19197  -2.18577  -1.15577
 Alpha  occ. eigenvalues --   -1.15553  -1.15545  -1.14587  -1.14581  -1.14533
 Alpha  occ. eigenvalues --   -1.14243  -1.14224  -1.14160  -1.13923  -1.13915
 Alpha  occ. eigenvalues --   -1.13896  -1.13889  -1.13874  -1.13838  -1.12875
 Alpha  occ. eigenvalues --   -1.12866  -1.12850  -1.12264  -1.12247  -1.12212
 Alpha  occ. eigenvalues --   -0.16583  -0.13748  -0.11188  -0.11151
 Alpha virt. eigenvalues --   -0.07341  -0.05498  -0.04793  -0.03144  -0.02891
 Alpha virt. eigenvalues --   -0.02714  -0.02439  -0.01663  -0.01056  -0.00671
 Alpha virt. eigenvalues --   -0.00320  -0.00074   0.00004   0.00280   0.00575

  Beta  occ. eigenvalues --  -38.46184 -38.45100 -38.44731 -38.44391 -38.44373
  Beta  occ. eigenvalues --  -38.43394 -38.42806  -2.21915  -2.20843  -2.20542
  Beta  occ. eigenvalues --   -2.20101  -2.20087  -2.19212  -2.18600  -1.15581
  Beta  occ. eigenvalues --   -1.15564  -1.15548  -1.14535  -1.14529  -1.14482
  Beta  occ. eigenvalues --   -1.14231  -1.14215  -1.14163  -1.13805  -1.13797
  Beta  occ. eigenvalues --   -1.13797  -1.13787  -1.13765  -1.13734  -1.12884
  Beta  occ. eigenvalues --   -1.12878  -1.12840  -1.12282  -1.12261  -1.12224
  Beta  occ. eigenvalues --   -0.16070  -0.13280  -0.10986
  Beta virt. eigenvalues --   -0.07662  -0.07053  -0.05016  -0.04459  -0.03020
  Beta virt. eigenvalues --   -0.02601  -0.02314  -0.02017  -0.01338  -0.00851
  Beta virt. eigenvalues --   -0.00417  -0.00232   0.00040   0.00128   0.00483

 Mulliken charges and spin densities:
               1          2
     1  Na   0.063664   0.412991
     2  Na   0.028605   0.230081
     3  Na  -0.540232  -0.062934
     4  Na   0.166990  -0.038313
     5  Na  -0.179167   0.382114
     6  Na   0.242239   0.004689
     7  Na   0.217901   0.071372
 Sum of Mulliken charges =  -0.00000   1.00000

 Dipole moment (field-independent basis, Debye):
    X=             -0.8252    Y=              0.3322    Z=              0.6485  Tot=              1.1009
 Quadrupole moment (field-independent basis, Debye-Ang):
   XX=            -56.2616   YY=            -74.4464   ZZ=            -68.1409
   XY=              0.6349   XZ=             -6.2049   YZ=              6.3162

 Normal termination of Gaussian 16 at Sun Dec  3 15:59:19 2023.
