 Gaussian 16, Revision B.01,
 Gaussian 16:  ES64L-G16RevB.01 20-Dec-2017

 -------------------------
 #P B3LYP/6-311+g(d) force
 -------------------------

 -----
 DPGEN
 -----
 Symbolic Z-matrix:
 Charge =  0 Multiplicity = 2

                         Standard orientation:
 ---------------------------------------------------------------------
 Center     Atomic      Atomic             Coordinates (Angstroms)
 Number     Number       Type             X           Y           Z
 ---------------------------------------------------------------------
      1         11           0        0.160164   -0.860382   -1.826942
      2         11           0        2.476222    1.507657   -0.762845
      3         11           0       -3.805704   -1.735099   -0.593980
      4         11           0       -2.742712    0.668693    1.157228
      5         11           0       -0.707847    2.705871   -0.135664
      6         11           0        3.688173   -1.566796    0.357142
      7         11           0        0.931704   -0.719945    1.805062
 ---------------------------------------------------------------------

 SCF Done:  E(UB3LYP) =  -1136.11927191     A.U. after   23 cycles

 The electronic state is 2-A.
 Alpha  occ. eigenvalues --  -38.45160 -38.44859 -38.44314 -38.44312 -38.44096
 Alpha  occ. eigenvalues --  -38.43896 -38.42683  -2.20964  -2.20698  -2.20169
 Alpha  occ. eigenvalues --   -2.20135  -2.19883  -2.19765  -2.18525  -1.14647
 Alpha  occ. eigenvalues --   -1.14602  -1.14571  -1.14377  -1.14346  -1.14319
 Alpha  occ. eigenvalues --   -1.13850  -1.13838  -1.13821  -1.13799  -1.13784
 Alpha  occ. eigenvalues --   -1.13751  -1.13598  -1.13541  -1.13521  -1.13445
 Alpha  occ. eigenvalues --   -1.13423  -1.13376  -1.12214  -1.12182  -1.12167
 Alpha  occ. eigenvalues --   -0.17918  -0.13962  -0.11420  -0.11070
 Alpha virt. eigenvalues --   -0.06954  -0.05643  -0.04665  -0.03145  -0.02743
 Alpha virt. eigenvalues --   -0.02661  -0.02490  -0.01475  -0.00715  -0.00360
 Alpha virt. eigenvalues --    0.00037   0.00122   0.00244   0.00372   0.00576

  Beta  occ. eigenvalues --  -38.45079 -38.44800 -38.44311 -38.44297 -38.44091
  Beta  occ. eigenvalues --  -38.43875 -38.42682  -2.20814  -2.20590  -2.20140
  Beta  occ. eigenvalues --   -2.20136  -2.19872  -2.19729  -2.18525  -1.14544
  Beta  occ. eigenvalues --   -1.14499  -1.14458  -1.14299  -1.14275  -1.14237
  Beta  occ. eigenvalues --   -1.13826  -1.13817  -1.13805  -1.13786  -1.13777
  Beta  occ. eigenvalues --   -1.13748  -1.13590  -1.13533  -1.13508  -1.13423
  Beta  occ. eigenvalues --   -1.13395  -1.13344  -1.12213  -1.12179  -1.12155
  Beta  occ. eigenvalues --   -0.17246  -0.13780  -0.11188
  Beta virt. eigenvalues --   -0.07376  -0.06707  -0.05396  -0.04152  -0.02928
  Beta virt. eigenvalues --   -0.02462  -0.02093  -0.01888  -0.01208  -0.00508
  Beta virt. eigenvalues --   -0.00343   0.00104   0.00160   0.00414   0.00509

 Mulliken charges and spin densities:
               1          2
     1  Na  -0.373186   0.454382
     2  Na   0.301532   0.175427
     3  Na  -0.044103   0.024789
     4  Na   0.389843   0.077251
     5  Na  -0.390883  -0.009261
     6  Na   0.620951  -0.040680
     7  Na  -0.504154   0.318092
 Sum of Mulliken charges =  -0.00000   1.00000

 Dipole moment (field-independent basis, Debye):
    X=              1.1058    Y=             -0.4152    Z=             -0.2628  Tot=              1.2101
 Quadrupole moment (field-independent basis, Debye-Ang):
   XX=            -54.1327   YY=            -71.9998   ZZ=            -71.9650
   XY=              0.0272   XZ=             -2.0688   YZ=              1.7472

 Normal termination of Gaussian 16 at Fri Dec  8 19:29:31 2023.
