 Gaussian 16, Revision B.01,
 Gaussian 16:  ES64L-G16RevB.01 20-Dec-2017

 -------------------------
 #P B3LYP/6-311+g(d) force
 -------------------------

 -----
 DPGEN
 -----
 Symbolic Z-matrix:
 Charge =  0 Multiplicity = 2

                         Standard orientation:
 ---------------------------------------------------------------------
 Center     Atomic      Atomic             Coordinates (Angstroms)
 Number     Number       Type             X           Y           Z
 ---------------------------------------------------------------------
      1         11           0       -2.473808   -1.834895    0.184010
      2         11           0        1.076152    2.451272    0.435546
      3         11           0       -2.376491    2.058895   -0.428814
      4         11           0        3.392308   -0.104300   -0.126766
      5         11           0       -0.106543    0.117676   -1.763899
      6         11           0        0.781602   -2.517794   -0.271700
      7         11           0       -0.293221   -0.170853    1.971624
 ---------------------------------------------------------------------

 SCF Done:  E(UB3LYP) =  -1136.13779683     A.U. after   18 cycles

 The electronic state is 2-A.
 Alpha  occ. eigenvalues --  -38.43995 -38.43732 -38.43646 -38.43639 -38.43429
 Alpha  occ. eigenvalues --  -38.43321 -38.43188  -2.19793  -2.19590  -2.19568
 Alpha  occ. eigenvalues --   -2.19477  -2.19398  -2.19195  -2.19094  -1.13464
 Alpha  occ. eigenvalues --   -1.13454  -1.13440  -1.13312  -1.13257  -1.13235
 Alpha  occ. eigenvalues --   -1.13226  -1.13193  -1.13188  -1.13171  -1.13125
 Alpha  occ. eigenvalues --   -1.13115  -1.13093  -1.13044  -1.13001  -1.12883
 Alpha  occ. eigenvalues --   -1.12862  -1.12801  -1.12781  -1.12760  -1.12693
 Alpha  occ. eigenvalues --   -0.18782  -0.12830  -0.12561  -0.11004
 Alpha virt. eigenvalues --   -0.05603  -0.05122  -0.04432  -0.03158  -0.03039
 Alpha virt. eigenvalues --   -0.02698  -0.01606  -0.01149  -0.00188  -0.00114
 Alpha virt. eigenvalues --    0.00005   0.00335   0.00798   0.00888   0.00922

  Beta  occ. eigenvalues --  -38.43998 -38.43726 -38.43636 -38.43550 -38.43357
  Beta  occ. eigenvalues --  -38.43309 -38.43178  -2.19800  -2.19582  -2.19462
  Beta  occ. eigenvalues --   -2.19405  -2.19266  -2.19175  -2.19078  -1.13469
  Beta  occ. eigenvalues --   -1.13448  -1.13445  -1.13281  -1.13237  -1.13216
  Beta  occ. eigenvalues --   -1.13160  -1.13132  -1.13108  -1.13106  -1.13078
  Beta  occ. eigenvalues --   -1.13067  -1.13007  -1.12960  -1.12910  -1.12860
  Beta  occ. eigenvalues --   -1.12826  -1.12791  -1.12763  -1.12724  -1.12683
  Beta  occ. eigenvalues --   -0.18040  -0.12605  -0.12284
  Beta virt. eigenvalues --   -0.07076  -0.05538  -0.05101  -0.04398  -0.02400
  Beta virt. eigenvalues --   -0.02268  -0.01641  -0.01525  -0.01081  -0.00171
  Beta virt. eigenvalues --   -0.00144   0.00102   0.00356   0.00860   0.00886

 Mulliken charges and spin densities:
               1          2
     1  Na   0.280178  -0.051223
     2  Na   0.168082   0.007080
     3  Na   0.072452  -0.061538
     4  Na  -0.107548  -0.101397
     5  Na  -0.294211   0.627512
     6  Na   0.187475  -0.047850
     7  Na  -0.306428   0.627416
 Sum of Mulliken charges =  -0.00000   1.00000

 Dipole moment (field-independent basis, Debye):
    X=             -0.1077    Y=             -0.0021    Z=              0.0699  Tot=              0.1284
 Quadrupole moment (field-independent basis, Debye-Ang):
   XX=            -55.3811   YY=            -64.9469   ZZ=            -73.1896
   XY=              0.0711   XZ=              0.2582   YZ=              0.4411

 Normal termination of Gaussian 16 at Fri Dec  8 02:43:39 2023.
