 Gaussian 16, Revision B.01,
 Gaussian 16:  ES64L-G16RevB.01 20-Dec-2017

 -------------------------
 #P B3LYP/6-311+g(d) force
 -------------------------

 -----
 DPGEN
 -----
 Symbolic Z-matrix:
 Charge =  0 Multiplicity = 2

                         Standard orientation:
 ---------------------------------------------------------------------
 Center     Atomic      Atomic             Coordinates (Angstroms)
 Number     Number       Type             X           Y           Z
 ---------------------------------------------------------------------
      1         11           0        0.999200    0.150143    2.416930
      2         11           0       -0.996046   -2.939970   -0.593014
      3         11           0       -3.170901   -0.364792    0.171124
      4         11           0       -1.694775    2.880434    0.030481
      5         11           0        2.510226    1.785398   -1.069741
      6         11           0       -0.058257    0.077887   -1.044172
      7         11           0        2.410554   -1.589100    0.088391
 ---------------------------------------------------------------------

 SCF Done:  E(UB3LYP) =  -1136.12949937     A.U. after   21 cycles

 The electronic state is 2-A.
 Alpha  occ. eigenvalues --  -38.44272 -38.44096 -38.44031 -38.43839 -38.43804
 Alpha  occ. eigenvalues --  -38.43177 -38.42708  -2.20120  -2.19938  -2.19852
 Alpha  occ. eigenvalues --   -2.19727  -2.19590  -2.19020  -2.18783  -1.13781
 Alpha  occ. eigenvalues --   -1.13746  -1.13729  -1.13648  -1.13566  -1.13556
 Alpha  occ. eigenvalues --   -1.13536  -1.13527  -1.13476  -1.13424  -1.13397
 Alpha  occ. eigenvalues --   -1.13335  -1.13266  -1.13251  -1.13227  -1.12733
 Alpha  occ. eigenvalues --   -1.12674  -1.12647  -1.12475  -1.12435  -1.12412
 Alpha  occ. eigenvalues --   -0.18232  -0.13173  -0.12164  -0.10941
 Alpha virt. eigenvalues --   -0.05662  -0.05299  -0.04693  -0.03234  -0.02671
 Alpha virt. eigenvalues --   -0.02654  -0.01514  -0.01247  -0.00523  -0.00440
 Alpha virt. eigenvalues --   -0.00058   0.00322   0.00766   0.00815   0.00837

  Beta  occ. eigenvalues --  -38.44160 -38.44054 -38.44033 -38.43829 -38.43807
  Beta  occ. eigenvalues --  -38.43171 -38.42677  -2.19913  -2.19863  -2.19856
  Beta  occ. eigenvalues --   -2.19715  -2.19596  -2.19010  -2.18729  -1.13645
  Beta  occ. eigenvalues --   -1.13602  -1.13591  -1.13585  -1.13537  -1.13525
  Beta  occ. eigenvalues --   -1.13509  -1.13508  -1.13479  -1.13419  -1.13341
  Beta  occ. eigenvalues --   -1.13332  -1.13267  -1.13253  -1.13232  -1.12720
  Beta  occ. eigenvalues --   -1.12663  -1.12641  -1.12428  -1.12386  -1.12375
  Beta  occ. eigenvalues --   -0.17587  -0.12928  -0.11951
  Beta virt. eigenvalues --   -0.06959  -0.05576  -0.05135  -0.04601  -0.02602
  Beta virt. eigenvalues --   -0.02062  -0.01709  -0.01341  -0.01183  -0.00522
  Beta virt. eigenvalues --   -0.00379   0.00138   0.00384   0.00819   0.00861

 Mulliken charges and spin densities:
               1          2
     1  Na  -0.603327   0.538305
     2  Na   0.210730   0.023270
     3  Na   0.133128   0.061983
     4  Na  -0.205280  -0.026502
     5  Na   0.017934   0.076322
     6  Na  -0.011216   0.134726
     7  Na   0.458032   0.191896
 Sum of Mulliken charges =  -0.00000   1.00000

 Dipole moment (field-independent basis, Debye):
    X=              0.0731    Y=              0.2503    Z=              0.3746  Tot=              0.4564
 Quadrupole moment (field-independent basis, Debye-Ang):
   XX=            -58.0947   YY=            -61.7088   ZZ=            -73.4410
   XY=              0.1799   XZ=             -2.6210   YZ=              0.1950

 Normal termination of Gaussian 16 at Tue Dec  5 23:11:36 2023.
