 Gaussian 16, Revision B.01,
 Gaussian 16:  ES64L-G16RevB.01 20-Dec-2017

 -------------------------
 #P B3LYP/6-311+g(d) force
 -------------------------

 -----
 DPGEN
 -----
 Symbolic Z-matrix:
 Charge =  0 Multiplicity = 2

                         Standard orientation:
 ---------------------------------------------------------------------
 Center     Atomic      Atomic             Coordinates (Angstroms)
 Number     Number       Type             X           Y           Z
 ---------------------------------------------------------------------
      1         11           0        2.930753   -2.413507   -0.873088
      2         11           0       -0.724940   -1.606955    1.469150
      3         11           0        0.055275   -0.338651   -1.218718
      4         11           0       -3.679504   -1.413110   -0.119826
      5         11           0       -2.224270    1.867853   -0.187795
      6         11           0        2.662318    0.626956    1.141885
      7         11           0        0.980369    3.277415   -0.211609
 ---------------------------------------------------------------------

 SCF Done:  E(UB3LYP) =  -1136.12633689     A.U. after   20 cycles

 The electronic state is 2-A.
 Alpha  occ. eigenvalues --  -38.44787 -38.44189 -38.43899 -38.43893 -38.43886
 Alpha  occ. eigenvalues --  -38.43886 -38.43285  -2.20584  -2.20047  -2.19808
 Alpha  occ. eigenvalues --   -2.19726  -2.19724  -2.19696  -2.19094  -1.14256
 Alpha  occ. eigenvalues --   -1.14252  -1.14219  -1.13812  -1.13697  -1.13624
 Alpha  occ. eigenvalues --   -1.13525  -1.13465  -1.13441  -1.13398  -1.13395
 Alpha  occ. eigenvalues --   -1.13389  -1.13377  -1.13363  -1.13351  -1.13336
 Alpha  occ. eigenvalues --   -1.13327  -1.13302  -1.12769  -1.12757  -1.12738
 Alpha  occ. eigenvalues --   -0.17827  -0.13568  -0.12353  -0.09926
 Alpha virt. eigenvalues --   -0.06472  -0.05611  -0.05057  -0.03094  -0.02631
 Alpha virt. eigenvalues --   -0.02303  -0.01756  -0.01624  -0.00900  -0.00454
 Alpha virt. eigenvalues --   -0.00121   0.00187   0.00524   0.00586   0.00679

  Beta  occ. eigenvalues --  -38.44789 -38.44143 -38.43867 -38.43857 -38.43852
  Beta  occ. eigenvalues --  -38.43851 -38.43287  -2.20590  -2.19962  -2.19749
  Beta  occ. eigenvalues --   -2.19691  -2.19647  -2.19618  -2.19100  -1.14263
  Beta  occ. eigenvalues --   -1.14239  -1.14223  -1.13754  -1.13635  -1.13567
  Beta  occ. eigenvalues --   -1.13469  -1.13425  -1.13406  -1.13365  -1.13343
  Beta  occ. eigenvalues --   -1.13335  -1.13333  -1.13312  -1.13309  -1.13291
  Beta  occ. eigenvalues --   -1.13278  -1.13252  -1.12777  -1.12755  -1.12728
  Beta  occ. eigenvalues --   -0.17338  -0.13228  -0.12016
  Beta virt. eigenvalues --   -0.06545  -0.06277  -0.05344  -0.04713  -0.02715
  Beta virt. eigenvalues --   -0.02320  -0.01945  -0.01517  -0.01094  -0.00808
  Beta virt. eigenvalues --   -0.00226   0.00083   0.00263   0.00666   0.00679

 Mulliken charges and spin densities:
               1          2
     1  Na   0.149072   0.108710
     2  Na  -0.284957   0.280843
     3  Na  -0.400017   0.215378
     4  Na   0.431672   0.002865
     5  Na   0.152343   0.063058
     6  Na  -0.021210   0.297098
     7  Na  -0.026903   0.032048
 Sum of Mulliken charges =  -0.00000   1.00000

 Dipole moment (field-independent basis, Debye):
    X=             -0.9144    Y=             -0.4883    Z=              0.0766  Tot=              1.0394
 Quadrupole moment (field-independent basis, Debye-Ang):
   XX=            -52.1046   YY=            -66.2418   ZZ=            -74.9338
   XY=              0.9972   XZ=              1.4787   YZ=              0.6544

 Normal termination of Gaussian 16 at Thu Dec  7 11:10:20 2023.
