 Gaussian 16, Revision B.01,
 Gaussian 16:  ES64L-G16RevB.01 20-Dec-2017

 -------------------------
 #P B3LYP/6-311+g(d) force
 -------------------------

 -----
 DPGEN
 -----
 Symbolic Z-matrix:
 Charge =  0 Multiplicity = 2

                         Standard orientation:
 ---------------------------------------------------------------------
 Center     Atomic      Atomic             Coordinates (Angstroms)
 Number     Number       Type             X           Y           Z
 ---------------------------------------------------------------------
      1         11           0       -2.584059   -1.851273   -0.509896
      2         11           0        1.156483    2.747296   -0.249281
      3         11           0       -0.209522    0.219038    2.079020
      4         11           0        1.318137   -2.572337    0.505962
      5         11           0        3.241806    0.104984   -0.319431
      6         11           0       -2.923650    1.663844    0.076559
      7         11           0        0.000805   -0.311552   -1.582932
 ---------------------------------------------------------------------

 SCF Done:  E(UB3LYP) =  -1136.13501815     A.U. after   21 cycles

 The electronic state is 2-A.
 Alpha  occ. eigenvalues --  -38.44394 -38.44175 -38.43974 -38.43742 -38.43389
 Alpha  occ. eigenvalues --  -38.43277 -38.43204  -2.20173  -2.20017  -2.19800
 Alpha  occ. eigenvalues --   -2.19607  -2.19341  -2.19101  -2.19057  -1.13852
 Alpha  occ. eigenvalues --   -1.13826  -1.13817  -1.13691  -1.13674  -1.13664
 Alpha  occ. eigenvalues --   -1.13508  -1.13447  -1.13422  -1.13276  -1.13236
 Alpha  occ. eigenvalues --   -1.13222  -1.13034  -1.12983  -1.12971  -1.12777
 Alpha  occ. eigenvalues --   -1.12770  -1.12733  -1.12729  -1.12717  -1.12690
 Alpha  occ. eigenvalues --   -0.18311  -0.13245  -0.12020  -0.10766
 Alpha virt. eigenvalues --   -0.05950  -0.05424  -0.04380  -0.03286  -0.02848
 Alpha virt. eigenvalues --   -0.02525  -0.01794  -0.01257  -0.00470  -0.00379
 Alpha virt. eigenvalues --   -0.00028   0.00321   0.00701   0.00810   0.00882

  Beta  occ. eigenvalues --  -38.44393 -38.44169 -38.43959 -38.43645 -38.43337
  Beta  occ. eigenvalues --  -38.43273 -38.43190  -2.20174  -2.20008  -2.19774
  Beta  occ. eigenvalues --   -2.19429  -2.19247  -2.19097  -2.19036  -1.13842
  Beta  occ. eigenvalues --   -1.13828  -1.13814  -1.13678  -1.13668  -1.13651
  Beta  occ. eigenvalues --   -1.13480  -1.13422  -1.13407  -1.13158  -1.13116
  Beta  occ. eigenvalues --   -1.13088  -1.12966  -1.12920  -1.12900  -1.12771
  Beta  occ. eigenvalues --   -1.12762  -1.12722  -1.12716  -1.12684  -1.12673
  Beta  occ. eigenvalues --   -0.17615  -0.12992  -0.11779
  Beta virt. eigenvalues --   -0.06904  -0.05899  -0.05346  -0.04320  -0.02578
  Beta virt. eigenvalues --   -0.02104  -0.01712  -0.01505  -0.01168  -0.00501
  Beta virt. eigenvalues --   -0.00381   0.00108   0.00364   0.00786   0.00821

 Mulliken charges and spin densities:
               1          2
     1  Na   0.164182   0.018420
     2  Na  -0.037684  -0.054828
     3  Na  -0.338779   0.689868
     4  Na   0.119611   0.082862
     5  Na   0.184126  -0.007643
     6  Na   0.000274  -0.060997
     7  Na  -0.091730   0.332319
 Sum of Mulliken charges =  -0.00000   1.00000

 Dipole moment (field-independent basis, Debye):
    X=             -0.2846    Y=              0.0664    Z=              0.0820  Tot=              0.3035
 Quadrupole moment (field-independent basis, Debye-Ang):
   XX=            -54.0335   YY=            -64.8843   ZZ=            -74.4209
   XY=             -0.9768   XZ=              0.1299   YZ=             -0.9094

 Normal termination of Gaussian 16 at Fri Dec  8 07:54:15 2023.
