 Gaussian 16, Revision B.01,
 Gaussian 16:  ES64L-G16RevB.01 20-Dec-2017

 -------------------------
 #P B3LYP/6-311+g(d) force
 -------------------------

 -----
 DPGEN
 -----
 Symbolic Z-matrix:
 Charge =  0 Multiplicity = 2

                         Standard orientation:
 ---------------------------------------------------------------------
 Center     Atomic      Atomic             Coordinates (Angstroms)
 Number     Number       Type             X           Y           Z
 ---------------------------------------------------------------------
      1         11           0       -0.674229   -1.689196   -0.098486
      2         11           0       -2.591611    1.112468   -0.416666
      3         11           0        0.958576    1.013309    0.958646
      4         11           0        3.157161   -2.375796    0.337006
      5         11           0        3.841554    0.454130   -0.852083
      6         11           0       -0.503204    3.459649    0.120481
      7         11           0       -4.188247   -1.974564   -0.048898
 ---------------------------------------------------------------------

 SCF Done:  E(UB3LYP) =  -1136.12226780     A.U. after   21 cycles

 The electronic state is 2-A.
 Alpha  occ. eigenvalues --  -38.44985 -38.44191 -38.44124 -38.43803 -38.43791
 Alpha  occ. eigenvalues --  -38.43530 -38.43208  -2.20781  -2.20064  -2.20051
 Alpha  occ. eigenvalues --   -2.19667  -2.19659  -2.19342  -2.19085  -1.14471
 Alpha  occ. eigenvalues --   -1.14454  -1.14411  -1.13770  -1.13764  -1.13754
 Alpha  occ. eigenvalues --   -1.13737  -1.13710  -1.13682  -1.13320  -1.13305
 Alpha  occ. eigenvalues --   -1.13296  -1.13295  -1.13294  -1.13283  -1.13001
 Alpha  occ. eigenvalues --   -1.12998  -1.12961  -1.12790  -1.12765  -1.12659
 Alpha  occ. eigenvalues --   -0.17541  -0.14177  -0.12665  -0.09960
 Alpha virt. eigenvalues --   -0.06586  -0.05497  -0.04774  -0.03419  -0.02554
 Alpha virt. eigenvalues --   -0.02455  -0.01795  -0.01574  -0.01071  -0.00601
 Alpha virt. eigenvalues --    0.00043   0.00108   0.00461   0.00522   0.00594

  Beta  occ. eigenvalues --  -38.44982 -38.44182 -38.44101 -38.43794 -38.43731
  Beta  occ. eigenvalues --  -38.43492 -38.43158  -2.20783  -2.20048  -2.20014
  Beta  occ. eigenvalues --   -2.19671  -2.19524  -2.19269  -2.18997  -1.14470
  Beta  occ. eigenvalues --   -1.14451  -1.14383  -1.13756  -1.13741  -1.13729
  Beta  occ. eigenvalues --   -1.13703  -1.13683  -1.13657  -1.13321  -1.13299
  Beta  occ. eigenvalues --   -1.13293  -1.13211  -1.13203  -1.13197  -1.12951
  Beta  occ. eigenvalues --   -1.12943  -1.12918  -1.12728  -1.12705  -1.12583
  Beta  occ. eigenvalues --   -0.16997  -0.13668  -0.12428
  Beta virt. eigenvalues --   -0.06468  -0.06392  -0.05239  -0.04537  -0.02889
  Beta virt. eigenvalues --   -0.02328  -0.02175  -0.01708  -0.01221  -0.00888
  Beta virt. eigenvalues --   -0.00248   0.00279   0.00339   0.00514   0.00666

 Mulliken charges and spin densities:
               1          2
     1  Na  -1.103294  -0.027351
     2  Na  -0.399958   0.121017
     3  Na  -0.980481   0.269930
     4  Na   0.462986   0.084743
     5  Na   0.219608   0.351687
     6  Na   0.800077  -0.108328
     7  Na   1.001061   0.308302
 Sum of Mulliken charges =  -0.00000   1.00000

 Dipole moment (field-independent basis, Debye):
    X=              0.1676    Y=             -0.2938    Z=              0.2512  Tot=              0.4213
 Quadrupole moment (field-independent basis, Debye-Ang):
   XX=            -70.4375   YY=            -58.2553   ZZ=            -70.5281
   XY=             -4.8392   XZ=              1.2038   YZ=             -2.0732

 Normal termination of Gaussian 16 at Tue Nov 28 23:05:52 2023.
