 Gaussian 16, Revision B.01,
 Gaussian 16:  ES64L-G16RevB.01 20-Dec-2017

 -------------------------
 #P B3LYP/6-311+g(d) force
 -------------------------

 -----
 DPGEN
 -----
 Symbolic Z-matrix:
 Charge =  0 Multiplicity = 2

                         Standard orientation:
 ---------------------------------------------------------------------
 Center     Atomic      Atomic             Coordinates (Angstroms)
 Number     Number       Type             X           Y           Z
 ---------------------------------------------------------------------
      1         11           0        0.420780   -2.739537   -0.226896
      2         11           0       -2.720518    2.132702    0.071398
      3         11           0       -2.896622   -1.551583    0.064541
      4         11           0       -0.414436    0.229887   -1.638504
      5         11           0        1.994727    2.539857   -0.240590
      6         11           0        3.395142   -0.748388   -0.049687
      7         11           0        0.220927    0.137061    2.019739
 ---------------------------------------------------------------------

 SCF Done:  E(UB3LYP) =  -1136.13197879     A.U. after   20 cycles

 The electronic state is 2-A.
 Alpha  occ. eigenvalues --  -38.44763 -38.44422 -38.44333 -38.43984 -38.43577
 Alpha  occ. eigenvalues --  -38.43339 -38.42862  -2.20542  -2.20229  -2.20110
 Alpha  occ. eigenvalues --   -2.19771  -2.19428  -2.19251  -2.18713  -1.14217
 Alpha  occ. eigenvalues --   -1.14197  -1.14187  -1.13906  -1.13891  -1.13869
 Alpha  occ. eigenvalues --   -1.13786  -1.13763  -1.13755  -1.13446  -1.13434
 Alpha  occ. eigenvalues --   -1.13410  -1.13104  -1.13055  -1.13041  -1.12944
 Alpha  occ. eigenvalues --   -1.12890  -1.12874  -1.12403  -1.12378  -1.12343
 Alpha  occ. eigenvalues --   -0.18025  -0.13212  -0.11941  -0.10281
 Alpha virt. eigenvalues --   -0.06285  -0.05900  -0.04345  -0.03222  -0.02579
 Alpha virt. eigenvalues --   -0.02352  -0.02003  -0.01523  -0.00877  -0.00382
 Alpha virt. eigenvalues --   -0.00055   0.00294   0.00652   0.00709   0.00828

  Beta  occ. eigenvalues --  -38.44763 -38.44420 -38.44332 -38.43978 -38.43483
  Beta  occ. eigenvalues --  -38.43278 -38.42855  -2.20545  -2.20228  -2.20112
  Beta  occ. eigenvalues --   -2.19764  -2.19254  -2.19142  -2.18704  -1.14203
  Beta  occ. eigenvalues --   -1.14200  -1.14191  -1.13895  -1.13881  -1.13871
  Beta  occ. eigenvalues --   -1.13776  -1.13760  -1.13759  -1.13434  -1.13419
  Beta  occ. eigenvalues --   -1.13409  -1.12987  -1.12932  -1.12916  -1.12866
  Beta  occ. eigenvalues --   -1.12808  -1.12794  -1.12396  -1.12348  -1.12338
  Beta  occ. eigenvalues --   -0.17318  -0.13050  -0.11721
  Beta virt. eigenvalues --   -0.06427  -0.06224  -0.05860  -0.04318  -0.02505
  Beta virt. eigenvalues --   -0.01921  -0.01854  -0.01491  -0.01251  -0.00940
  Beta virt. eigenvalues --   -0.00407   0.00113   0.00331   0.00704   0.00734

 Mulliken charges and spin densities:
               1          2
     1  Na  -0.022727  -0.053000
     2  Na   0.065050  -0.115857
     3  Na   0.145809  -0.001333
     4  Na   0.011562   0.509772
     5  Na   0.049750  -0.114953
     6  Na   0.107234  -0.001954
     7  Na  -0.356679   0.777325
 Sum of Mulliken charges =  -0.00000   1.00000

 Dipole moment (field-independent basis, Debye):
    X=             -0.0769    Y=              0.2083    Z=              0.0899  Tot=              0.2395
 Quadrupole moment (field-independent basis, Debye-Ang):
   XX=            -50.3454   YY=            -64.3907   ZZ=            -77.1104
   XY=             -0.3580   XZ=             -1.3187   YZ=              0.0947

 Normal termination of Gaussian 16 at Thu Dec  7 21:50:21 2023.
