 Gaussian 16, Revision B.01,
 Gaussian 16:  ES64L-G16RevB.01 20-Dec-2017

 -------------------------
 #P B3LYP/6-311+g(d) force
 -------------------------

 -----
 DPGEN
 -----
 Symbolic Z-matrix:
 Charge =  0 Multiplicity = 2

                         Standard orientation:
 ---------------------------------------------------------------------
 Center     Atomic      Atomic             Coordinates (Angstroms)
 Number     Number       Type             X           Y           Z
 ---------------------------------------------------------------------
      1         11           0       -0.094243   -0.198487   -1.912176
      2         11           0        0.089261    2.869813   -0.363083
      3         11           0        2.926943    0.876146    0.163406
      4         11           0        1.735938   -2.357591   -0.458306
      5         11           0       -1.621530   -2.228357    0.453448
      6         11           0       -3.093737    0.767854   -0.248597
      7         11           0        0.057368    0.270621    2.365308
 ---------------------------------------------------------------------

 SCF Done:  E(UB3LYP) =  -1136.13807961     A.U. after   19 cycles

 The electronic state is 2-A.
 Alpha  occ. eigenvalues --  -38.44538 -38.43826 -38.43807 -38.43762 -38.43343
 Alpha  occ. eigenvalues --  -38.43337 -38.43163  -2.20373  -2.19740  -2.19637
 Alpha  occ. eigenvalues --   -2.19586  -2.19209  -2.19165  -2.19025  -1.14023
 Alpha  occ. eigenvalues --   -1.14001  -1.13994  -1.13422  -1.13393  -1.13372
 Alpha  occ. eigenvalues --   -1.13306  -1.13298  -1.13278  -1.13262  -1.13248
 Alpha  occ. eigenvalues --   -1.13230  -1.12890  -1.12875  -1.12853  -1.12842
 Alpha  occ. eigenvalues --   -1.12828  -1.12790  -1.12717  -1.12671  -1.12652
 Alpha  occ. eigenvalues --   -0.18419  -0.12727  -0.12301  -0.11523
 Alpha virt. eigenvalues --   -0.05472  -0.04840  -0.04607  -0.03469  -0.03326
 Alpha virt. eigenvalues --   -0.03143  -0.01324  -0.00904  -0.00230  -0.00149
 Alpha virt. eigenvalues --   -0.00026   0.00394   0.00778   0.00867   0.00914

  Beta  occ. eigenvalues --  -38.44435 -38.43825 -38.43761 -38.43739 -38.43333
  Beta  occ. eigenvalues --  -38.43332 -38.43156  -2.20183  -2.19637  -2.19615
  Beta  occ. eigenvalues --   -2.19585  -2.19193  -2.19157  -2.19015  -1.13898
  Beta  occ. eigenvalues --   -1.13870  -1.13855  -1.13344  -1.13320  -1.13295
  Beta  occ. eigenvalues --   -1.13290  -1.13283  -1.13264  -1.13252  -1.13241
  Beta  occ. eigenvalues --   -1.13226  -1.12879  -1.12844  -1.12840  -1.12831
  Beta  occ. eigenvalues --   -1.12815  -1.12784  -1.12699  -1.12656  -1.12648
  Beta  occ. eigenvalues --   -0.17652  -0.12537  -0.12071
  Beta virt. eigenvalues --   -0.07549  -0.05420  -0.04812  -0.04459  -0.02675
  Beta virt. eigenvalues --   -0.02490  -0.02223  -0.01245  -0.00829  -0.00224
  Beta virt. eigenvalues --   -0.00150   0.00063   0.00419   0.00898   0.00907

 Mulliken charges and spin densities:
               1          2
     1  Na  -0.103417   0.435790
     2  Na   0.068579  -0.058978
     3  Na   0.071609  -0.002694
     4  Na   0.226212  -0.003777
     5  Na   0.094357   0.118352
     6  Na   0.112450  -0.094194
     7  Na  -0.469791   0.605502
 Sum of Mulliken charges =  -0.00000   1.00000

 Dipole moment (field-independent basis, Debye):
    X=             -0.0737    Y=              0.1817    Z=              0.2444  Tot=              0.3133
 Quadrupole moment (field-independent basis, Debye-Ang):
   XX=            -60.1982   YY=            -66.1463   ZZ=            -69.5964
   XY=             -0.4702   XZ=              0.0339   YZ=             -0.8347

 Normal termination of Gaussian 16 at Tue Dec  5 19:03:24 2023.
