 Gaussian 16, Revision B.01,
 Gaussian 16:  ES64L-G16RevB.01 20-Dec-2017

 -------------------------
 #P B3LYP/6-311+g(d) force
 -------------------------

 -----
 DPGEN
 -----
 Symbolic Z-matrix:
 Charge =  0 Multiplicity = 2

                         Standard orientation:
 ---------------------------------------------------------------------
 Center     Atomic      Atomic             Coordinates (Angstroms)
 Number     Number       Type             X           Y           Z
 ---------------------------------------------------------------------
      1         11           0       -2.399818    2.148205   -0.504393
      2         11           0        0.435575   -0.065820   -1.431717
      3         11           0       -2.890502   -1.421036   -0.311124
      4         11           0        0.505932   -2.928498    0.151922
      5         11           0        1.824901    2.945859    0.162622
      6         11           0       -0.637113    0.177034    2.098146
      7         11           0        3.161024   -0.855744   -0.165456
 ---------------------------------------------------------------------

 SCF Done:  E(UB3LYP) =  -1136.13204795     A.U. after   20 cycles

 The electronic state is 2-A.
 Alpha  occ. eigenvalues --  -38.44248 -38.44205 -38.44204 -38.44068 -38.43474
 Alpha  occ. eigenvalues --  -38.43459 -38.43252  -2.20040  -2.20036  -2.19953
 Alpha  occ. eigenvalues --   -2.19874  -2.19325  -2.19311  -2.19205  -1.13754
 Alpha  occ. eigenvalues --   -1.13712  -1.13697  -1.13694  -1.13671  -1.13658
 Alpha  occ. eigenvalues --   -1.13631  -1.13604  -1.13600  -1.13548  -1.13531
 Alpha  occ. eigenvalues --   -1.13514  -1.13026  -1.12992  -1.12974  -1.12953
 Alpha  occ. eigenvalues --   -1.12941  -1.12931  -1.12893  -1.12845  -1.12819
 Alpha  occ. eigenvalues --   -0.18022  -0.13054  -0.12214  -0.10252
 Alpha virt. eigenvalues --   -0.05985  -0.05468  -0.05012  -0.03095  -0.02726
 Alpha virt. eigenvalues --   -0.02252  -0.01640  -0.01486  -0.00847  -0.00648
 Alpha virt. eigenvalues --   -0.00022   0.00315   0.00710   0.00767   0.00787

  Beta  occ. eigenvalues --  -38.44233 -38.44205 -38.44202 -38.44060 -38.43454
  Beta  occ. eigenvalues --  -38.43377 -38.43210  -2.20037  -2.20011  -2.19955
  Beta  occ. eigenvalues --   -2.19864  -2.19305  -2.19144  -2.19130  -1.13746
  Beta  occ. eigenvalues --   -1.13687  -1.13683  -1.13678  -1.13658  -1.13651
  Beta  occ. eigenvalues --   -1.13622  -1.13607  -1.13602  -1.13532  -1.13522
  Beta  occ. eigenvalues --   -1.13499  -1.13015  -1.12959  -1.12927  -1.12873
  Beta  occ. eigenvalues --   -1.12831  -1.12828  -1.12804  -1.12789  -1.12770
  Beta  occ. eigenvalues --   -0.17362  -0.12800  -0.12050
  Beta virt. eigenvalues --   -0.06441  -0.05935  -0.05371  -0.04931  -0.02401
  Beta virt. eigenvalues --   -0.02065  -0.01551  -0.01407  -0.01227  -0.00868
  Beta virt. eigenvalues --   -0.00674   0.00152   0.00375   0.00739   0.00820

 Mulliken charges and spin densities:
               1          2
     1  Na   0.045424   0.024447
     2  Na   0.002872   0.242316
     3  Na   0.151158   0.042087
     4  Na   0.099024  -0.000536
     5  Na  -0.084488  -0.070247
     6  Na  -0.466168   0.779610
     7  Na   0.252178  -0.017677
 Sum of Mulliken charges =  -0.00000   1.00000

 Dipole moment (field-independent basis, Debye):
    X=              0.0677    Y=              0.1264    Z=              0.0442  Tot=              0.1500
 Quadrupole moment (field-independent basis, Debye-Ang):
   XX=            -55.8326   YY=            -59.7237   ZZ=            -76.8333
   XY=              0.2950   XZ=              2.0184   YZ=             -0.3522

 Normal termination of Gaussian 16 at Thu Dec  7 08:37:00 2023.
