 Gaussian 16, Revision B.01,
 Gaussian 16:  ES64L-G16RevB.01 20-Dec-2017

 -------------------------
 #P B3LYP/6-311+g(d) force
 -------------------------

 -----
 DPGEN
 -----
 Symbolic Z-matrix:
 Charge =  0 Multiplicity = 2

                         Standard orientation:
 ---------------------------------------------------------------------
 Center     Atomic      Atomic             Coordinates (Angstroms)
 Number     Number       Type             X           Y           Z
 ---------------------------------------------------------------------
      1         11           0       -0.031378   -0.315054   -1.939251
      2         11           0       -2.953492   -0.822067   -0.625584
      3         11           0        2.192235    2.282507   -0.221838
      4         11           0        0.034191   -2.759546    0.655966
      5         11           0       -0.342746    0.207460    1.937748
      6         11           0        2.887553   -1.019126   -0.093233
      7         11           0       -1.786363    2.425827    0.286192
 ---------------------------------------------------------------------

 SCF Done:  E(UB3LYP) =  -1136.13686386     A.U. after   19 cycles

 The electronic state is 2-A.
 Alpha  occ. eigenvalues --  -38.43966 -38.43903 -38.43749 -38.43737 -38.43655
 Alpha  occ. eigenvalues --  -38.43574 -38.43123  -2.19812  -2.19805  -2.19675
 Alpha  occ. eigenvalues --   -2.19580  -2.19453  -2.19414  -2.18997  -1.13551
 Alpha  occ. eigenvalues --   -1.13475  -1.13451  -1.13447  -1.13430  -1.13406
 Alpha  occ. eigenvalues --   -1.13371  -1.13338  -1.13289  -1.13254  -1.13249
 Alpha  occ. eigenvalues --   -1.13230  -1.13130  -1.13107  -1.13093  -1.13086
 Alpha  occ. eigenvalues --   -1.13061  -1.13032  -1.12688  -1.12645  -1.12621
 Alpha  occ. eigenvalues --   -0.18509  -0.13025  -0.12246  -0.11252
 Alpha virt. eigenvalues --   -0.05400  -0.05264  -0.04485  -0.03402  -0.03115
 Alpha virt. eigenvalues --   -0.02867  -0.01432  -0.01035  -0.00346  -0.00208
 Alpha virt. eigenvalues --   -0.00000   0.00365   0.00810   0.00879   0.00919

  Beta  occ. eigenvalues --  -38.43946 -38.43828 -38.43736 -38.43667 -38.43655
  Beta  occ. eigenvalues --  -38.43567 -38.43103  -2.19778  -2.19669  -2.19581
  Beta  occ. eigenvalues --   -2.19525  -2.19455  -2.19404  -2.18965  -1.13498
  Beta  occ. eigenvalues --   -1.13425  -1.13423  -1.13380  -1.13344  -1.13317
  Beta  occ. eigenvalues --   -1.13274  -1.13253  -1.13244  -1.13234  -1.13219
  Beta  occ. eigenvalues --   -1.13186  -1.13123  -1.13109  -1.13085  -1.13060
  Beta  occ. eigenvalues --   -1.13046  -1.13027  -1.12657  -1.12616  -1.12595
  Beta  occ. eigenvalues --   -0.17777  -0.12770  -0.11990
  Beta virt. eigenvalues --   -0.07335  -0.05319  -0.05228  -0.04420  -0.02657
  Beta virt. eigenvalues --   -0.02366  -0.01862  -0.01303  -0.00961  -0.00360
  Beta virt. eigenvalues --   -0.00211   0.00098   0.00404   0.00876   0.00903

 Mulliken charges and spin densities:
               1          2
     1  Na  -0.176654   0.592338
     2  Na   0.152766   0.052522
     3  Na  -0.115101  -0.090281
     4  Na   0.166271   0.039653
     5  Na  -0.080955   0.559097
     6  Na   0.031274  -0.062404
     7  Na   0.022399  -0.090925
 Sum of Mulliken charges =  -0.00000   1.00000

 Dipole moment (field-independent basis, Debye):
    X=             -0.1271    Y=              0.0308    Z=             -0.1490  Tot=              0.1983
 Quadrupole moment (field-independent basis, Debye-Ang):
   XX=            -58.6974   YY=            -64.4823   ZZ=            -71.9238
   XY=              0.0402   XZ=              0.7374   YZ=             -0.9901

 Normal termination of Gaussian 16 at Wed Dec  6 01:11:35 2023.
