 Gaussian 16, Revision B.01,
 Gaussian 16:  ES64L-G16RevB.01 20-Dec-2017

 -------------------------
 #P B3LYP/6-311+g(d) force
 -------------------------

 -----
 DPGEN
 -----
 Symbolic Z-matrix:
 Charge =  0 Multiplicity = 2

                         Standard orientation:
 ---------------------------------------------------------------------
 Center     Atomic      Atomic             Coordinates (Angstroms)
 Number     Number       Type             X           Y           Z
 ---------------------------------------------------------------------
      1         11           0        2.801675    1.653042   -0.328290
      2         11           0        2.781622   -1.784504    0.144329
      3         11           0       -1.288442    3.013943   -0.163500
      4         11           0       -3.158986   -0.294333   -0.267364
      5         11           0       -0.110376    0.556238    2.068256
      6         11           0        0.128852   -0.219988   -1.548041
      7         11           0       -1.154345   -2.924399    0.094610
 ---------------------------------------------------------------------

 SCF Done:  E(UB3LYP) =  -1136.13478201     A.U. after   20 cycles

 The electronic state is 2-A.
 Alpha  occ. eigenvalues --  -38.44329 -38.44219 -38.44174 -38.43727 -38.43523
 Alpha  occ. eigenvalues --  -38.43426 -38.43278  -2.20129  -2.20013  -2.19999
 Alpha  occ. eigenvalues --   -2.19515  -2.19345  -2.19275  -2.19203  -1.13808
 Alpha  occ. eigenvalues --   -1.13792  -1.13766  -1.13687  -1.13675  -1.13670
 Alpha  occ. eigenvalues --   -1.13668  -1.13648  -1.13630  -1.13189  -1.13174
 Alpha  occ. eigenvalues --   -1.13163  -1.13028  -1.13006  -1.12987  -1.12945
 Alpha  occ. eigenvalues --   -1.12903  -1.12894  -1.12889  -1.12836  -1.12828
 Alpha  occ. eigenvalues --   -0.18002  -0.13079  -0.12215  -0.10251
 Alpha virt. eigenvalues --   -0.05812  -0.05613  -0.04963  -0.03091  -0.02795
 Alpha virt. eigenvalues --   -0.02266  -0.01690  -0.01397  -0.00798  -0.00700
 Alpha virt. eigenvalues --   -0.00017   0.00333   0.00724   0.00768   0.00814

  Beta  occ. eigenvalues --  -38.44320 -38.44218 -38.44168 -38.43726 -38.43521
  Beta  occ. eigenvalues --  -38.43331 -38.43226  -2.20116  -2.20012  -2.19988
  Beta  occ. eigenvalues --   -2.19515  -2.19343  -2.19110  -2.19099  -1.13792
  Beta  occ. eigenvalues --   -1.13776  -1.13759  -1.13679  -1.13665  -1.13664
  Beta  occ. eigenvalues --   -1.13647  -1.13646  -1.13626  -1.13177  -1.13167
  Beta  occ. eigenvalues --   -1.13166  -1.13023  -1.13000  -1.12978  -1.12843
  Beta  occ. eigenvalues --   -1.12809  -1.12780  -1.12770  -1.12763  -1.12758
  Beta  occ. eigenvalues --   -0.17319  -0.12874  -0.12023
  Beta virt. eigenvalues --   -0.06420  -0.05788  -0.05548  -0.04882  -0.02377
  Beta virt. eigenvalues --   -0.02076  -0.01583  -0.01336  -0.01259  -0.00828
  Beta virt. eigenvalues --   -0.00732   0.00148   0.00380   0.00762   0.00811

 Mulliken charges and spin densities:
               1          2
     1  Na   0.146334  -0.068089
     2  Na   0.054283   0.002205
     3  Na   0.083887  -0.111012
     4  Na   0.200155  -0.009460
     5  Na  -0.467089   0.796684
     6  Na  -0.030686   0.404309
     7  Na   0.013116  -0.014637
 Sum of Mulliken charges =  -0.00000   1.00000

 Dipole moment (field-independent basis, Debye):
    X=              0.2509    Y=              0.0618    Z=             -0.0106  Tot=              0.2586
 Quadrupole moment (field-independent basis, Debye-Ang):
   XX=            -55.3723   YY=            -60.1841   ZZ=            -76.9899
   XY=             -0.3848   XZ=              0.6889   YZ=             -2.0993

 Normal termination of Gaussian 16 at Thu Dec  7 17:49:26 2023.
