 Gaussian 16, Revision B.01,
 Gaussian 16:  ES64L-G16RevB.01 20-Dec-2017

 -------------------------
 #P B3LYP/6-311+g(d) force
 -------------------------

 -----
 DPGEN
 -----
 Symbolic Z-matrix:
 Charge =  0 Multiplicity = 2

                         Standard orientation:
 ---------------------------------------------------------------------
 Center     Atomic      Atomic             Coordinates (Angstroms)
 Number     Number       Type             X           Y           Z
 ---------------------------------------------------------------------
      1         11           0        0.325833   -1.775267    1.698347
      2         11           0       -1.397821   -1.633365   -1.493963
      3         11           0       -1.047294    1.259676    0.487653
      4         11           0       -4.450155   -0.603940    0.117522
      5         11           0        1.937392    0.508744   -1.147244
      6         11           0        0.505263    3.677972    0.215063
      7         11           0        4.126782   -1.433821    0.122622
 ---------------------------------------------------------------------

 SCF Done:  E(UB3LYP) =  -1136.11461519     A.U. after   24 cycles

 The electronic state is 2-A.
 Alpha  occ. eigenvalues --  -38.45458 -38.44706 -38.44084 -38.44032 -38.43773
 Alpha  occ. eigenvalues --  -38.43206 -38.43138  -2.21245  -2.20483  -2.19919
 Alpha  occ. eigenvalues --   -2.19830  -2.19635  -2.19097  -2.19048  -1.14949
 Alpha  occ. eigenvalues --   -1.14905  -1.14863  -1.14144  -1.14139  -1.14088
 Alpha  occ. eigenvalues --   -1.13582  -1.13554  -1.13523  -1.13518  -1.13483
 Alpha  occ. eigenvalues --   -1.13456  -1.13337  -1.13306  -1.13224  -1.12936
 Alpha  occ. eigenvalues --   -1.12790  -1.12762  -1.12685  -1.12675  -1.12568
 Alpha  occ. eigenvalues --   -0.17612  -0.13334  -0.12190  -0.10363
 Alpha virt. eigenvalues --   -0.07477  -0.05038  -0.04507  -0.03171  -0.03057
 Alpha virt. eigenvalues --   -0.02572  -0.02008  -0.01403  -0.00811  -0.00484
 Alpha virt. eigenvalues --   -0.00247  -0.00171   0.00157   0.00503   0.00626

  Beta  occ. eigenvalues --  -38.45468 -38.44652 -38.43995 -38.43989 -38.43752
  Beta  occ. eigenvalues --  -38.43211 -38.43126  -2.21267  -2.20383  -2.19763
  Beta  occ. eigenvalues --   -2.19742  -2.19598  -2.19084  -2.19053  -1.14968
  Beta  occ. eigenvalues --   -1.14907  -1.14871  -1.14074  -1.14066  -1.14024
  Beta  occ. eigenvalues --   -1.13474  -1.13457  -1.13437  -1.13435  -1.13412
  Beta  occ. eigenvalues --   -1.13398  -1.13311  -1.13272  -1.13192  -1.12937
  Beta  occ. eigenvalues --   -1.12782  -1.12732  -1.12685  -1.12680  -1.12568
  Beta  occ. eigenvalues --   -0.17152  -0.12691  -0.12038
  Beta virt. eigenvalues --   -0.07230  -0.06818  -0.04930  -0.04152  -0.02869
  Beta virt. eigenvalues --   -0.02602  -0.02305  -0.01592  -0.01252  -0.00634
  Beta virt. eigenvalues --   -0.00161  -0.00102   0.00053   0.00294   0.00557

 Mulliken charges and spin densities:
               1          2
     1  Na   0.069434   0.180660
     2  Na   0.249591   0.038434
     3  Na  -1.559711   0.170467
     4  Na   0.292282   0.279176
     5  Na  -0.055634   0.265973
     6  Na   0.991033  -0.089415
     7  Na   0.013005   0.154706
 Sum of Mulliken charges =  -0.00000   1.00000

 Dipole moment (field-independent basis, Debye):
    X=             -0.5119    Y=             -0.8159    Z=              0.4314  Tot=              1.0554
 Quadrupole moment (field-independent basis, Debye-Ang):
   XX=            -65.4737   YY=            -67.4111   ZZ=            -66.3949
   XY=             -0.2485   XZ=             -0.3790   YZ=              1.0916

 Normal termination of Gaussian 16 at Mon Dec  4 03:11:06 2023.
