 Gaussian 16, Revision B.01,
 Gaussian 16:  ES64L-G16RevB.01 20-Dec-2017

 -------------------------
 #P B3LYP/6-311+g(d) force
 -------------------------

 -----
 DPGEN
 -----
 Symbolic Z-matrix:
 Charge =  0 Multiplicity = 2

                         Standard orientation:
 ---------------------------------------------------------------------
 Center     Atomic      Atomic             Coordinates (Angstroms)
 Number     Number       Type             X           Y           Z
 ---------------------------------------------------------------------
      1         11           0       -2.626946    1.977685    0.428473
      2         11           0       -0.129272    0.146995    1.651495
      3         11           0       -2.915540   -1.862003   -0.453593
      4         11           0        1.388355   -2.758345    0.309750
      5         11           0       -0.149550   -0.299381   -1.430097
      6         11           0        3.116238   -0.061109    0.021662
      7         11           0        1.316716    2.856158   -0.527689
 ---------------------------------------------------------------------

 SCF Done:  E(UB3LYP) =  -1136.13247272     A.U. after   21 cycles

 The electronic state is 2-A.
 Alpha  occ. eigenvalues --  -38.44279 -38.44194 -38.43954 -38.43527 -38.43369
 Alpha  occ. eigenvalues --  -38.43325 -38.43187  -2.20079  -2.19987  -2.19824
 Alpha  occ. eigenvalues --   -2.19388  -2.19315  -2.19165  -2.19143  -1.13763
 Alpha  occ. eigenvalues --   -1.13730  -1.13706  -1.13666  -1.13634  -1.13618
 Alpha  occ. eigenvalues --   -1.13503  -1.13495  -1.13470  -1.13098  -1.13059
 Alpha  occ. eigenvalues --   -1.13046  -1.13022  -1.12930  -1.12916  -1.12856
 Alpha  occ. eigenvalues --   -1.12822  -1.12805  -1.12786  -1.12777  -1.12758
 Alpha  occ. eigenvalues --   -0.18429  -0.13233  -0.12311  -0.10166
 Alpha virt. eigenvalues --   -0.05750  -0.05732  -0.04716  -0.03040  -0.02619
 Alpha virt. eigenvalues --   -0.01919  -0.01779  -0.01574  -0.00634  -0.00523
 Alpha virt. eigenvalues --    0.00001   0.00279   0.00718   0.00729   0.00856

  Beta  occ. eigenvalues --  -38.44260 -38.44173 -38.43950 -38.43519 -38.43310
  Beta  occ. eigenvalues --  -38.43303 -38.43139  -2.20046  -2.19949  -2.19819
  Beta  occ. eigenvalues --   -2.19375  -2.19194  -2.19118  -2.19076  -1.13726
  Beta  occ. eigenvalues --   -1.13705  -1.13686  -1.13628  -1.13610  -1.13592
  Beta  occ. eigenvalues --   -1.13505  -1.13488  -1.13443  -1.13063  -1.13035
  Beta  occ. eigenvalues --   -1.13002  -1.12998  -1.12855  -1.12822  -1.12795
  Beta  occ. eigenvalues --   -1.12789  -1.12779  -1.12752  -1.12731  -1.12691
  Beta  occ. eigenvalues --   -0.17832  -0.12904  -0.11970
  Beta virt. eigenvalues --   -0.06563  -0.05655  -0.05526  -0.04679  -0.02368
  Beta virt. eigenvalues --   -0.02041  -0.01681  -0.01413  -0.00984  -0.00629
  Beta virt. eigenvalues --   -0.00537   0.00141   0.00351   0.00762   0.00785

 Mulliken charges and spin densities:
               1          2
     1  Na   0.001391   0.043391
     2  Na  -0.037057   0.378762
     3  Na   0.004611   0.020506
     4  Na   0.166810   0.030981
     5  Na  -0.276078   0.406361
     6  Na   0.169255   0.035982
     7  Na  -0.028932   0.084016
 Sum of Mulliken charges =  -0.00000   1.00000

 Dipole moment (field-independent basis, Debye):
    X=             -0.3331    Y=             -0.0817    Z=              0.1377  Tot=              0.3696
 Quadrupole moment (field-independent basis, Debye-Ang):
   XX=            -54.3102   YY=            -60.7246   ZZ=            -76.5360
   XY=             -0.9875   XZ=              0.0904   YZ=             -1.1842

 Normal termination of Gaussian 16 at Sat Dec  9 05:24:24 2023.
