 Gaussian 16, Revision B.01,
 Gaussian 16:  ES64L-G16RevB.01 20-Dec-2017

 -------------------------
 #P B3LYP/6-311+g(d) force
 -------------------------

 -----
 DPGEN
 -----
 Symbolic Z-matrix:
 Charge =  0 Multiplicity = 2

                         Standard orientation:
 ---------------------------------------------------------------------
 Center     Atomic      Atomic             Coordinates (Angstroms)
 Number     Number       Type             X           Y           Z
 ---------------------------------------------------------------------
      1         11           0        0.896202   -2.202547    0.021430
      2         11           0       -2.097635    1.720764   -0.190087
      3         11           0       -2.943260   -1.219857   -0.136996
      4         11           0       -0.413268   -0.224281    1.960852
      5         11           0        1.393329    2.174919    0.339004
      6         11           0       -0.121812    0.091438   -1.781175
      7         11           0        3.286444   -0.340436   -0.213029
 ---------------------------------------------------------------------

 SCF Done:  E(UB3LYP) =  -1136.12622915     A.U. after   21 cycles

 The electronic state is 2-A.
 Alpha  occ. eigenvalues --  -38.44702 -38.44307 -38.43751 -38.43702 -38.43426
 Alpha  occ. eigenvalues --  -38.42862 -38.42744  -2.20573  -2.20183  -2.19771
 Alpha  occ. eigenvalues --   -2.19680  -2.19388  -2.18824  -2.18651  -1.14259
 Alpha  occ. eigenvalues --   -1.14231  -1.14216  -1.13893  -1.13842  -1.13811
 Alpha  occ. eigenvalues --   -1.13487  -1.13462  -1.13373  -1.13366  -1.13321
 Alpha  occ. eigenvalues --   -1.13282  -1.13059  -1.13034  -1.13000  -1.12519
 Alpha  occ. eigenvalues --   -1.12494  -1.12431  -1.12334  -1.12314  -1.12286
 Alpha  occ. eigenvalues --   -0.19551  -0.13947  -0.11825  -0.11295
 Alpha virt. eigenvalues --   -0.06332  -0.04911  -0.03761  -0.03498  -0.02814
 Alpha virt. eigenvalues --   -0.02602  -0.02042  -0.00873  -0.00118   0.00060
 Alpha virt. eigenvalues --    0.00218   0.00338   0.00777   0.00856   0.00956

  Beta  occ. eigenvalues --  -38.44702 -38.44302 -38.43677 -38.43607 -38.43414
  Beta  occ. eigenvalues --  -38.42851 -38.42735  -2.20576  -2.20177  -2.19636
  Beta  occ. eigenvalues --   -2.19507  -2.19372  -2.18809  -2.18638  -1.14265
  Beta  occ. eigenvalues --   -1.14234  -1.14202  -1.13893  -1.13814  -1.13803
  Beta  occ. eigenvalues --   -1.13402  -1.13365  -1.13268  -1.13259  -1.13203
  Beta  occ. eigenvalues --   -1.13155  -1.13039  -1.13004  -1.12974  -1.12512
  Beta  occ. eigenvalues --   -1.12440  -1.12426  -1.12328  -1.12283  -1.12275
  Beta  occ. eigenvalues --   -0.18776  -0.13689  -0.11545
  Beta virt. eigenvalues --   -0.07295  -0.06265  -0.04921  -0.03549  -0.02877
  Beta virt. eigenvalues --   -0.01964  -0.01880  -0.01617  -0.00832  -0.00017
  Beta virt. eigenvalues --    0.00094   0.00180   0.00353   0.00856   0.00942

 Mulliken charges and spin densities:
               1          2
     1  Na   0.699302  -0.047165
     2  Na   0.410562   0.063342
     3  Na   0.358350  -0.076022
     4  Na  -0.796381   0.617262
     5  Na   0.359417   0.003689
     6  Na  -0.835219   0.503710
     7  Na  -0.196030  -0.064815
 Sum of Mulliken charges =  -0.00000   1.00000

 Dipole moment (field-independent basis, Debye):
    X=             -0.0354    Y=             -0.1440    Z=              0.0105  Tot=              0.1487
 Quadrupole moment (field-independent basis, Debye-Ang):
   XX=            -50.4325   YY=            -72.0195   ZZ=            -71.6201
   XY=              1.0690   XZ=              0.0583   YZ=              0.8360

 Normal termination of Gaussian 16 at Fri Dec  8 03:23:51 2023.
