 Gaussian 16, Revision B.01,
 Gaussian 16:  ES64L-G16RevB.01 20-Dec-2017

 -------------------------
 #P B3LYP/6-311+g(d) force
 -------------------------

 -----
 DPGEN
 -----
 Symbolic Z-matrix:
 Charge =  0 Multiplicity = 2

                         Standard orientation:
 ---------------------------------------------------------------------
 Center     Atomic      Atomic             Coordinates (Angstroms)
 Number     Number       Type             X           Y           Z
 ---------------------------------------------------------------------
      1         11           0        3.266386   -0.141610   -0.184403
      2         11           0        1.029759   -2.346484    0.232916
      3         11           0       -2.353210   -2.013451   -0.270445
      4         11           0       -0.115330    0.064952    1.914840
      5         11           0        0.688976    2.741599    0.013106
      6         11           0       -0.071843    0.169921   -1.783846
      7         11           0       -2.444738    1.525073    0.077832
 ---------------------------------------------------------------------

 SCF Done:  E(UB3LYP) =  -1136.13809059     A.U. after   18 cycles

 The electronic state is 2-A.
 Alpha  occ. eigenvalues --  -38.44001 -38.43681 -38.43481 -38.43444 -38.43340
 Alpha  occ. eigenvalues --  -38.43298 -38.43109  -2.19827  -2.19578  -2.19445
 Alpha  occ. eigenvalues --   -2.19319  -2.19290  -2.19181  -2.19042  -1.13515
 Alpha  occ. eigenvalues --   -1.13487  -1.13463  -1.13286  -1.13262  -1.13203
 Alpha  occ. eigenvalues --   -1.13135  -1.13088  -1.13052  -1.13011  -1.12996
 Alpha  occ. eigenvalues --   -1.12955  -1.12945  -1.12941  -1.12920  -1.12846
 Alpha  occ. eigenvalues --   -1.12836  -1.12795  -1.12727  -1.12700  -1.12652
 Alpha  occ. eigenvalues --   -0.19092  -0.13046  -0.12576  -0.10965
 Alpha virt. eigenvalues --   -0.05548  -0.05000  -0.04494  -0.03208  -0.02963
 Alpha virt. eigenvalues --   -0.02628  -0.01518  -0.01071  -0.00154  -0.00064
 Alpha virt. eigenvalues --    0.00050   0.00357   0.00826   0.00904   0.00960

  Beta  occ. eigenvalues --  -38.44001 -38.43673 -38.43440 -38.43391 -38.43291
  Beta  occ. eigenvalues --  -38.43265 -38.43099  -2.19829  -2.19568  -2.19286
  Beta  occ. eigenvalues --   -2.19278  -2.19182  -2.19173  -2.19027  -1.13519
  Beta  occ. eigenvalues --   -1.13471  -1.13466  -1.13276  -1.13221  -1.13199
  Beta  occ. eigenvalues --   -1.13029  -1.12979  -1.12962  -1.12944  -1.12939
  Beta  occ. eigenvalues --   -1.12933  -1.12919  -1.12883  -1.12837  -1.12819
  Beta  occ. eigenvalues --   -1.12799  -1.12782  -1.12711  -1.12657  -1.12648
  Beta  occ. eigenvalues --   -0.18333  -0.12800  -0.12311
  Beta virt. eigenvalues --   -0.07014  -0.05511  -0.04994  -0.04480  -0.02391
  Beta virt. eigenvalues --   -0.02165  -0.01561  -0.01429  -0.01012  -0.00213
  Beta virt. eigenvalues --   -0.00040   0.00119   0.00371   0.00868   0.00902

 Mulliken charges and spin densities:
               1          2
     1  Na  -0.034216  -0.107966
     2  Na   0.296207  -0.000192
     3  Na   0.073990  -0.067319
     4  Na  -0.333879   0.629903
     5  Na   0.145904  -0.125679
     6  Na  -0.468085   0.732120
     7  Na   0.320077  -0.060866
 Sum of Mulliken charges =  -0.00000   1.00000

 Dipole moment (field-independent basis, Debye):
    X=              0.0337    Y=              0.1922    Z=             -0.0130  Tot=              0.1956
 Quadrupole moment (field-independent basis, Debye-Ang):
   XX=            -56.1328   YY=            -64.1806   ZZ=            -73.2898
   XY=              1.0546   XZ=             -0.0890   YZ=              0.3844

 Normal termination of Gaussian 16 at Thu Dec  7 01:59:41 2023.
