 Gaussian 16, Revision B.01,
 Gaussian 16:  ES64L-G16RevB.01 20-Dec-2017

 -------------------------
 #P B3LYP/6-311+g(d) force
 -------------------------

 -----
 DPGEN
 -----
 Symbolic Z-matrix:
 Charge =  0 Multiplicity = 2

                         Standard orientation:
 ---------------------------------------------------------------------
 Center     Atomic      Atomic             Coordinates (Angstroms)
 Number     Number       Type             X           Y           Z
 ---------------------------------------------------------------------
      1         11           0        2.482064   -2.043383    0.998683
      2         11           0        5.525799   -0.393686   -0.745125
      3         11           0        3.412057    1.519935    0.223353
      4         11           0        0.134276    2.442646    0.024463
      5         11           0       -0.290655   -1.448371   -0.694333
      6         11           0       -4.146794    0.256969    0.688447
      7         11           0       -7.116746   -0.334109   -0.495490
 ---------------------------------------------------------------------

 SCF Done:  E(UB3LYP) =  -1136.10933230     A.U. after   21 cycles

 The electronic state is 2-A.
 Alpha  occ. eigenvalues --  -38.45657 -38.44816 -38.44668 -38.44416 -38.43916
 Alpha  occ. eigenvalues --  -38.43698 -38.43576  -2.21471  -2.20615  -2.20452
 Alpha  occ. eigenvalues --   -2.20298  -2.19743  -2.19468  -2.19338  -1.15148
 Alpha  occ. eigenvalues --   -1.15128  -1.15064  -1.14280  -1.14271  -1.14214
 Alpha  occ. eigenvalues --   -1.14126  -1.14116  -1.14073  -1.13996  -1.13950
 Alpha  occ. eigenvalues --   -1.13939  -1.13417  -1.13391  -1.13363  -1.13147
 Alpha  occ. eigenvalues --   -1.13146  -1.13111  -1.13004  -1.13004  -1.12957
 Alpha  occ. eigenvalues --   -0.16844  -0.13183  -0.12488  -0.11630
 Alpha virt. eigenvalues --   -0.06561  -0.05525  -0.04742  -0.03657  -0.03079
 Alpha virt. eigenvalues --   -0.02578  -0.02027  -0.01784  -0.01208  -0.00996
 Alpha virt. eigenvalues --   -0.00458  -0.00230   0.00094   0.00178   0.00459

  Beta  occ. eigenvalues --  -38.45582 -38.44739 -38.44639 -38.44371 -38.43909
  Beta  occ. eigenvalues --  -38.43693 -38.43588  -2.21336  -2.20473  -2.20402
  Beta  occ. eigenvalues --   -2.20217  -2.19731  -2.19458  -2.19362  -1.15051
  Beta  occ. eigenvalues --   -1.15042  -1.14958  -1.14176  -1.14172  -1.14121
  Beta  occ. eigenvalues --   -1.14090  -1.14075  -1.14033  -1.13939  -1.13893
  Beta  occ. eigenvalues --   -1.13871  -1.13401  -1.13381  -1.13354  -1.13140
  Beta  occ. eigenvalues --   -1.13138  -1.13114  -1.13020  -1.13020  -1.12969
  Beta  occ. eigenvalues --   -0.15957  -0.13192  -0.11436
  Beta virt. eigenvalues --   -0.08320  -0.06311  -0.05206  -0.04321  -0.03103
  Beta virt. eigenvalues --   -0.02771  -0.02470  -0.01811  -0.01320  -0.01080
  Beta virt. eigenvalues --   -0.00840  -0.00245  -0.00074   0.00276   0.00331

 Mulliken charges and spin densities:
               1          2
     1  Na   0.109194   0.314320
     2  Na   0.597135   0.009897
     3  Na  -0.426301   0.211383
     4  Na   0.061453   0.370225
     5  Na  -0.131502   0.203423
     6  Na  -0.547493  -0.054394
     7  Na   0.337514  -0.054853
 Sum of Mulliken charges =  -0.00000   1.00000

 Dipole moment (field-independent basis, Debye):
    X=              1.8934    Y=             -0.5687    Z=             -0.1764  Tot=              1.9848
 Quadrupole moment (field-independent basis, Debye-Ang):
   XX=            -69.8969   YY=            -66.5588   ZZ=            -68.4896
   XY=             -2.8911   XZ=              2.8220   YZ=              0.8017

 Normal termination of Gaussian 16 at Wed Nov 29 00:56:47 2023.
