 Gaussian 16, Revision B.01,
 Gaussian 16:  ES64L-G16RevB.01 20-Dec-2017

 -------------------------
 #P B3LYP/6-311+g(d) force
 -------------------------

 -----
 DPGEN
 -----
 Symbolic Z-matrix:
 Charge =  0 Multiplicity = 2

                         Standard orientation:
 ---------------------------------------------------------------------
 Center     Atomic      Atomic             Coordinates (Angstroms)
 Number     Number       Type             X           Y           Z
 ---------------------------------------------------------------------
      1         11           0       -4.506350   -2.562428   -0.399859
      2         11           0        1.924604   -0.241736    0.863653
      3         11           0        7.292486    1.039592   -0.006270
      4         11           0        5.185362   -1.123483   -0.493698
      5         11           0       -1.602687   -1.046934    0.047626
      6         11           0       -3.386035    3.151877   -0.550983
      7         11           0       -4.907380    0.783113    0.539532
 ---------------------------------------------------------------------

 SCF Done:  E(UB3LYP) =  -1136.10634429     A.U. after   21 cycles

 The electronic state is 2-A.
 Alpha  occ. eigenvalues --  -38.44900 -38.44858 -38.44460 -38.44349 -38.44090
 Alpha  occ. eigenvalues --  -38.43760 -38.43673  -2.20702  -2.20693  -2.20267
 Alpha  occ. eigenvalues --   -2.20133  -2.19871  -2.19611  -2.19497  -1.14387
 Alpha  occ. eigenvalues --   -1.14344  -1.14340  -1.14334  -1.14326  -1.14320
 Alpha  occ. eigenvalues --   -1.13931  -1.13923  -1.13916  -1.13793  -1.13788
 Alpha  occ. eigenvalues --   -1.13739  -1.13576  -1.13559  -1.13501  -1.13378
 Alpha  occ. eigenvalues --   -1.13286  -1.13250  -1.13132  -1.13129  -1.13091
 Alpha  occ. eigenvalues --   -0.16004  -0.14524  -0.11799  -0.11674
 Alpha virt. eigenvalues --   -0.06576  -0.05095  -0.04702  -0.03457  -0.03001
 Alpha virt. eigenvalues --   -0.02862  -0.02403  -0.01528  -0.01292  -0.01027
 Alpha virt. eigenvalues --   -0.00607  -0.00270  -0.00071   0.00415   0.00511

  Beta  occ. eigenvalues --  -38.44858 -38.44776 -38.44466 -38.44281 -38.44104
  Beta  occ. eigenvalues --  -38.43765 -38.43626  -2.20624  -2.20539  -2.20282
  Beta  occ. eigenvalues --   -2.20006  -2.19903  -2.19626  -2.19411  -1.14337
  Beta  occ. eigenvalues --   -1.14291  -1.14286  -1.14234  -1.14223  -1.14216
  Beta  occ. eigenvalues --   -1.13944  -1.13936  -1.13898  -1.13706  -1.13703
  Beta  occ. eigenvalues --   -1.13656  -1.13603  -1.13574  -1.13492  -1.13352
  Beta  occ. eigenvalues --   -1.13301  -1.13255  -1.13074  -1.13071  -1.13043
  Beta  occ. eigenvalues --   -0.15412  -0.14052  -0.10984
  Beta virt. eigenvalues --   -0.08602  -0.06210  -0.04791  -0.04289  -0.03251
  Beta virt. eigenvalues --   -0.02833  -0.02681  -0.01990  -0.01152  -0.01032
  Beta virt. eigenvalues --   -0.00789  -0.00388  -0.00139   0.00182   0.00474

 Mulliken charges and spin densities:
               1          2
     1  Na   1.297765   0.450106
     2  Na  -0.094115   0.135576
     3  Na   0.057493   0.164960
     4  Na   0.084929  -0.000716
     5  Na  -1.358734   0.051342
     6  Na   0.048718   0.221711
     7  Na  -0.036055  -0.022978
 Sum of Mulliken charges =  -0.00000   1.00000

 Dipole moment (field-independent basis, Debye):
    X=              0.8343    Y=             -0.1793    Z=             -0.2226  Tot=              0.8818
 Quadrupole moment (field-independent basis, Debye-Ang):
   XX=            -53.2658   YY=            -66.4129   ZZ=            -72.0817
   XY=             14.3138   XZ=              0.8989   YZ=              1.7526

 Normal termination of Gaussian 16 at Mon Dec  4 01:29:32 2023.
