 Gaussian 16, Revision B.01,
 Gaussian 16:  ES64L-G16RevB.01 20-Dec-2017

 -------------------------
 #P B3LYP/6-311+g(d) force
 -------------------------

 -----
 DPGEN
 -----
 Symbolic Z-matrix:
 Charge =  0 Multiplicity = 2

                         Standard orientation:
 ---------------------------------------------------------------------
 Center     Atomic      Atomic             Coordinates (Angstroms)
 Number     Number       Type             X           Y           Z
 ---------------------------------------------------------------------
      1         11           0        2.770263    1.152651   -0.260727
      2         11           0        0.092276    0.074261    2.106973
      3         11           0       -2.086233   -1.977891    0.405248
      4         11           0       -2.766492    0.747851   -0.721769
      5         11           0       -0.119264    2.810610    0.240304
      6         11           0        0.191697   -0.267573   -1.622007
      7         11           0        1.917753   -2.539909   -0.148024
 ---------------------------------------------------------------------

 SCF Done:  E(UB3LYP) =  -1136.13598678     A.U. after   20 cycles

 The electronic state is 2-A.
 Alpha  occ. eigenvalues --  -38.43960 -38.43844 -38.43690 -38.43646 -38.43529
 Alpha  occ. eigenvalues --  -38.43209 -38.43086  -2.19814  -2.19745  -2.19572
 Alpha  occ. eigenvalues --   -2.19461  -2.19434  -2.19214  -2.18965  -1.13520
 Alpha  occ. eigenvalues --   -1.13477  -1.13434  -1.13413  -1.13379  -1.13365
 Alpha  occ. eigenvalues --   -1.13327  -1.13229  -1.13208  -1.13171  -1.13120
 Alpha  occ. eigenvalues --   -1.13115  -1.13091  -1.13058  -1.13041  -1.12885
 Alpha  occ. eigenvalues --   -1.12845  -1.12833  -1.12647  -1.12622  -1.12601
 Alpha  occ. eigenvalues --   -0.18879  -0.13105  -0.12373  -0.11171
 Alpha virt. eigenvalues --   -0.05476  -0.05018  -0.04474  -0.03378  -0.03015
 Alpha virt. eigenvalues --   -0.02833  -0.01342  -0.01129  -0.00237  -0.00052
 Alpha virt. eigenvalues --    0.00064   0.00371   0.00863   0.00874   0.00945

  Beta  occ. eigenvalues --  -38.43955 -38.43745 -38.43681 -38.43646 -38.43511
  Beta  occ. eigenvalues --  -38.43150 -38.43079  -2.19807  -2.19563  -2.19558
  Beta  occ. eigenvalues --   -2.19463  -2.19404  -2.19106  -2.18957  -1.13508
  Beta  occ. eigenvalues --   -1.13459  -1.13431  -1.13326  -1.13290  -1.13250
  Beta  occ. eigenvalues --   -1.13240  -1.13199  -1.13183  -1.13161  -1.13113
  Beta  occ. eigenvalues --   -1.13090  -1.13085  -1.13031  -1.13023  -1.12813
  Beta  occ. eigenvalues --   -1.12769  -1.12754  -1.12637  -1.12605  -1.12588
  Beta  occ. eigenvalues --   -0.18134  -0.12851  -0.12135
  Beta virt. eigenvalues --   -0.07210  -0.05466  -0.04946  -0.04432  -0.02597
  Beta virt. eigenvalues --   -0.02251  -0.01764  -0.01254  -0.01063  -0.00194
  Beta virt. eigenvalues --   -0.00072   0.00136   0.00397   0.00868   0.00930

 Mulliken charges and spin densities:
               1          2
     1  Na   0.076141  -0.070260
     2  Na  -0.368870   0.625746
     3  Na   0.102152   0.074442
     4  Na   0.171950   0.042898
     5  Na   0.149737   0.069459
     6  Na  -0.091354   0.328814
     7  Na  -0.039756  -0.071100
 Sum of Mulliken charges =  -0.00000   1.00000

 Dipole moment (field-independent basis, Debye):
    X=              0.3060    Y=             -0.1325    Z=              0.1934  Tot=              0.3854
 Quadrupole moment (field-independent basis, Debye-Ang):
   XX=            -59.1129   YY=            -63.0192   ZZ=            -72.3054
   XY=             -0.0277   XZ=              0.4056   YZ=             -1.3614

 Normal termination of Gaussian 16 at Fri Dec  8 01:57:36 2023.
