 Gaussian 16, Revision B.01,
 Gaussian 16:  ES64L-G16RevB.01 20-Dec-2017

 -------------------------
 #P B3LYP/6-311+g(d) force
 -------------------------

 -----
 DPGEN
 -----
 Symbolic Z-matrix:
 Charge =  0 Multiplicity = 2

                         Standard orientation:
 ---------------------------------------------------------------------
 Center     Atomic      Atomic             Coordinates (Angstroms)
 Number     Number       Type             X           Y           Z
 ---------------------------------------------------------------------
      1         11           0        0.147883    2.158508   -0.857861
      2         11           0       -2.981069    1.378410   -0.048500
      3         11           0        2.891671   -0.787368   -0.340797
      4         11           0        5.734498   -0.224861    0.408695
      5         11           0       -4.723220   -1.297281    0.520419
      6         11           0       -0.905253   -1.386365   -1.531521
      7         11           0       -0.164509    0.158957    1.849565
 ---------------------------------------------------------------------

 SCF Done:  E(UB3LYP) =  -1136.10996389     A.U. after   29 cycles

 The electronic state is 2-A.
 Alpha  occ. eigenvalues --  -38.47168 -38.44680 -38.44411 -38.43967 -38.43536
 Alpha  occ. eigenvalues --  -38.43177 -38.43126  -2.22965  -2.20513  -2.20254
 Alpha  occ. eigenvalues --   -2.19864  -2.19361  -2.18973  -2.18962  -1.16633
 Alpha  occ. eigenvalues --   -1.16601  -1.16593  -1.14188  -1.14150  -1.14099
 Alpha  occ. eigenvalues --   -1.13945  -1.13919  -1.13895  -1.13554  -1.13530
 Alpha  occ. eigenvalues --   -1.13472  -1.13075  -1.12993  -1.12991  -1.12661
 Alpha  occ. eigenvalues --   -1.12639  -1.12637  -1.12627  -1.12604  -1.12594
 Alpha  occ. eigenvalues --   -0.18062  -0.13620  -0.11463  -0.11076
 Alpha virt. eigenvalues --   -0.07887  -0.05363  -0.04277  -0.03235  -0.03132
 Alpha virt. eigenvalues --   -0.02473  -0.02045  -0.01795  -0.01552  -0.00992
 Alpha virt. eigenvalues --   -0.00458   0.00129   0.00171   0.00504   0.00530

  Beta  occ. eigenvalues --  -38.47134 -38.44572 -38.44424 -38.43940 -38.43490
  Beta  occ. eigenvalues --  -38.43186 -38.43122  -2.22906  -2.20314  -2.20283
  Beta  occ. eigenvalues --   -2.19814  -2.19277  -2.18980  -2.18972  -1.16577
  Beta  occ. eigenvalues --   -1.16559  -1.16551  -1.14056  -1.14020  -1.13974
  Beta  occ. eigenvalues --   -1.13951  -1.13921  -1.13899  -1.13521  -1.13498
  Beta  occ. eigenvalues --   -1.13432  -1.13021  -1.12936  -1.12934  -1.12666
  Beta  occ. eigenvalues --   -1.12645  -1.12640  -1.12637  -1.12615  -1.12552
  Beta  occ. eigenvalues --   -0.17401  -0.13249  -0.11136
  Beta virt. eigenvalues --   -0.07851  -0.07241  -0.05227  -0.03851  -0.02989
  Beta virt. eigenvalues --   -0.02756  -0.02020  -0.01767  -0.01487  -0.01105
  Beta virt. eigenvalues --   -0.00758  -0.00406   0.00218   0.00321   0.00555

 Mulliken charges and spin densities:
               1          2
     1  Na   0.083865  -0.018817
     2  Na   0.210294   0.227095
     3  Na  -1.325493   0.241214
     4  Na   0.808812   0.274343
     5  Na   0.116463  -0.100552
     6  Na  -0.100669   0.263878
     7  Na   0.206727   0.112838
 Sum of Mulliken charges =  -0.00000   1.00000

 Dipole moment (field-independent basis, Debye):
    X=             -0.4390    Y=              0.9338    Z=              0.6044  Tot=              1.1959
 Quadrupole moment (field-independent basis, Debye-Ang):
   XX=            -77.4472   YY=            -70.2049   ZZ=            -63.4852
   XY=              3.3346   XZ=              1.0760   YZ=             -5.4874

 Normal termination of Gaussian 16 at Thu Dec  7 12:53:56 2023.
