 Gaussian 16, Revision B.01,
 Gaussian 16:  ES64L-G16RevB.01 20-Dec-2017

 -------------------------
 #P B3LYP/6-311+g(d) force
 -------------------------

 -----
 DPGEN
 -----
 Symbolic Z-matrix:
 Charge =  0 Multiplicity = 2

                         Standard orientation:
 ---------------------------------------------------------------------
 Center     Atomic      Atomic             Coordinates (Angstroms)
 Number     Number       Type             X           Y           Z
 ---------------------------------------------------------------------
      1         11           0       -2.583486   -1.746996    0.013414
      2         11           0        1.001168   -2.870193   -0.324546
      3         11           0        3.181315   -0.032758    0.272343
      4         11           0       -2.525915    1.736110    0.046450
      5         11           0       -0.035374   -0.116743   -1.616358
      6         11           0       -0.003437    0.083751    2.063881
      7         11           0        0.965730    2.946828   -0.455183
 ---------------------------------------------------------------------

 SCF Done:  E(UB3LYP) =  -1136.13966235     A.U. after   18 cycles

 The electronic state is 2-A.
 Alpha  occ. eigenvalues --  -38.44017 -38.43762 -38.43761 -38.43681 -38.43581
 Alpha  occ. eigenvalues --  -38.43556 -38.43112  -2.19820  -2.19593  -2.19591
 Alpha  occ. eigenvalues --   -2.19549  -2.19393  -2.19391  -2.19080  -1.13496
 Alpha  occ. eigenvalues --   -1.13479  -1.13460  -1.13291  -1.13273  -1.13263
 Alpha  occ. eigenvalues --   -1.13251  -1.13243  -1.13214  -1.13202  -1.13176
 Alpha  occ. eigenvalues --   -1.13162  -1.13105  -1.13079  -1.13047  -1.13046
 Alpha  occ. eigenvalues --   -1.13025  -1.13014  -1.12763  -1.12710  -1.12701
 Alpha  occ. eigenvalues --   -0.18388  -0.12815  -0.12468  -0.10663
 Alpha virt. eigenvalues --   -0.05501  -0.05277  -0.04932  -0.03116  -0.02882
 Alpha virt. eigenvalues --   -0.02529  -0.01468  -0.01261  -0.00538  -0.00453
 Alpha virt. eigenvalues --   -0.00009   0.00359   0.00808   0.00861   0.00862

  Beta  occ. eigenvalues --  -38.44012 -38.43760 -38.43757 -38.43587 -38.43571
  Beta  occ. eigenvalues --  -38.43549 -38.43050  -2.19813  -2.19590  -2.19589
  Beta  occ. eigenvalues --   -2.19384  -2.19379  -2.19373  -2.18967  -1.13478
  Beta  occ. eigenvalues --   -1.13468  -1.13460  -1.13290  -1.13255  -1.13250
  Beta  occ. eigenvalues --   -1.13241  -1.13234  -1.13200  -1.13103  -1.13087
  Beta  occ. eigenvalues --   -1.13061  -1.13056  -1.13036  -1.13029  -1.13028
  Beta  occ. eigenvalues --   -1.13015  -1.13008  -1.12684  -1.12630  -1.12618
  Beta  occ. eigenvalues --   -0.17675  -0.12603  -0.12206
  Beta virt. eigenvalues --   -0.06787  -0.05437  -0.05300  -0.04848  -0.02347
  Beta virt. eigenvalues --   -0.02154  -0.01484  -0.01368  -0.01170  -0.00581
  Beta virt. eigenvalues --   -0.00508   0.00127   0.00382   0.00842   0.00849

 Mulliken charges and spin densities:
               1          2
     1  Na   0.099318  -0.070286
     2  Na   0.139554  -0.067033
     3  Na   0.063833  -0.004512
     4  Na   0.131295  -0.043390
     5  Na  -0.095248   0.468283
     6  Na  -0.380886   0.751734
     7  Na   0.042134  -0.034795
 Sum of Mulliken charges =  -0.00000   1.00000

 Dipole moment (field-independent basis, Debye):
    X=              0.0145    Y=             -0.0169    Z=              0.1673  Tot=              0.1688
 Quadrupole moment (field-independent basis, Debye-Ang):
   XX=            -57.1497   YY=            -60.7547   ZZ=            -74.9920
   XY=              0.1660   XZ=             -0.0096   YZ=             -0.4568

 Normal termination of Gaussian 16 at Thu Dec  7 18:30:49 2023.
