 Gaussian 16, Revision B.01,
 Gaussian 16:  ES64L-G16RevB.01 20-Dec-2017

 -------------------------
 #P B3LYP/6-311+g(d) force
 -------------------------

 -----
 DPGEN
 -----
 Symbolic Z-matrix:
 Charge =  0 Multiplicity = 2

                         Standard orientation:
 ---------------------------------------------------------------------
 Center     Atomic      Atomic             Coordinates (Angstroms)
 Number     Number       Type             X           Y           Z
 ---------------------------------------------------------------------
      1         11           0        0.167447   -0.017409    1.833374
      2         11           0        1.206493   -1.870505   -0.056222
      3         11           0       -2.284129    0.905762    0.058407
      4         11           0       -1.518530   -1.695603    0.104621
      5         11           0       -0.161807   -0.115493   -1.799587
      6         11           0        0.144140    2.214502   -0.045988
      7         11           0        2.446385    0.578745   -0.094605
 ---------------------------------------------------------------------

 SCF Done:  E(UB3LYP) =  -1136.07394935     A.U. after   19 cycles

 The electronic state is 2-A.
 Alpha  occ. eigenvalues --  -38.44307 -38.44264 -38.43862 -38.43815 -38.43774
 Alpha  occ. eigenvalues --  -38.43717 -38.43426  -2.20568  -2.20501  -2.20026
 Alpha  occ. eigenvalues --   -2.19972  -2.19939  -2.19888  -2.19584  -1.14459
 Alpha  occ. eigenvalues --   -1.14293  -1.14282  -1.14235  -1.14186  -1.14165
 Alpha  occ. eigenvalues --   -1.14012  -1.13879  -1.13789  -1.13747  -1.13668
 Alpha  occ. eigenvalues --   -1.13601  -1.13538  -1.13520  -1.13481  -1.13444
 Alpha  occ. eigenvalues --   -1.13382  -1.13279  -1.13203  -1.13192  -1.13097
 Alpha  occ. eigenvalues --   -0.21960  -0.13805  -0.13163  -0.12553
 Alpha virt. eigenvalues --   -0.05056  -0.04206  -0.04162  -0.03735  -0.03400
 Alpha virt. eigenvalues --   -0.02999  -0.00855  -0.00467  -0.00124   0.00346
 Alpha virt. eigenvalues --    0.00878   0.00915   0.01096   0.01218   0.01263

  Beta  occ. eigenvalues --  -38.44209 -38.44165 -38.43850 -38.43804 -38.43757
  Beta  occ. eigenvalues --  -38.43700 -38.43411  -2.20394  -2.20323  -2.20008
  Beta  occ. eigenvalues --   -2.19953  -2.19923  -2.19868  -2.19566  -1.14376
  Beta  occ. eigenvalues --   -1.14183  -1.14176  -1.14122  -1.14064  -1.14042
  Beta  occ. eigenvalues --   -1.14001  -1.13866  -1.13761  -1.13717  -1.13655
  Beta  occ. eigenvalues --   -1.13531  -1.13469  -1.13448  -1.13433  -1.13400
  Beta  occ. eigenvalues --   -1.13376  -1.13272  -1.13195  -1.13118  -1.13093
  Beta  occ. eigenvalues --   -0.21099  -0.13416  -0.12773
  Beta virt. eigenvalues --   -0.08318  -0.05092  -0.04193  -0.04133  -0.02754
  Beta virt. eigenvalues --   -0.02436  -0.01912  -0.00789  -0.00425   0.00027
  Beta virt. eigenvalues --    0.00365   0.00855   0.00889   0.01127   0.01216

 Mulliken charges and spin densities:
               1          2
     1  Na  -0.305779   0.440458
     2  Na   0.189140   0.043798
     3  Na   0.031963   0.002418
     4  Na   0.180360   0.042657
     5  Na  -0.288836   0.423265
     6  Na   0.196510   0.067193
     7  Na  -0.003357  -0.019790
 Sum of Mulliken charges =  -0.00000   1.00000

 Dipole moment (field-independent basis, Debye):
    X=              0.0694    Y=              0.1726    Z=              0.0526  Tot=              0.1933
 Quadrupole moment (field-independent basis, Debye-Ang):
   XX=            -62.7475   YY=            -68.9568   ZZ=            -67.4212
   XY=              0.0897   XZ=             -0.6038   YZ=             -0.1791

 Normal termination of Gaussian 16 at Sat Dec  9 07:13:40 2023.
