 Gaussian 16, Revision B.01,
 Gaussian 16:  ES64L-G16RevB.01 20-Dec-2017

 -------------------------
 #P B3LYP/6-311+g(d) force
 -------------------------

 -----
 DPGEN
 -----
 Symbolic Z-matrix:
 Charge =  0 Multiplicity = 2

                         Standard orientation:
 ---------------------------------------------------------------------
 Center     Atomic      Atomic             Coordinates (Angstroms)
 Number     Number       Type             X           Y           Z
 ---------------------------------------------------------------------
      1         11           0       -3.798415   -2.371336   -0.259000
      2         11           0        2.063926    3.729478   -0.207014
      3         11           0       -1.131133    2.912184   -0.297656
      4         11           0        4.565132    0.089085    0.017190
      5         11           0        3.151079   -2.809938    0.450012
      6         11           0       -0.724152   -3.337983   -0.342816
      7         11           0       -4.126437    1.788510    0.639284
 ---------------------------------------------------------------------

 SCF Done:  E(UB3LYP) =  -1136.10526536     A.U. after   20 cycles

 The electronic state is 2-A.
 Alpha  occ. eigenvalues --  -38.45325 -38.44865 -38.44575 -38.44534 -38.44533
 Alpha  occ. eigenvalues --  -38.44248 -38.44130  -2.21078  -2.20632  -2.20376
 Alpha  occ. eigenvalues --   -2.20314  -2.20309  -2.20047  -2.19918  -1.14750
 Alpha  occ. eigenvalues --   -1.14742  -1.14722  -1.14311  -1.14301  -1.14274
 Alpha  occ. eigenvalues --   -1.14024  -1.14017  -1.13995  -1.13977  -1.13976
 Alpha  occ. eigenvalues --   -1.13971  -1.13969  -1.13955  -1.13930  -1.13712
 Alpha  occ. eigenvalues --   -1.13690  -1.13674  -1.13600  -1.13594  -1.13553
 Alpha  occ. eigenvalues --   -0.15207  -0.13778  -0.13471  -0.11249
 Alpha virt. eigenvalues --   -0.07588  -0.04755  -0.04620  -0.03556  -0.03480
 Alpha virt. eigenvalues --   -0.02417  -0.02188  -0.02064  -0.01534  -0.00955
 Alpha virt. eigenvalues --   -0.00769  -0.00336  -0.00037   0.00294   0.00511

  Beta  occ. eigenvalues --  -38.45315 -38.44858 -38.44514 -38.44504 -38.44485
  Beta  occ. eigenvalues --  -38.44172 -38.44130  -2.21064  -2.20622  -2.20278
  Beta  occ. eigenvalues --   -2.20258  -2.20209  -2.19927  -2.19904  -1.14743
  Beta  occ. eigenvalues --   -1.14733  -1.14697  -1.14297  -1.14297  -1.14254
  Beta  occ. eigenvalues --   -1.13954  -1.13948  -1.13942  -1.13937  -1.13922
  Beta  occ. eigenvalues --   -1.13912  -1.13904  -1.13888  -1.13884  -1.13628
  Beta  occ. eigenvalues --   -1.13612  -1.13608  -1.13591  -1.13577  -1.13492
  Beta  occ. eigenvalues --   -0.14653  -0.13040  -0.12681
  Beta virt. eigenvalues --   -0.08109  -0.07763  -0.04297  -0.04127  -0.03324
  Beta virt. eigenvalues --   -0.03262  -0.02203  -0.02012  -0.01831  -0.01324
  Beta virt. eigenvalues --   -0.00606  -0.00427  -0.00086   0.00151   0.00356

 Mulliken charges and spin densities:
               1          2
     1  Na   0.109294  -0.019330
     2  Na   0.512230   0.337034
     3  Na  -1.127586   0.062337
     4  Na  -0.172336   0.052804
     5  Na   0.231367   0.105731
     6  Na  -0.091586   0.108122
     7  Na   0.538616   0.353302
 Sum of Mulliken charges =  -0.00000   1.00000

 Dipole moment (field-independent basis, Debye):
    X=              0.2351    Y=             -0.4927    Z=              0.1218  Tot=              0.5594
 Quadrupole moment (field-independent basis, Debye-Ang):
   XX=            -53.0184   YY=            -70.2759   ZZ=            -74.5943
   XY=              4.2081   XZ=             -1.1353   YZ=             -0.4154

 Normal termination of Gaussian 16 at Mon Dec  4 02:48:09 2023.
