 Gaussian 16, Revision B.01,
 Gaussian 16:  ES64L-G16RevB.01 20-Dec-2017

 -------------------------
 #P B3LYP/6-311+g(d) force
 -------------------------

 -----
 DPGEN
 -----
 Symbolic Z-matrix:
 Charge =  0 Multiplicity = 2

                         Standard orientation:
 ---------------------------------------------------------------------
 Center     Atomic      Atomic             Coordinates (Angstroms)
 Number     Number       Type             X           Y           Z
 ---------------------------------------------------------------------
      1         11           0        1.789284    3.271818    0.434860
      2         11           0        3.548130   -2.899246   -0.338388
      3         11           0        4.449194    0.495633   -0.398251
      4         11           0        1.287456   -0.074541    0.659482
      5         11           0       -2.515038    0.258340   -1.568812
      6         11           0       -5.610189    0.048456   -0.364903
      7         11           0       -2.948837   -1.100460    1.576011
 ---------------------------------------------------------------------

 SCF Done:  E(UB3LYP) =  -1136.10982379     A.U. after   28 cycles

 The electronic state is 2-A.
 Alpha  occ. eigenvalues --  -38.46705 -38.45378 -38.44508 -38.44476 -38.43591
 Alpha  occ. eigenvalues --  -38.42532 -38.42462  -2.22481  -2.21188  -2.20349
 Alpha  occ. eigenvalues --   -2.20278  -2.19429  -2.18323  -2.18249  -1.16167
 Alpha  occ. eigenvalues --   -1.16140  -1.16112  -1.14859  -1.14837  -1.14809
 Alpha  occ. eigenvalues --   -1.14007  -1.13996  -1.13969  -1.13964  -1.13956
 Alpha  occ. eigenvalues --   -1.13866  -1.13148  -1.13094  -1.13044  -1.11992
 Alpha  occ. eigenvalues --   -1.11978  -1.11968  -1.11921  -1.11918  -1.11880
 Alpha  occ. eigenvalues --   -0.16519  -0.14720  -0.10784  -0.10535
 Alpha virt. eigenvalues --   -0.07356  -0.05409  -0.04385  -0.03826  -0.03204
 Alpha virt. eigenvalues --   -0.02521  -0.01922  -0.01571  -0.01116  -0.00854
 Alpha virt. eigenvalues --   -0.00707  -0.00005   0.00171   0.00337   0.00466

  Beta  occ. eigenvalues --  -38.46697 -38.45327 -38.44457 -38.44444 -38.43576
  Beta  occ. eigenvalues --  -38.42521 -38.42459  -2.22473  -2.21096  -2.20244
  Beta  occ. eigenvalues --   -2.20229  -2.19405  -2.18303  -2.18243  -1.16162
  Beta  occ. eigenvalues --   -1.16128  -1.16079  -1.14797  -1.14771  -1.14729
  Beta  occ. eigenvalues --   -1.13946  -1.13935  -1.13917  -1.13913  -1.13890
  Beta  occ. eigenvalues --   -1.13835  -1.13136  -1.13046  -1.13030  -1.11980
  Beta  occ. eigenvalues --   -1.11966  -1.11951  -1.11917  -1.11912  -1.11877
  Beta  occ. eigenvalues --   -0.15872  -0.14416  -0.10536
  Beta virt. eigenvalues --   -0.07248  -0.06928  -0.04877  -0.04179  -0.03594
  Beta virt. eigenvalues --   -0.03054  -0.02076  -0.01356  -0.01287  -0.00849
  Beta virt. eigenvalues --   -0.00762  -0.00615   0.00178   0.00350   0.00458

 Mulliken charges and spin densities:
               1          2
     1  Na   0.344019   0.127260
     2  Na  -0.077286   0.021338
     3  Na   1.326805   0.223482
     4  Na  -1.689045   0.127290
     5  Na  -0.081789   0.075444
     6  Na   0.441923   0.338007
     7  Na  -0.264627   0.087180
 Sum of Mulliken charges =  -0.00000   1.00000

 Dipole moment (field-independent basis, Debye):
    X=             -2.6583    Y=             -0.0729    Z=             -0.4367  Tot=              2.6949
 Quadrupole moment (field-independent basis, Debye-Ang):
   XX=            -60.9725   YY=            -73.7418   ZZ=            -65.7450
   XY=              6.8826   XZ=             -5.1829   YZ=             -2.8034

 Normal termination of Gaussian 16 at Fri Dec  8 17:02:25 2023.
