 Gaussian 16, Revision B.01,
 Gaussian 16:  ES64L-G16RevB.01 20-Dec-2017

 -------------------------
 #P B3LYP/6-311+g(d) force
 -------------------------

 -----
 DPGEN
 -----
 Symbolic Z-matrix:
 Charge =  0 Multiplicity = 2

                         Standard orientation:
 ---------------------------------------------------------------------
 Center     Atomic      Atomic             Coordinates (Angstroms)
 Number     Number       Type             X           Y           Z
 ---------------------------------------------------------------------
      1         11           0        0.330736    0.240149    2.022745
      2         11           0        3.243351   -1.007980   -0.212335
      3         11           0       -3.130230   -1.115646   -0.288728
      4         11           0       -0.343323   -0.022298   -1.219331
      5         11           0        1.923709    2.304252   -0.524493
      6         11           0       -0.079137   -2.957103    0.074135
      7         11           0       -1.945106    2.558627    0.148006
 ---------------------------------------------------------------------

 SCF Done:  E(UB3LYP) =  -1136.13424996     A.U. after   19 cycles

 The electronic state is 2-A.
 Alpha  occ. eigenvalues --  -38.44282 -38.44148 -38.43902 -38.43761 -38.43529
 Alpha  occ. eigenvalues --  -38.43228 -38.42879  -2.20067  -2.19975  -2.19709
 Alpha  occ. eigenvalues --   -2.19597  -2.19365  -2.19118  -2.18920  -1.13743
 Alpha  occ. eigenvalues --   -1.13720  -1.13712  -1.13678  -1.13627  -1.13597
 Alpha  occ. eigenvalues --   -1.13391  -1.13373  -1.13343  -1.13292  -1.13258
 Alpha  occ. eigenvalues --   -1.13212  -1.13077  -1.13031  -1.12981  -1.12816
 Alpha  occ. eigenvalues --   -1.12740  -1.12716  -1.12615  -1.12559  -1.12545
 Alpha  occ. eigenvalues --   -0.18368  -0.13013  -0.12425  -0.10178
 Alpha virt. eigenvalues --   -0.05797  -0.05550  -0.04833  -0.02883  -0.02673
 Alpha virt. eigenvalues --   -0.02087  -0.01785  -0.01430  -0.00636  -0.00608
 Alpha virt. eigenvalues --   -0.00006   0.00296   0.00730   0.00788   0.00819

  Beta  occ. eigenvalues --  -38.44278 -38.44140 -38.43899 -38.43743 -38.43525
  Beta  occ. eigenvalues --  -38.43127 -38.42843  -2.20062  -2.19963  -2.19706
  Beta  occ. eigenvalues --   -2.19567  -2.19361  -2.18931  -2.18858  -1.13731
  Beta  occ. eigenvalues --   -1.13714  -1.13703  -1.13665  -1.13610  -1.13592
  Beta  occ. eigenvalues --   -1.13386  -1.13357  -1.13341  -1.13268  -1.13227
  Beta  occ. eigenvalues --   -1.13188  -1.13074  -1.13012  -1.12977  -1.12696
  Beta  occ. eigenvalues --   -1.12612  -1.12580  -1.12545  -1.12514  -1.12503
  Beta  occ. eigenvalues --   -0.17699  -0.12731  -0.12228
  Beta virt. eigenvalues --   -0.06362  -0.05731  -0.05472  -0.04775  -0.02215
  Beta virt. eigenvalues --   -0.01961  -0.01701  -0.01353  -0.01084  -0.00652
  Beta virt. eigenvalues --   -0.00609   0.00160   0.00360   0.00792   0.00803

 Mulliken charges and spin densities:
               1          2
     1  Na  -0.334123   0.723998
     2  Na   0.063528   0.010913
     3  Na   0.365522   0.026179
     4  Na  -0.535315   0.140388
     5  Na   0.181216   0.096617
     6  Na   0.100308  -0.005044
     7  Na   0.158863   0.006948
 Sum of Mulliken charges =  -0.00000   1.00000

 Dipole moment (field-independent basis, Debye):
    X=             -0.0800    Y=              0.0072    Z=              0.2041  Tot=              0.2193
 Quadrupole moment (field-independent basis, Debye-Ang):
   XX=            -53.6635   YY=            -60.1090   ZZ=            -77.1246
   XY=             -1.3827   XZ=             -1.1088   YZ=             -0.4220

 Normal termination of Gaussian 16 at Thu Dec  7 12:34:09 2023.
