 Gaussian 16, Revision B.01,
 Gaussian 16:  ES64L-G16RevB.01 20-Dec-2017

 -------------------------
 #P B3LYP/6-311+g(d) force
 -------------------------

 -----
 DPGEN
 -----
 Symbolic Z-matrix:
 Charge =  0 Multiplicity = 2

                         Standard orientation:
 ---------------------------------------------------------------------
 Center     Atomic      Atomic             Coordinates (Angstroms)
 Number     Number       Type             X           Y           Z
 ---------------------------------------------------------------------
      1         11           0        3.175257   -2.061931   -0.813872
      2         11           0        4.333063    0.327873    0.490934
      3         11           0       -1.890403    3.232495   -0.777798
      4         11           0       -0.170436   -3.195387   -0.399709
      5         11           0       -3.130582   -2.147248    1.151258
      6         11           0        2.048522    3.235449    0.630966
      7         11           0       -4.365421    0.608750   -0.281780
 ---------------------------------------------------------------------

 SCF Done:  E(UB3LYP) =  -1136.10145567     A.U. after   28 cycles

 The electronic state is 2-A.
 Alpha  occ. eigenvalues --  -38.45308 -38.45246 -38.45205 -38.44766 -38.44469
 Alpha  occ. eigenvalues --  -38.44051 -38.43880  -2.21117  -2.20971  -2.20961
 Alpha  occ. eigenvalues --   -2.20550  -2.20266  -2.19821  -2.19727  -1.14838
 Alpha  occ. eigenvalues --   -1.14777  -1.14748  -1.14657  -1.14643  -1.14643
 Alpha  occ. eigenvalues --   -1.14637  -1.14598  -1.14591  -1.14225  -1.14213
 Alpha  occ. eigenvalues --   -1.14183  -1.13929  -1.13917  -1.13904  -1.13478
 Alpha  occ. eigenvalues --   -1.13465  -1.13442  -1.13405  -1.13360  -1.13352
 Alpha  occ. eigenvalues --   -0.15608  -0.14274  -0.13045  -0.10638
 Alpha virt. eigenvalues --   -0.08117  -0.04953  -0.04543  -0.03670  -0.03532
 Alpha virt. eigenvalues --   -0.02396  -0.02233  -0.01551  -0.01217  -0.01108
 Alpha virt. eigenvalues --   -0.01052  -0.00256   0.00076   0.00351   0.00707

  Beta  occ. eigenvalues --  -38.45296 -38.45233 -38.45192 -38.44739 -38.44443
  Beta  occ. eigenvalues --  -38.43973 -38.43836  -2.21101  -2.20952  -2.20942
  Beta  occ. eigenvalues --   -2.20502  -2.20219  -2.19676  -2.19646  -1.14812
  Beta  occ. eigenvalues --   -1.14773  -1.14710  -1.14648  -1.14634  -1.14633
  Beta  occ. eigenvalues --   -1.14628  -1.14562  -1.14554  -1.14194  -1.14182
  Beta  occ. eigenvalues --   -1.14138  -1.13899  -1.13889  -1.13861  -1.13380
  Beta  occ. eigenvalues --   -1.13368  -1.13351  -1.13342  -1.13305  -1.13299
  Beta  occ. eigenvalues --   -0.15125  -0.13670  -0.12227
  Beta virt. eigenvalues --   -0.08368  -0.07472  -0.04381  -0.04051  -0.03494
  Beta virt. eigenvalues --   -0.03362  -0.02149  -0.02094  -0.01303  -0.01033
  Beta virt. eigenvalues --   -0.00899  -0.00709  -0.00113   0.00216   0.00437

 Mulliken charges and spin densities:
               1          2
     1  Na   0.106804   0.177483
     2  Na   0.097484   0.086100
     3  Na   0.011906   0.059846
     4  Na  -0.133350   0.106382
     5  Na  -0.125918   0.072622
     6  Na  -0.083984   0.401360
     7  Na   0.127058   0.096207
 Sum of Mulliken charges =  -0.00000   1.00000

 Dipole moment (field-independent basis, Debye):
    X=             -0.4205    Y=             -0.4425    Z=             -0.0401  Tot=              0.6117
 Quadrupole moment (field-independent basis, Debye-Ang):
   XX=            -59.9236   YY=            -71.1286   ZZ=            -70.8550
   XY=              1.0554   XZ=             -0.0131   YZ=             -0.3970

 Normal termination of Gaussian 16 at Mon Dec  4 00:49:16 2023.
