 Gaussian 16, Revision B.01,
 Gaussian 16:  ES64L-G16RevB.01 20-Dec-2017

 -------------------------
 #P B3LYP/6-311+g(d) force
 -------------------------

 -----
 DPGEN
 -----
 Symbolic Z-matrix:
 Charge =  0 Multiplicity = 2

                         Standard orientation:
 ---------------------------------------------------------------------
 Center     Atomic      Atomic             Coordinates (Angstroms)
 Number     Number       Type             X           Y           Z
 ---------------------------------------------------------------------
      1         11           0        1.238085   -2.675440   -0.362503
      2         11           0       -2.636224    1.024410    1.211993
      3         11           0       -0.481739   -1.022327    2.066330
      4         11           0        2.267263    2.422091    0.350673
      5         11           0        3.240787   -0.339852   -0.397451
      6         11           0       -1.232203    2.188305   -1.496714
      7         11           0       -2.395969   -1.597186   -1.372328
 ---------------------------------------------------------------------

 SCF Done:  E(UB3LYP) =  -1136.11961334     A.U. after   21 cycles

 The electronic state is 2-A.
 Alpha  occ. eigenvalues --  -38.44823 -38.44420 -38.44196 -38.44131 -38.44130
 Alpha  occ. eigenvalues --  -38.44040 -38.43618  -2.20606  -2.20209  -2.20073
 Alpha  occ. eigenvalues --   -2.19999  -2.19988  -2.19835  -2.19457  -1.14280
 Alpha  occ. eigenvalues --   -1.14245  -1.14230  -1.13906  -1.13872  -1.13837
 Alpha  occ. eigenvalues --   -1.13828  -1.13750  -1.13710  -1.13693  -1.13666
 Alpha  occ. eigenvalues --   -1.13638  -1.13631  -1.13619  -1.13608  -1.13491
 Alpha  occ. eigenvalues --   -1.13473  -1.13458  -1.13130  -1.13118  -1.13087
 Alpha  occ. eigenvalues --   -0.17498  -0.13606  -0.12172  -0.11168
 Alpha virt. eigenvalues --   -0.06393  -0.05776  -0.04111  -0.03704  -0.03303
 Alpha virt. eigenvalues --   -0.02838  -0.01378  -0.01088  -0.00814  -0.00475
 Alpha virt. eigenvalues --   -0.00104   0.00172   0.00411   0.00442   0.00748

  Beta  occ. eigenvalues --  -38.44770 -38.44394 -38.44162 -38.44130 -38.44052
  Beta  occ. eigenvalues --  -38.44045 -38.43614  -2.20507  -2.20160  -2.20017
  Beta  occ. eigenvalues --   -2.19989  -2.19857  -2.19844  -2.19451  -1.14204
  Beta  occ. eigenvalues --   -1.14181  -1.14158  -1.13874  -1.13838  -1.13788
  Beta  occ. eigenvalues --   -1.13762  -1.13754  -1.13676  -1.13667  -1.13637
  Beta  occ. eigenvalues --   -1.13629  -1.13547  -1.13526  -1.13500  -1.13493
  Beta  occ. eigenvalues --   -1.13479  -1.13465  -1.13126  -1.13108  -1.13080
  Beta  occ. eigenvalues --   -0.16869  -0.13390  -0.12052
  Beta virt. eigenvalues --   -0.07245  -0.06181  -0.05668  -0.03835  -0.03254
  Beta virt. eigenvalues --   -0.02838  -0.01925  -0.01240  -0.00944  -0.00701
  Beta virt. eigenvalues --   -0.00458   0.00100   0.00336   0.00521   0.00606

 Mulliken charges and spin densities:
               1          2
     1  Na   0.166394   0.144851
     2  Na   0.381807   0.014166
     3  Na   0.075289   0.398376
     4  Na  -0.214439  -0.034798
     5  Na   0.031852  -0.081298
     6  Na  -0.093183   0.261381
     7  Na  -0.347720   0.297321
 Sum of Mulliken charges =  -0.00000   1.00000

 Dipole moment (field-independent basis, Debye):
    X=             -0.4598    Y=              0.0195    Z=             -0.2894  Tot=              0.5436
 Quadrupole moment (field-independent basis, Debye-Ang):
   XX=            -62.2347   YY=            -67.4504   ZZ=            -70.2460
   XY=             -0.5925   XZ=              0.7416   YZ=              1.9694

 Normal termination of Gaussian 16 at Sun Dec  3 13:23:58 2023.
