 Gaussian 16, Revision B.01,
 Gaussian 16:  ES64L-G16RevB.01 20-Dec-2017

 -------------------------
 #P B3LYP/6-311+g(d) force
 -------------------------

 -----
 DPGEN
 -----
 Symbolic Z-matrix:
 Charge =  0 Multiplicity = 2

                         Standard orientation:
 ---------------------------------------------------------------------
 Center     Atomic      Atomic             Coordinates (Angstroms)
 Number     Number       Type             X           Y           Z
 ---------------------------------------------------------------------
      1         11           0        3.300884   -0.254660   -0.511582
      2         11           0        1.111629   -2.592588    0.049919
      3         11           0       -3.079690   -1.590654   -0.098208
      4         11           0       -0.142931    0.041896   -1.627583
      5         11           0       -0.228752   -0.268297    2.087100
      6         11           0        1.379372    2.603668    0.486682
      7         11           0       -2.340511    2.060633   -0.386329
 ---------------------------------------------------------------------

 SCF Done:  E(UB3LYP) =  -1136.13434158     A.U. after   20 cycles

 The electronic state is 2-A.
 Alpha  occ. eigenvalues --  -38.44477 -38.44179 -38.43964 -38.43679 -38.43520
 Alpha  occ. eigenvalues --  -38.43289 -38.43253  -2.20247  -2.20008  -2.19783
 Alpha  occ. eigenvalues --   -2.19554  -2.19456  -2.19157  -2.19068  -1.13929
 Alpha  occ. eigenvalues --   -1.13896  -1.13892  -1.13674  -1.13673  -1.13651
 Alpha  occ. eigenvalues --   -1.13495  -1.13441  -1.13398  -1.13229  -1.13187
 Alpha  occ. eigenvalues --   -1.13164  -1.13147  -1.13107  -1.13069  -1.12836
 Alpha  occ. eigenvalues --   -1.12826  -1.12780  -1.12742  -1.12731  -1.12705
 Alpha  occ. eigenvalues --   -0.18277  -0.13163  -0.12004  -0.10780
 Alpha virt. eigenvalues --   -0.06010  -0.05436  -0.04308  -0.03257  -0.02873
 Alpha virt. eigenvalues --   -0.02584  -0.01878  -0.01256  -0.00518  -0.00234
 Alpha virt. eigenvalues --   -0.00043   0.00310   0.00696   0.00801   0.00860

  Beta  occ. eigenvalues --  -38.44478 -38.44168 -38.43956 -38.43579 -38.43468
  Beta  occ. eigenvalues --  -38.43282 -38.43243  -2.20251  -2.19991  -2.19770
  Beta  occ. eigenvalues --   -2.19370  -2.19360  -2.19149  -2.19052  -1.13923
  Beta  occ. eigenvalues --   -1.13899  -1.13890  -1.13665  -1.13650  -1.13636
  Beta  occ. eigenvalues --   -1.13477  -1.13425  -1.13389  -1.13114  -1.13074
  Beta  occ. eigenvalues --   -1.13057  -1.13041  -1.13028  -1.12998  -1.12832
  Beta  occ. eigenvalues --   -1.12800  -1.12765  -1.12728  -1.12704  -1.12698
  Beta  occ. eigenvalues --   -0.17568  -0.12905  -0.11779
  Beta virt. eigenvalues --   -0.06913  -0.05964  -0.05379  -0.04235  -0.02566
  Beta virt. eigenvalues --   -0.02106  -0.01799  -0.01545  -0.01189  -0.00533
  Beta virt. eigenvalues --   -0.00251   0.00093   0.00350   0.00783   0.00812

 Mulliken charges and spin densities:
               1          2
     1  Na   0.087360   0.040376
     2  Na   0.186469  -0.031348
     3  Na   0.020169  -0.093643
     4  Na  -0.061232   0.353192
     5  Na  -0.288543   0.709841
     6  Na  -0.019629   0.043239
     7  Na   0.075407  -0.021657
 Sum of Mulliken charges =  -0.00000   1.00000

 Dipole moment (field-independent basis, Debye):
    X=             -0.3790    Y=             -0.1160    Z=             -0.0022  Tot=              0.3963
 Quadrupole moment (field-independent basis, Debye-Ang):
   XX=            -53.4094   YY=            -65.5024   ZZ=            -74.1908
   XY=              0.9109   XZ=             -0.3739   YZ=              0.6230

 Normal termination of Gaussian 16 at Thu Dec  7 03:24:49 2023.
