 Gaussian 16, Revision B.01,
 Gaussian 16:  ES64L-G16RevB.01 20-Dec-2017

 -------------------------
 #P B3LYP/6-311+g(d) force
 -------------------------

 -----
 DPGEN
 -----
 Symbolic Z-matrix:
 Charge =  0 Multiplicity = 2

                         Standard orientation:
 ---------------------------------------------------------------------
 Center     Atomic      Atomic             Coordinates (Angstroms)
 Number     Number       Type             X           Y           Z
 ---------------------------------------------------------------------
      1         11           0       -0.827853    0.635250   -0.983912
      2         11           0       -6.062703    0.040747   -0.916127
      3         11           0       -3.245348   -0.305595    0.959342
      4         11           0       -0.157811   -1.969912    0.992241
      5         11           0        2.493207    0.111484   -0.950049
      6         11           0        1.458397    2.097764    1.316315
      7         11           0        6.342112   -0.609738   -0.417810
 ---------------------------------------------------------------------

 SCF Done:  E(UB3LYP) =  -1136.10191310     A.U. after   25 cycles

 The electronic state is 2-A.
 Alpha  occ. eigenvalues --  -38.46006 -38.45684 -38.44344 -38.44322 -38.44209
 Alpha  occ. eigenvalues --  -38.43535 -38.43528  -2.21832  -2.21574  -2.20166
 Alpha  occ. eigenvalues --   -2.20101  -2.20069  -2.19396  -2.19270  -1.15482
 Alpha  occ. eigenvalues --   -1.15478  -1.15448  -1.15286  -1.15225  -1.15197
 Alpha  occ. eigenvalues --   -1.13879  -1.13847  -1.13787  -1.13750  -1.13748
 Alpha  occ. eigenvalues --   -1.13728  -1.13707  -1.13706  -1.13687  -1.13105
 Alpha  occ. eigenvalues --   -1.13073  -1.13005  -1.12948  -1.12947  -1.12903
 Alpha  occ. eigenvalues --   -0.17992  -0.13618  -0.11581  -0.11037
 Alpha virt. eigenvalues --   -0.07438  -0.06604  -0.04090  -0.03620  -0.02929
 Alpha virt. eigenvalues --   -0.02680  -0.02156  -0.01774  -0.01335  -0.01228
 Alpha virt. eigenvalues --   -0.00643  -0.00133   0.00176   0.00263   0.00342

  Beta  occ. eigenvalues --  -38.45936 -38.45678 -38.44333 -38.44261 -38.44141
  Beta  occ. eigenvalues --  -38.43561 -38.43528  -2.21704  -2.21568  -2.20191
  Beta  occ. eigenvalues --   -2.19945  -2.19941  -2.19382  -2.19333  -1.15402
  Beta  occ. eigenvalues --   -1.15381  -1.15363  -1.15286  -1.15203  -1.15176
  Beta  occ. eigenvalues --   -1.13901  -1.13840  -1.13791  -1.13644  -1.13642
  Beta  occ. eigenvalues --   -1.13638  -1.13618  -1.13608  -1.13604  -1.13096
  Beta  occ. eigenvalues --   -1.13061  -1.13012  -1.12991  -1.12988  -1.12932
  Beta  occ. eigenvalues --   -0.17475  -0.13405  -0.10655
  Beta virt. eigenvalues --   -0.07971  -0.07122  -0.06175  -0.03981  -0.03198
  Beta virt. eigenvalues --   -0.02595  -0.02263  -0.01762  -0.01571  -0.01063
  Beta virt. eigenvalues --   -0.01005  -0.00452   0.00094   0.00252   0.00346

 Mulliken charges and spin densities:
               1          2
     1  Na   0.151421   0.705380
     2  Na  -0.070737  -0.150300
     3  Na   0.111378  -0.124724
     4  Na   0.045095   0.312469
     5  Na  -0.618155  -0.204549
     6  Na   0.164524   0.172180
     7  Na   0.216474   0.289545
 Sum of Mulliken charges =  -0.00000   1.00000

 Dipole moment (field-independent basis, Debye):
    X=              0.4690    Y=              0.5111    Z=              0.9573  Tot=              1.1822
 Quadrupole moment (field-independent basis, Debye-Ang):
   XX=            -82.6578   YY=            -72.1610   ZZ=            -61.7482
   XY=             -0.0427   XZ=              5.7554   YZ=              1.3779

 Normal termination of Gaussian 16 at Wed Nov 29 02:29:22 2023.
