 Gaussian 16, Revision B.01,
 Gaussian 16:  ES64L-G16RevB.01 20-Dec-2017

 -------------------------
 #P B3LYP/6-311+g(d) force
 -------------------------

 -----
 DPGEN
 -----
 Symbolic Z-matrix:
 Charge =  0 Multiplicity = 2

                         Standard orientation:
 ---------------------------------------------------------------------
 Center     Atomic      Atomic             Coordinates (Angstroms)
 Number     Number       Type             X           Y           Z
 ---------------------------------------------------------------------
      1         11           0        4.484199   -1.420118   -1.073500
      2         11           0       -4.223435   -0.525942   -0.590060
      3         11           0       -2.648612   -2.814832    1.121825
      4         11           0        1.162416   -3.002908   -0.080216
      5         11           0       -2.315563    2.544967   -0.892336
      6         11           0        0.470663    3.826825    0.511371
      7         11           0        3.070331    1.392008    1.002916
 ---------------------------------------------------------------------

 SCF Done:  E(UB3LYP) =  -1136.10761925     A.U. after   23 cycles

 The electronic state is 2-A.
 Alpha  occ. eigenvalues --  -38.46128 -38.45708 -38.44490 -38.44419 -38.44129
 Alpha  occ. eigenvalues --  -38.43995 -38.43671  -2.21840  -2.21453  -2.20278
 Alpha  occ. eigenvalues --   -2.20197  -2.19909  -2.19784  -2.19463  -1.15539
 Alpha  occ. eigenvalues --   -1.15526  -1.15436  -1.15144  -1.15126  -1.15058
 Alpha  occ. eigenvalues --   -1.13956  -1.13948  -1.13927  -1.13878  -1.13867
 Alpha  occ. eigenvalues --   -1.13819  -1.13569  -1.13561  -1.13527  -1.13449
 Alpha  occ. eigenvalues --   -1.13439  -1.13419  -1.13134  -1.13127  -1.13105
 Alpha  occ. eigenvalues --   -0.15417  -0.13778  -0.13199  -0.10631
 Alpha virt. eigenvalues --   -0.07706  -0.05454  -0.04387  -0.03567  -0.03308
 Alpha virt. eigenvalues --   -0.02449  -0.01990  -0.01639  -0.01460  -0.01032
 Alpha virt. eigenvalues --   -0.00961  -0.00265  -0.00016   0.00418   0.00608

  Beta  occ. eigenvalues --  -38.46103 -38.45675 -38.44480 -38.44396 -38.44077
  Beta  occ. eigenvalues --  -38.43968 -38.43661  -2.21797  -2.21396  -2.20262
  Beta  occ. eigenvalues --   -2.20154  -2.19812  -2.19733  -2.19445  -1.15513
  Beta  occ. eigenvalues --   -1.15501  -1.15376  -1.15109  -1.15092  -1.14990
  Beta  occ. eigenvalues --   -1.13949  -1.13939  -1.13894  -1.13850  -1.13839
  Beta  occ. eigenvalues --   -1.13782  -1.13502  -1.13493  -1.13465  -1.13415
  Beta  occ. eigenvalues --   -1.13409  -1.13377  -1.13122  -1.13120  -1.13081
  Beta  occ. eigenvalues --   -0.14928  -0.13275  -0.12761
  Beta virt. eigenvalues --   -0.07731  -0.07281  -0.04907  -0.03925  -0.03423
  Beta virt. eigenvalues --   -0.03002  -0.02268  -0.01779  -0.01422  -0.01298
  Beta virt. eigenvalues --   -0.00772  -0.00719  -0.00006   0.00201   0.00463

 Mulliken charges and spin densities:
               1          2
     1  Na   0.360283   0.282232
     2  Na   0.078822  -0.025254
     3  Na  -0.177068   0.117392
     4  Na  -0.172545   0.223536
     5  Na  -0.235088   0.096679
     6  Na   0.443256   0.129074
     7  Na  -0.297660   0.176340
 Sum of Mulliken charges =  -0.00000   1.00000

 Dipole moment (field-independent basis, Debye):
    X=              0.7235    Y=             -0.4426    Z=             -0.0031  Tot=              0.8482
 Quadrupole moment (field-independent basis, Debye-Ang):
   XX=            -61.6811   YY=            -68.4187   ZZ=            -70.4844
   XY=              1.4198   XZ=              0.2857   YZ=              0.6435

 Normal termination of Gaussian 16 at Sun Dec  3 22:25:23 2023.
