 Gaussian 16, Revision B.01,
 Gaussian 16:  ES64L-G16RevB.01 20-Dec-2017

 -------------------------
 #P B3LYP/6-311+g(d) force
 -------------------------

 -----
 DPGEN
 -----
 Symbolic Z-matrix:
 Charge =  0 Multiplicity = 2

                         Standard orientation:
 ---------------------------------------------------------------------
 Center     Atomic      Atomic             Coordinates (Angstroms)
 Number     Number       Type             X           Y           Z
 ---------------------------------------------------------------------
      1         11           0       -1.474956   -2.485598   -0.223748
      2         11           0       -2.956088    0.742974   -0.261177
      3         11           0       -0.638004   -0.175375    1.946863
      4         11           0        0.145053    0.289239   -1.685472
      5         11           0        3.094394    0.732940    0.132577
      6         11           0        0.031506    3.114742    0.107147
      7         11           0        1.798095   -2.218922   -0.016191
 ---------------------------------------------------------------------

 SCF Done:  E(UB3LYP) =  -1136.13851012     A.U. after   20 cycles

 The electronic state is 2-A.
 Alpha  occ. eigenvalues --  -38.44010 -38.43953 -38.43851 -38.43404 -38.43399
 Alpha  occ. eigenvalues --  -38.43330 -38.43085  -2.19859  -2.19777  -2.19656
 Alpha  occ. eigenvalues --   -2.19315  -2.19296  -2.19217  -2.19049  -1.13541
 Alpha  occ. eigenvalues --   -1.13535  -1.13485  -1.13461  -1.13443  -1.13415
 Alpha  occ. eigenvalues --   -1.13342  -1.13321  -1.13285  -1.13038  -1.12979
 Alpha  occ. eigenvalues --   -1.12964  -1.12948  -1.12936  -1.12902  -1.12890
 Alpha  occ. eigenvalues --   -1.12873  -1.12840  -1.12729  -1.12678  -1.12673
 Alpha  occ. eigenvalues --   -0.18719  -0.13001  -0.12628  -0.10599
 Alpha virt. eigenvalues --   -0.05740  -0.04998  -0.04917  -0.03138  -0.02949
 Alpha virt. eigenvalues --   -0.02392  -0.01420  -0.01197  -0.00483  -0.00287
 Alpha virt. eigenvalues --   -0.00001   0.00370   0.00833   0.00869   0.00918

  Beta  occ. eigenvalues --  -38.44001 -38.43952 -38.43848 -38.43395 -38.43325
  Beta  occ. eigenvalues --  -38.43314 -38.43017  -2.19848  -2.19777  -2.19655
  Beta  occ. eigenvalues --   -2.19284  -2.19212  -2.19158  -2.18926  -1.13534
  Beta  occ. eigenvalues --   -1.13496  -1.13482  -1.13463  -1.13428  -1.13417
  Beta  occ. eigenvalues --   -1.13334  -1.13307  -1.13287  -1.13008  -1.12953
  Beta  occ. eigenvalues --   -1.12919  -1.12888  -1.12865  -1.12848  -1.12840
  Beta  occ. eigenvalues --   -1.12824  -1.12809  -1.12647  -1.12589  -1.12580
  Beta  occ. eigenvalues --   -0.17987  -0.12779  -0.12399
  Beta virt. eigenvalues --   -0.06696  -0.05727  -0.04948  -0.04876  -0.02374
  Beta virt. eigenvalues --   -0.02175  -0.01372  -0.01327  -0.01118  -0.00529
  Beta virt. eigenvalues --   -0.00341   0.00147   0.00398   0.00833   0.00894

 Mulliken charges and spin densities:
               1          2
     1  Na   0.351762   0.017545
     2  Na   0.274995  -0.091667
     3  Na  -0.497611   0.774844
     4  Na  -0.168717   0.535663
     5  Na  -0.011826  -0.060273
     6  Na  -0.026257  -0.130661
     7  Na   0.077654  -0.045451
 Sum of Mulliken charges =  -0.00000   1.00000

 Dipole moment (field-independent basis, Debye):
    X=             -0.1147    Y=              0.3485    Z=              0.0809  Tot=              0.3757
 Quadrupole moment (field-independent basis, Debye-Ang):
   XX=            -57.6945   YY=            -60.8219   ZZ=            -74.8411
   XY=              0.3969   XZ=              1.7648   YZ=              1.1190

 Normal termination of Gaussian 16 at Thu Dec  7 15:18:28 2023.
