 Gaussian 16, Revision B.01,
 Gaussian 16:  ES64L-G16RevB.01 20-Dec-2017

 -------------------------
 #P B3LYP/6-311+g(d) force
 -------------------------

 -----
 DPGEN
 -----
 Symbolic Z-matrix:
 Charge =  0 Multiplicity = 2

                         Standard orientation:
 ---------------------------------------------------------------------
 Center     Atomic      Atomic             Coordinates (Angstroms)
 Number     Number       Type             X           Y           Z
 ---------------------------------------------------------------------
      1         11           0       -2.448318    1.363518   -0.800044
      2         11           0       -1.071860   -1.508182   -1.749021
      3         11           0        1.995587   -0.283897   -1.102369
      4         11           0       -2.749850   -1.815430    0.968191
      5         11           0        4.541414   -1.037812    0.607250
      6         11           0        0.652134    3.198496    0.113967
      7         11           0       -0.919106    0.083305    1.962025
 ---------------------------------------------------------------------

 SCF Done:  E(UB3LYP) =  -1136.11306926     A.U. after   23 cycles

 The electronic state is 2-A.
 Alpha  occ. eigenvalues --  -38.44836 -38.44830 -38.44625 -38.44045 -38.44043
 Alpha  occ. eigenvalues --  -38.43453 -38.43346  -2.20750  -2.20687  -2.20399
 Alpha  occ. eigenvalues --   -2.19981  -2.19952  -2.19290  -2.19111  -1.14522
 Alpha  occ. eigenvalues --   -1.14393  -1.14385  -1.14377  -1.14324  -1.14285
 Alpha  occ. eigenvalues --   -1.14062  -1.14050  -1.14048  -1.13664  -1.13658
 Alpha  occ. eigenvalues --   -1.13612  -1.13602  -1.13587  -1.13514  -1.12979
 Alpha  occ. eigenvalues --   -1.12962  -1.12915  -1.12789  -1.12777  -1.12744
 Alpha  occ. eigenvalues --   -0.18268  -0.13357  -0.11673  -0.11493
 Alpha virt. eigenvalues --   -0.07010  -0.05185  -0.04127  -0.03488  -0.02874
 Alpha virt. eigenvalues --   -0.02746  -0.02222  -0.01179  -0.00804  -0.00474
 Alpha virt. eigenvalues --    0.00003   0.00033   0.00261   0.00622   0.00692

  Beta  occ. eigenvalues --  -38.44816 -38.44753 -38.44614 -38.44010 -38.43974
  Beta  occ. eigenvalues --  -38.43444 -38.43350  -2.20652  -2.20611  -2.20378
  Beta  occ. eigenvalues --   -2.19925  -2.19821  -2.19277  -2.19120  -1.14428
  Beta  occ. eigenvalues --   -1.14351  -1.14327  -1.14284  -1.14268  -1.14232
  Beta  occ. eigenvalues --   -1.14050  -1.14035  -1.14033  -1.13622  -1.13577
  Beta  occ. eigenvalues --   -1.13561  -1.13523  -1.13494  -1.13441  -1.12968
  Beta  occ. eigenvalues --   -1.12934  -1.12908  -1.12790  -1.12784  -1.12750
  Beta  occ. eigenvalues --   -0.17502  -0.13105  -0.11445
  Beta virt. eigenvalues --   -0.07678  -0.06604  -0.05106  -0.03755  -0.03150
  Beta virt. eigenvalues --   -0.02374  -0.02058  -0.01927  -0.01055  -0.00618
  Beta virt. eigenvalues --   -0.00296   0.00127   0.00250   0.00295   0.00648

 Mulliken charges and spin densities:
               1          2
     1  Na  -0.185978   0.200713
     2  Na   0.642229   0.410805
     3  Na  -0.888970  -0.044109
     4  Na   0.171555  -0.081365
     5  Na   0.304147   0.055114
     6  Na   0.180588  -0.076538
     7  Na  -0.223572   0.535378
 Sum of Mulliken charges =  -0.00000   1.00000

 Dipole moment (field-independent basis, Debye):
    X=             -0.4299    Y=             -0.0636    Z=              0.4023  Tot=              0.5922
 Quadrupole moment (field-independent basis, Debye-Ang):
   XX=            -55.8328   YY=            -71.1077   ZZ=            -69.4036
   XY=              1.1606   XZ=              5.7252   YZ=             -2.1101

 Normal termination of Gaussian 16 at Tue Dec  5 13:35:38 2023.
