 Gaussian 16, Revision B.01,
 Gaussian 16:  ES64L-G16RevB.01 20-Dec-2017

 -------------------------
 #P B3LYP/6-311+g(d) force
 -------------------------

 -----
 DPGEN
 -----
 Symbolic Z-matrix:
 Charge =  0 Multiplicity = 2

                         Standard orientation:
 ---------------------------------------------------------------------
 Center     Atomic      Atomic             Coordinates (Angstroms)
 Number     Number       Type             X           Y           Z
 ---------------------------------------------------------------------
      1         11           0       -2.757034    1.692930    0.497075
      2         11           0       -1.125544   -0.988604    1.658353
      3         11           0        2.297093    2.488880    0.254747
      4         11           0        2.600341   -1.193225   -1.640284
      5         11           0        2.467780   -1.344062    1.536263
      6         11           0       -0.050597    0.593256   -1.416215
      7         11           0       -3.432038   -1.249176   -0.889940
 ---------------------------------------------------------------------

 SCF Done:  E(UB3LYP) =  -1136.11546697     A.U. after   26 cycles

 The electronic state is 2-A.
 Alpha  occ. eigenvalues --  -38.45218 -38.44976 -38.44448 -38.44013 -38.43843
 Alpha  occ. eigenvalues --  -38.43407 -38.43308  -2.21041  -2.20820  -2.20303
 Alpha  occ. eigenvalues --   -2.19779  -2.19704  -2.19232  -2.19212  -1.14709
 Alpha  occ. eigenvalues --   -1.14691  -1.14681  -1.14507  -1.14473  -1.14430
 Alpha  occ. eigenvalues --   -1.13992  -1.13953  -1.13915  -1.13448  -1.13430
 Alpha  occ. eigenvalues --   -1.13424  -1.13394  -1.13374  -1.13310  -1.12908
 Alpha  occ. eigenvalues --   -1.12904  -1.12887  -1.12884  -1.12877  -1.12832
 Alpha  occ. eigenvalues --   -0.17993  -0.14386  -0.10979  -0.10600
 Alpha virt. eigenvalues --   -0.06597  -0.06219  -0.05079  -0.03090  -0.02620
 Alpha virt. eigenvalues --   -0.02331  -0.02106  -0.01424  -0.00852  -0.00381
 Alpha virt. eigenvalues --    0.00149   0.00170   0.00245   0.00259   0.00448

  Beta  occ. eigenvalues --  -38.45194 -38.44962 -38.44401 -38.44002 -38.43802
  Beta  occ. eigenvalues --  -38.43395 -38.43279  -2.20995  -2.20796  -2.20217
  Beta  occ. eigenvalues --   -2.19757  -2.19631  -2.19211  -2.19165  -1.14676
  Beta  occ. eigenvalues --   -1.14655  -1.14653  -1.14480  -1.14456  -1.14414
  Beta  occ. eigenvalues --   -1.13923  -1.13897  -1.13857  -1.13427  -1.13418
  Beta  occ. eigenvalues --   -1.13409  -1.13348  -1.13311  -1.13254  -1.12883
  Beta  occ. eigenvalues --   -1.12873  -1.12865  -1.12863  -1.12832  -1.12792
  Beta  occ. eigenvalues --   -0.17381  -0.14159  -0.10505
  Beta virt. eigenvalues --   -0.07343  -0.06141  -0.06009  -0.04562  -0.02830
  Beta virt. eigenvalues --   -0.02328  -0.02026  -0.01523  -0.01166  -0.00478
  Beta virt. eigenvalues --   -0.00244   0.00227   0.00243   0.00363   0.00436

 Mulliken charges and spin densities:
               1          2
     1  Na   0.702397   0.103710
     2  Na  -0.611526   0.324472
     3  Na  -0.219593   0.196409
     4  Na   0.050956   0.016183
     5  Na   0.038970   0.036567
     6  Na  -0.253162   0.305143
     7  Na   0.291959   0.017516
 Sum of Mulliken charges =  -0.00000   1.00000

 Dipole moment (field-independent basis, Debye):
    X=             -1.3375    Y=              0.1388    Z=             -0.1938  Tot=              1.3586
 Quadrupole moment (field-independent basis, Debye-Ang):
   XX=            -48.5302   YY=            -74.9465   ZZ=            -70.9582
   XY=              0.4304   XZ=              1.3746   YZ=              7.2765

 Normal termination of Gaussian 16 at Mon Dec  4 04:16:17 2023.
