 Gaussian 16, Revision B.01,
 Gaussian 16:  ES64L-G16RevB.01 20-Dec-2017

 -------------------------
 #P B3LYP/6-311+g(d) force
 -------------------------

 -----
 DPGEN
 -----
 Symbolic Z-matrix:
 Charge =  0 Multiplicity = 2

                         Standard orientation:
 ---------------------------------------------------------------------
 Center     Atomic      Atomic             Coordinates (Angstroms)
 Number     Number       Type             X           Y           Z
 ---------------------------------------------------------------------
      1         11           0       -2.542603   -1.859608   -0.936309
      2         11           0       -3.565844    0.529475    1.320505
      3         11           0       -1.202310    1.739305   -1.199971
      4         11           0        2.443273    2.085787   -0.219784
      5         11           0       -0.061619   -0.140535    1.318768
      6         11           0        3.611660   -1.199547    0.818005
      7         11           0        1.317443   -1.154877   -1.101214
 ---------------------------------------------------------------------

 SCF Done:  E(UB3LYP) =  -1136.11995126     A.U. after   27 cycles

 The electronic state is 2-A.
 Alpha  occ. eigenvalues --  -38.45009 -38.44324 -38.44182 -38.43993 -38.43720
 Alpha  occ. eigenvalues --  -38.43670 -38.43091  -2.20927  -2.20167  -2.19996
 Alpha  occ. eigenvalues --   -2.19855  -2.19643  -2.19536  -2.18944  -1.14714
 Alpha  occ. eigenvalues --   -1.14558  -1.14531  -1.13828  -1.13804  -1.13793
 Alpha  occ. eigenvalues --   -1.13665  -1.13647  -1.13631  -1.13603  -1.13497
 Alpha  occ. eigenvalues --   -1.13485  -1.13380  -1.13250  -1.13228  -1.13223
 Alpha  occ. eigenvalues --   -1.13186  -1.13161  -1.12640  -1.12613  -1.12550
 Alpha  occ. eigenvalues --   -0.18505  -0.14534  -0.10937  -0.10713
 Alpha virt. eigenvalues --   -0.06778  -0.05639  -0.04798  -0.03020  -0.02789
 Alpha virt. eigenvalues --   -0.02259  -0.01900  -0.01407  -0.00986  -0.00266
 Alpha virt. eigenvalues --    0.00074   0.00246   0.00350   0.00516   0.00523

  Beta  occ. eigenvalues --  -38.44994 -38.44259 -38.44154 -38.43975 -38.43723
  Beta  occ. eigenvalues --  -38.43637 -38.43069  -2.20904  -2.20045  -2.19948
  Beta  occ. eigenvalues --   -2.19820  -2.19586  -2.19544  -2.18908  -1.14664
  Beta  occ. eigenvalues --   -1.14546  -1.14518  -1.13740  -1.13724  -1.13715
  Beta  occ. eigenvalues --   -1.13634  -1.13608  -1.13580  -1.13577  -1.13473
  Beta  occ. eigenvalues --   -1.13457  -1.13346  -1.13237  -1.13217  -1.13180
  Beta  occ. eigenvalues --   -1.13160  -1.13156  -1.12618  -1.12559  -1.12531
  Beta  occ. eigenvalues --   -0.17871  -0.14154  -0.10666
  Beta virt. eigenvalues --   -0.07090  -0.06561  -0.05540  -0.04147  -0.02868
  Beta virt. eigenvalues --   -0.02589  -0.01689  -0.01280  -0.01259  -0.00596
  Beta virt. eigenvalues --   -0.00158   0.00137   0.00302   0.00446   0.00611

 Mulliken charges and spin densities:
               1          2
     1  Na  -0.096284   0.148112
     2  Na   0.815991   0.327597
     3  Na  -0.270278   0.092177
     4  Na  -0.139183   0.006214
     5  Na  -1.064858   0.057956
     6  Na   0.946685   0.201858
     7  Na  -0.192073   0.166085
 Sum of Mulliken charges =  -0.00000   1.00000

 Dipole moment (field-independent basis, Debye):
    X=             -0.0384    Y=              0.1816    Z=             -0.0386  Tot=              0.1896
 Quadrupole moment (field-independent basis, Debye-Ang):
   XX=            -50.5853   YY=            -76.3012   ZZ=            -68.4542
   XY=              1.8414   XZ=              2.5919   YZ=              1.2984

 Normal termination of Gaussian 16 at Thu Dec  7 14:28:26 2023.
