 Gaussian 16, Revision B.01,
 Gaussian 16:  ES64L-G16RevB.01 20-Dec-2017

 -------------------------
 #P B3LYP/6-311+g(d) force
 -------------------------

 -----
 DPGEN
 -----
 Symbolic Z-matrix:
 Charge =  0 Multiplicity = 2

                         Standard orientation:
 ---------------------------------------------------------------------
 Center     Atomic      Atomic             Coordinates (Angstroms)
 Number     Number       Type             X           Y           Z
 ---------------------------------------------------------------------
      1         11           0        2.661469    1.526621    0.142259
      2         11           0       -0.807588    2.818009   -0.209648
      3         11           0        0.067204    0.125512    1.733201
      4         11           0       -3.192232    0.020972    0.126876
      5         11           0       -0.893433   -2.617782    0.071132
      6         11           0       -0.067158   -0.049251   -1.724183
      7         11           0        2.231738   -1.824081   -0.139636
 ---------------------------------------------------------------------

 SCF Done:  E(UB3LYP) =  -1136.13991653     A.U. after   19 cycles

 The electronic state is 2-A.
 Alpha  occ. eigenvalues --  -38.44035 -38.43747 -38.43547 -38.43396 -38.43172
 Alpha  occ. eigenvalues --  -38.43052 -38.43017  -2.19858  -2.19598  -2.19396
 Alpha  occ. eigenvalues --   -2.19306  -2.19091  -2.19039  -2.19016  -1.13529
 Alpha  occ. eigenvalues --   -1.13517  -1.13501  -1.13283  -1.13263  -1.13237
 Alpha  occ. eigenvalues --   -1.13090  -1.13071  -1.13013  -1.13012  -1.12971
 Alpha  occ. eigenvalues --   -1.12947  -1.12814  -1.12771  -1.12728  -1.12707
 Alpha  occ. eigenvalues --   -1.12675  -1.12656  -1.12647  -1.12631  -1.12620
 Alpha  occ. eigenvalues --   -0.19103  -0.13026  -0.12720  -0.10598
 Alpha virt. eigenvalues --   -0.05617  -0.05017  -0.04742  -0.03021  -0.02893
 Alpha virt. eigenvalues --   -0.02269  -0.01551  -0.01120  -0.00335  -0.00169
 Alpha virt. eigenvalues --    0.00027   0.00360   0.00839   0.00887   0.00935

  Beta  occ. eigenvalues --  -38.44033 -38.43742 -38.43540 -38.43388 -38.43164
  Beta  occ. eigenvalues --  -38.42975 -38.42937  -2.19856  -2.19592  -2.19387
  Beta  occ. eigenvalues --   -2.19296  -2.19080  -2.18899  -2.18872  -1.13519
  Beta  occ. eigenvalues --   -1.13510  -1.13499  -1.13276  -1.13244  -1.13230
  Beta  occ. eigenvalues --   -1.13081  -1.13041  -1.13011  -1.13006  -1.12954
  Beta  occ. eigenvalues --   -1.12922  -1.12794  -1.12726  -1.12701  -1.12642
  Beta  occ. eigenvalues --   -1.12579  -1.12560  -1.12545  -1.12528  -1.12521
  Beta  occ. eigenvalues --   -0.18368  -0.12773  -0.12441
  Beta virt. eigenvalues --   -0.06677  -0.05602  -0.05012  -0.04731  -0.02237
  Beta virt. eigenvalues --   -0.02077  -0.01468  -0.01229  -0.01044  -0.00388
  Beta virt. eigenvalues --   -0.00225   0.00150   0.00382   0.00877   0.00882

 Mulliken charges and spin densities:
               1          2
     1  Na   0.168910  -0.079642
     2  Na   0.024829  -0.139561
     3  Na  -0.398930   0.724035
     4  Na   0.053506  -0.099727
     5  Na   0.211299  -0.059036
     6  Na  -0.339851   0.675371
     7  Na   0.280238  -0.021439
 Sum of Mulliken charges =  -0.00000   1.00000

 Dipole moment (field-independent basis, Debye):
    X=             -0.1550    Y=              0.2464    Z=              0.0244  Tot=              0.2921
 Quadrupole moment (field-independent basis, Debye-Ang):
   XX=            -55.4428   YY=            -61.5502   ZZ=            -75.2882
   XY=              0.1211   XZ=             -0.3802   YZ=             -0.3300

 Normal termination of Gaussian 16 at Thu Dec  7 21:47:19 2023.
