 Gaussian 16, Revision B.01,
 Gaussian 16:  ES64L-G16RevB.01 20-Dec-2017

 -------------------------
 #P B3LYP/6-311+g(d) force
 -------------------------

 -----
 DPGEN
 -----
 Symbolic Z-matrix:
 Charge =  0 Multiplicity = 2

                         Standard orientation:
 ---------------------------------------------------------------------
 Center     Atomic      Atomic             Coordinates (Angstroms)
 Number     Number       Type             X           Y           Z
 ---------------------------------------------------------------------
      1         11           0        2.605064    1.261247    1.554498
      2         11           0       -0.206473    1.893614   -0.611580
      3         11           0       -0.680729   -0.628634    1.276453
      4         11           0       -5.404437   -1.189170    0.527535
      5         11           0        5.170737   -0.923523   -0.543452
      6         11           0        1.655570   -1.308043   -0.951785
      7         11           0       -3.139732    0.894509   -1.251668
 ---------------------------------------------------------------------

 SCF Done:  E(UB3LYP) =  -1136.10608130     A.U. after   30 cycles

 The electronic state is 2-A.
 Alpha  occ. eigenvalues --  -38.45951 -38.44794 -38.44419 -38.44178 -38.44055
 Alpha  occ. eigenvalues --  -38.43651 -38.43355  -2.21737  -2.20649  -2.20326
 Alpha  occ. eigenvalues --   -2.19911  -2.19887  -2.19570  -2.19127  -1.15433
 Alpha  occ. eigenvalues --   -1.15388  -1.15342  -1.14345  -1.14310  -1.14264
 Alpha  occ. eigenvalues --   -1.13997  -1.13974  -1.13937  -1.13591  -1.13587
 Alpha  occ. eigenvalues --   -1.13574  -1.13562  -1.13554  -1.13503  -1.13236
 Alpha  occ. eigenvalues --   -1.13221  -1.13193  -1.12799  -1.12791  -1.12759
 Alpha  occ. eigenvalues --   -0.17998  -0.13848  -0.11048  -0.10731
 Alpha virt. eigenvalues --   -0.08189  -0.05653  -0.04515  -0.03485  -0.02851
 Alpha virt. eigenvalues --   -0.02504  -0.02044  -0.01688  -0.01407  -0.01101
 Alpha virt. eigenvalues --   -0.00267   0.00139   0.00234   0.00355   0.00433

  Beta  occ. eigenvalues --  -38.45918 -38.44755 -38.44353 -38.44196 -38.44026
  Beta  occ. eigenvalues --  -38.43617 -38.43343  -2.21678  -2.20582  -2.20207
  Beta  occ. eigenvalues --   -2.19946  -2.19834  -2.19508  -2.19105  -1.15383
  Beta  occ. eigenvalues --   -1.15346  -1.15298  -1.14292  -1.14268  -1.14195
  Beta  occ. eigenvalues --   -1.13920  -1.13874  -1.13851  -1.13614  -1.13608
  Beta  occ. eigenvalues --   -1.13581  -1.13535  -1.13521  -1.13465  -1.13197
  Beta  occ. eigenvalues --   -1.13173  -1.13137  -1.12784  -1.12774  -1.12744
  Beta  occ. eigenvalues --   -0.17273  -0.13572  -0.11047
  Beta virt. eigenvalues --   -0.07852  -0.06939  -0.05430  -0.04209  -0.03068
  Beta virt. eigenvalues --   -0.02446  -0.02225  -0.01920  -0.01327  -0.01162
  Beta virt. eigenvalues --   -0.00665  -0.00174   0.00222   0.00346   0.00469

 Mulliken charges and spin densities:
               1          2
     1  Na   0.521521   0.284157
     2  Na  -0.232074   0.267132
     3  Na  -0.492108   0.400500
     4  Na   0.233959  -0.139123
     5  Na   0.064481   0.083590
     6  Na   0.000592   0.033277
     7  Na  -0.096370   0.070468
 Sum of Mulliken charges =  -0.00000   1.00000

 Dipole moment (field-independent basis, Debye):
    X=              0.4257    Y=              0.1914    Z=              0.9960  Tot=              1.1000
 Quadrupole moment (field-independent basis, Debye-Ang):
   XX=            -74.2790   YY=            -74.4180   ZZ=            -60.4298
   XY=              4.3928   XZ=              0.1195   YZ=              1.1824

 Normal termination of Gaussian 16 at Fri Dec  8 19:36:33 2023.
