 Gaussian 16, Revision B.01,
 Gaussian 16:  ES64L-G16RevB.01 20-Dec-2017

 -------------------------
 #P B3LYP/6-311+g(d) force
 -------------------------

 -----
 DPGEN
 -----
 Symbolic Z-matrix:
 Charge =  0 Multiplicity = 2

                         Standard orientation:
 ---------------------------------------------------------------------
 Center     Atomic      Atomic             Coordinates (Angstroms)
 Number     Number       Type             X           Y           Z
 ---------------------------------------------------------------------
      1         11           0        3.099491    2.408216   -0.727134
      2         11           0        3.250183   -1.709098    0.335911
      3         11           0        0.453285   -2.684150   -1.182507
      4         11           0       -3.345850    1.927147   -0.101235
      5         11           0       -3.329897   -1.812094   -0.421559
      6         11           0       -0.109467    2.678051    0.079315
      7         11           0       -0.017746   -0.808071    2.017208
 ---------------------------------------------------------------------

 SCF Done:  E(UB3LYP) =  -1136.11243328     A.U. after   26 cycles

 The electronic state is 2-A.
 Alpha  occ. eigenvalues --  -38.45285 -38.45112 -38.44890 -38.44745 -38.44217
 Alpha  occ. eigenvalues --  -38.43673 -38.43518  -2.21055  -2.20876  -2.20680
 Alpha  occ. eigenvalues --   -2.20527  -2.19980  -2.19463  -2.19326  -1.14743
 Alpha  occ. eigenvalues --   -1.14706  -1.14697  -1.14558  -1.14538  -1.14511
 Alpha  occ. eigenvalues --   -1.14343  -1.14330  -1.14286  -1.14207  -1.14186
 Alpha  occ. eigenvalues --   -1.14157  -1.13655  -1.13627  -1.13613  -1.13133
 Alpha  occ. eigenvalues --   -1.13117  -1.13093  -1.13008  -1.12998  -1.12959
 Alpha  occ. eigenvalues --   -0.16662  -0.13302  -0.12685  -0.10102
 Alpha virt. eigenvalues --   -0.07398  -0.06455  -0.03853  -0.03570  -0.03172
 Alpha virt. eigenvalues --   -0.02523  -0.02163  -0.01847  -0.01505  -0.00504
 Alpha virt. eigenvalues --   -0.00232   0.00074   0.00153   0.00296   0.00595

  Beta  occ. eigenvalues --  -38.45287 -38.45112 -38.44808 -38.44734 -38.44179
  Beta  occ. eigenvalues --  -38.43622 -38.43518  -2.21060  -2.20877  -2.20529
  Beta  occ. eigenvalues --   -2.20506  -2.19909  -2.19367  -2.19330  -1.14748
  Beta  occ. eigenvalues --   -1.14709  -1.14688  -1.14561  -1.14529  -1.14513
  Beta  occ. eigenvalues --   -1.14242  -1.14227  -1.14194  -1.14181  -1.14165
  Beta  occ. eigenvalues --   -1.14134  -1.13604  -1.13580  -1.13561  -1.13078
  Beta  occ. eigenvalues --   -1.13052  -1.13028  -1.13013  -1.12998  -1.12933
  Beta  occ. eigenvalues --   -0.16164  -0.13235  -0.12074
  Beta virt. eigenvalues --   -0.07189  -0.06731  -0.06197  -0.03676  -0.03059
  Beta virt. eigenvalues --   -0.02764  -0.02267  -0.01965  -0.01392  -0.01290
  Beta virt. eigenvalues --   -0.00447   0.00025   0.00195   0.00277   0.00402

 Mulliken charges and spin densities:
               1          2
     1  Na   0.452346   0.200349
     2  Na  -0.019708   0.210043
     3  Na   0.023692   0.020581
     4  Na   0.347398  -0.101802
     5  Na  -0.113239   0.297977
     6  Na  -0.735413   0.108139
     7  Na   0.044924   0.264713
 Sum of Mulliken charges =  -0.00000   1.00000

 Dipole moment (field-independent basis, Debye):
    X=              0.0108    Y=             -0.8570    Z=              0.2894  Tot=              0.9046
 Quadrupole moment (field-independent basis, Debye-Ang):
   XX=            -55.8611   YY=            -70.9545   ZZ=            -73.2361
   XY=             -9.2305   XZ=             -0.2111   YZ=             -0.1418

 Normal termination of Gaussian 16 at Sun Dec  3 18:02:53 2023.
