 Gaussian 16, Revision B.01,
 Gaussian 16:  ES64L-G16RevB.01 20-Dec-2017

 -------------------------
 #P B3LYP/6-311+g(d) force
 -------------------------

 -----
 DPGEN
 -----
 Symbolic Z-matrix:
 Charge =  0 Multiplicity = 2

                         Standard orientation:
 ---------------------------------------------------------------------
 Center     Atomic      Atomic             Coordinates (Angstroms)
 Number     Number       Type             X           Y           Z
 ---------------------------------------------------------------------
      1         11           0        2.738890   -1.376566    0.819169
      2         11           0        5.893728   -1.006615   -0.498453
      3         11           0        3.511064    1.643919    0.133961
      4         11           0        0.170346    2.124868   -0.090046
      5         11           0       -0.303192   -0.942094   -0.520471
      6         11           0       -4.511177   -0.014295    0.418299
      7         11           0       -7.499659   -0.429217   -0.262458
 ---------------------------------------------------------------------

 SCF Done:  E(UB3LYP) =  -1136.11520753     A.U. after   19 cycles

 The electronic state is 2-A.
 Alpha  occ. eigenvalues --  -38.44723 -38.44667 -38.44533 -38.44224 -38.44024
 Alpha  occ. eigenvalues --  -38.43809 -38.43745  -2.20600  -2.20452  -2.20406
 Alpha  occ. eigenvalues --   -2.20074  -2.19882  -2.19596  -2.19531  -1.14318
 Alpha  occ. eigenvalues --   -1.14279  -1.14209  -1.14121  -1.14118  -1.14091
 Alpha  occ. eigenvalues --   -1.14068  -1.14067  -1.13986  -1.13764  -1.13728
 Alpha  occ. eigenvalues --   -1.13717  -1.13535  -1.13524  -1.13499  -1.13322
 Alpha  occ. eigenvalues --   -1.13252  -1.13252  -1.13196  -1.13193  -1.13108
 Alpha  occ. eigenvalues --   -0.17275  -0.13514  -0.12257  -0.11340
 Alpha virt. eigenvalues --   -0.06911  -0.05047  -0.04864  -0.03412  -0.03118
 Alpha virt. eigenvalues --   -0.02706  -0.02047  -0.01605  -0.01310  -0.00960
 Alpha virt. eigenvalues --   -0.00400  -0.00130   0.00169   0.00388   0.00421

  Beta  occ. eigenvalues --  -38.44678 -38.44663 -38.44467 -38.44187 -38.43979
  Beta  occ. eigenvalues --  -38.43809 -38.43745  -2.20519  -2.20445  -2.20287
  Beta  occ. eigenvalues --   -2.20010  -2.19800  -2.19596  -2.19530  -1.14256
  Beta  occ. eigenvalues --   -1.14222  -1.14148  -1.14116  -1.14103  -1.14058
  Beta  occ. eigenvalues --   -1.14012  -1.13991  -1.13880  -1.13722  -1.13688
  Beta  occ. eigenvalues --   -1.13650  -1.13474  -1.13463  -1.13444  -1.13322
  Beta  occ. eigenvalues --   -1.13252  -1.13252  -1.13195  -1.13193  -1.13108
  Beta  occ. eigenvalues --   -0.16498  -0.13481  -0.12091
  Beta virt. eigenvalues --   -0.07321  -0.06687  -0.04919  -0.04338  -0.03165
  Beta virt. eigenvalues --   -0.02673  -0.02279  -0.01786  -0.01537  -0.01269
  Beta virt. eigenvalues --   -0.00490  -0.00071   0.00018   0.00286   0.00476

 Mulliken charges and spin densities:
               1          2
     1  Na  -0.156488   0.281878
     2  Na   0.468339  -0.007689
     3  Na   0.156486   0.200422
     4  Na  -0.198761   0.283497
     5  Na  -0.101267   0.287085
     6  Na  -0.748483  -0.037956
     7  Na   0.580174  -0.007236
 Sum of Mulliken charges =  -0.00000   1.00000

 Dipole moment (field-independent basis, Debye):
    X=              2.1180    Y=             -0.1818    Z=             -0.3850  Tot=              2.1604
 Quadrupole moment (field-independent basis, Debye-Ang):
   XX=            -53.5953   YY=            -70.7845   ZZ=            -70.8990
   XY=             -2.8535   XZ=             -0.2782   YZ=              0.9088

 Normal termination of Gaussian 16 at Wed Nov 29 03:12:05 2023.
