 Gaussian 16, Revision B.01,
 Gaussian 16:  ES64L-G16RevB.01 20-Dec-2017

 -------------------------
 #P B3LYP/6-311+g(d) force
 -------------------------

 -----
 DPGEN
 -----
 Symbolic Z-matrix:
 Charge =  0 Multiplicity = 2

                         Standard orientation:
 ---------------------------------------------------------------------
 Center     Atomic      Atomic             Coordinates (Angstroms)
 Number     Number       Type             X           Y           Z
 ---------------------------------------------------------------------
      1         11           0        1.133802    0.530990    1.533209
      2         11           0       -1.070693    2.294917   -0.269912
      3         11           0        3.703232    0.041632   -0.142369
      4         11           0        0.737535    0.176145   -1.553295
      5         11           0        0.170005   -2.181481    0.380072
      6         11           0       -2.444533   -0.091742    1.405958
      7         11           0       -2.229348   -0.770462   -1.353662
 ---------------------------------------------------------------------

 SCF Done:  E(UB3LYP) =  -1136.11644120     A.U. after   24 cycles

 The electronic state is 2-A.
 Alpha  occ. eigenvalues --  -38.45259 -38.44474 -38.43952 -38.43688 -38.43581
 Alpha  occ. eigenvalues --  -38.42462 -38.42080  -2.21092  -2.20434  -2.19954
 Alpha  occ. eigenvalues --   -2.19711  -2.19673  -2.18423  -2.18032  -1.14783
 Alpha  occ. eigenvalues --   -1.14753  -1.14709  -1.14233  -1.14082  -1.14019
 Alpha  occ. eigenvalues --   -1.13675  -1.13596  -1.13516  -1.13495  -1.13368
 Alpha  occ. eigenvalues --   -1.13332  -1.13322  -1.13295  -1.13259  -1.12153
 Alpha  occ. eigenvalues --   -1.12095  -1.11998  -1.11739  -1.11689  -1.11653
 Alpha  occ. eigenvalues --   -0.19855  -0.14021  -0.11865  -0.11267
 Alpha virt. eigenvalues --   -0.06707  -0.04501  -0.03706  -0.03215  -0.02779
 Alpha virt. eigenvalues --   -0.02453  -0.02378  -0.00718  -0.00283   0.00181
 Alpha virt. eigenvalues --    0.00289   0.00409   0.00538   0.00934   0.00958

  Beta  occ. eigenvalues --  -38.45257 -38.44435 -38.43916 -38.43639 -38.43513
  Beta  occ. eigenvalues --  -38.42447 -38.42072  -2.21090  -2.20364  -2.19892
  Beta  occ. eigenvalues --   -2.19622  -2.19552  -2.18399  -2.18022  -1.14774
  Beta  occ. eigenvalues --   -1.14750  -1.14709  -1.14187  -1.14021  -1.13971
  Beta  occ. eigenvalues --   -1.13606  -1.13551  -1.13472  -1.13435  -1.13292
  Beta  occ. eigenvalues --   -1.13258  -1.13252  -1.13211  -1.13159  -1.12142
  Beta  occ. eigenvalues --   -1.12036  -1.11989  -1.11733  -1.11663  -1.11635
  Beta  occ. eigenvalues --   -0.19029  -0.13867  -0.11005
  Beta virt. eigenvalues --   -0.07671  -0.06601  -0.03884  -0.03646  -0.03057
  Beta virt. eigenvalues --   -0.02335  -0.01812  -0.01659  -0.00355  -0.00227
  Beta virt. eigenvalues --    0.00212   0.00337   0.00499   0.00558   0.00979

 Mulliken charges and spin densities:
               1          2
     1  Na   0.048826   0.336634
     2  Na  -0.524969   0.143497
     3  Na   0.190228  -0.045504
     4  Na   0.231317   0.336770
     5  Na  -0.804157   0.027863
     6  Na   0.366192   0.235472
     7  Na   0.492563  -0.034732
 Sum of Mulliken charges =  -0.00000   1.00000

 Dipole moment (field-independent basis, Debye):
    X=              0.9594    Y=             -0.1201    Z=              0.1656  Tot=              0.9810
 Quadrupole moment (field-independent basis, Debye-Ang):
   XX=            -47.6489   YY=            -77.8145   ZZ=            -66.6422
   XY=              0.0408   XZ=             -1.0294   YZ=              0.0534

 Normal termination of Gaussian 16 at Wed Dec  6 00:58:21 2023.
