 Gaussian 16, Revision B.01,
 Gaussian 16:  ES64L-G16RevB.01 20-Dec-2017

 -------------------------
 #P B3LYP/6-311+g(d) force
 -------------------------

 -----
 DPGEN
 -----
 Symbolic Z-matrix:
 Charge =  0 Multiplicity = 2

                         Standard orientation:
 ---------------------------------------------------------------------
 Center     Atomic      Atomic             Coordinates (Angstroms)
 Number     Number       Type             X           Y           Z
 ---------------------------------------------------------------------
      1         11           0        1.117074   -3.298050   -0.215730
      2         11           0       -2.776757   -2.943608   -0.013697
      3         11           0       -2.516732    2.989322   -0.552715
      4         11           0        3.828210    1.829662    0.892977
      5         11           0        3.756856   -1.743070   -0.449059
      6         11           0        0.429526    3.451184   -0.379918
      7         11           0       -3.838176   -0.285439    0.718142
 ---------------------------------------------------------------------

 SCF Done:  E(UB3LYP) =  -1136.10576932     A.U. after   19 cycles

 The electronic state is 2-A.
 Alpha  occ. eigenvalues --  -38.44958 -38.44769 -38.44593 -38.44589 -38.44487
 Alpha  occ. eigenvalues --  -38.44454 -38.44011  -2.20775  -2.20561  -2.20384
 Alpha  occ. eigenvalues --   -2.20375  -2.20297  -2.20272  -2.19846  -1.14508
 Alpha  occ. eigenvalues --   -1.14427  -1.14407  -1.14273  -1.14228  -1.14210
 Alpha  occ. eigenvalues --   -1.14139  -1.14051  -1.14029  -1.14022  -1.14004
 Alpha  occ. eigenvalues --   -1.13991  -1.13945  -1.13934  -1.13931  -1.13918
 Alpha  occ. eigenvalues --   -1.13907  -1.13886  -1.13508  -1.13484  -1.13471
 Alpha  occ. eigenvalues --   -0.15618  -0.14024  -0.13668  -0.11123
 Alpha virt. eigenvalues --   -0.07517  -0.04688  -0.04415  -0.03708  -0.03480
 Alpha virt. eigenvalues --   -0.02395  -0.02233  -0.01935  -0.01484  -0.00916
 Alpha virt. eigenvalues --   -0.00458  -0.00169   0.00043   0.00398   0.00658

  Beta  occ. eigenvalues --  -38.44937 -38.44765 -38.44585 -38.44492 -38.44438
  Beta  occ. eigenvalues --  -38.44435 -38.43972  -2.20741  -2.20559  -2.20383
  Beta  occ. eigenvalues --   -2.20247  -2.20202  -2.20187  -2.19774  -1.14473
  Beta  occ. eigenvalues --   -1.14406  -1.14379  -1.14251  -1.14232  -1.14194
  Beta  occ. eigenvalues --   -1.14106  -1.14056  -1.14011  -1.13908  -1.13902
  Beta  occ. eigenvalues --   -1.13894  -1.13883  -1.13880  -1.13878  -1.13873
  Beta  occ. eigenvalues --   -1.13869  -1.13825  -1.13459  -1.13436  -1.13423
  Beta  occ. eigenvalues --   -0.15150  -0.13269  -0.12927
  Beta virt. eigenvalues --   -0.07879  -0.07654  -0.04232  -0.03958  -0.03525
  Beta virt. eigenvalues --   -0.03081  -0.02194  -0.02039  -0.01749  -0.01332
  Beta virt. eigenvalues --   -0.00544  -0.00180   0.00066   0.00266   0.00374

 Mulliken charges and spin densities:
               1          2
     1  Na  -0.156038   0.236414
     2  Na   0.092301   0.056148
     3  Na   0.185944   0.147589
     4  Na   0.062700   0.462817
     5  Na   0.138310  -0.055964
     6  Na  -0.087126   0.052332
     7  Na  -0.236091   0.100664
 Sum of Mulliken charges =  -0.00000   1.00000

 Dipole moment (field-independent basis, Debye):
    X=             -0.4140    Y=             -0.2629    Z=              0.0420  Tot=              0.4923
 Quadrupole moment (field-independent basis, Debye-Ang):
   XX=            -61.2652   YY=            -67.8721   ZZ=            -72.6752
   XY=             -0.1695   XZ=             -0.8053   YZ=              1.1656

 Normal termination of Gaussian 16 at Sun Dec  3 13:43:54 2023.
