 Gaussian 16, Revision B.01,
 Gaussian 16:  ES64L-G16RevB.01 20-Dec-2017

 -------------------------
 #P B3LYP/6-311+g(d) force
 -------------------------

 -----
 DPGEN
 -----
 Symbolic Z-matrix:
 Charge =  0 Multiplicity = 2

                         Standard orientation:
 ---------------------------------------------------------------------
 Center     Atomic      Atomic             Coordinates (Angstroms)
 Number     Number       Type             X           Y           Z
 ---------------------------------------------------------------------
      1         11           0       -1.840561   -2.571111    0.063590
      2         11           0        0.639869   -0.492667   -1.887251
      3         11           0        0.241060   -0.494997    1.897231
      4         11           0       -3.235548    0.075164   -0.454206
      5         11           0       -1.556504    2.656345    0.490307
      6         11           0        3.597873   -1.178402    0.274958
      7         11           0        2.153811    2.005669   -0.384629
 ---------------------------------------------------------------------

 SCF Done:  E(UB3LYP) =  -1136.12513748     A.U. after   24 cycles

 The electronic state is 2-A.
 Alpha  occ. eigenvalues --  -38.45252 -38.44590 -38.44224 -38.44189 -38.43978
 Alpha  occ. eigenvalues --  -38.43344 -38.42811  -2.21025  -2.20446  -2.20050
 Alpha  occ. eigenvalues --   -2.20041  -2.19826  -2.19200  -2.18622  -1.14699
 Alpha  occ. eigenvalues --   -1.14685  -1.14660  -1.14133  -1.14102  -1.14101
 Alpha  occ. eigenvalues --   -1.13791  -1.13719  -1.13700  -1.13679  -1.13667
 Alpha  occ. eigenvalues --   -1.13634  -1.13501  -1.13464  -1.13441  -1.12883
 Alpha  occ. eigenvalues --   -1.12854  -1.12839  -1.12307  -1.12284  -1.12260
 Alpha  occ. eigenvalues --   -0.17997  -0.13781  -0.11619  -0.10687
 Alpha virt. eigenvalues --   -0.06749  -0.05629  -0.04041  -0.03727  -0.02735
 Alpha virt. eigenvalues --   -0.02495  -0.02269  -0.01271  -0.00640  -0.00258
 Alpha virt. eigenvalues --   -0.00082   0.00257   0.00466   0.00611   0.00741

  Beta  occ. eigenvalues --  -38.45249 -38.44588 -38.44211 -38.44117 -38.43894
  Beta  occ. eigenvalues --  -38.43343 -38.42809  -2.21023  -2.20442  -2.20030
  Beta  occ. eigenvalues --   -2.19909  -2.19672  -2.19202  -2.18620  -1.14697
  Beta  occ. eigenvalues --   -1.14666  -1.14659  -1.14137  -1.14100  -1.14084
  Beta  occ. eigenvalues --   -1.13752  -1.13685  -1.13653  -1.13620  -1.13587
  Beta  occ. eigenvalues --   -1.13546  -1.13397  -1.13356  -1.13329  -1.12887
  Beta  occ. eigenvalues --   -1.12849  -1.12826  -1.12308  -1.12271  -1.12259
  Beta  occ. eigenvalues --   -0.17296  -0.13595  -0.11432
  Beta virt. eigenvalues --   -0.06870  -0.06609  -0.05541  -0.03987  -0.02998
  Beta virt. eigenvalues --   -0.02191  -0.01944  -0.01612  -0.01190  -0.00643
  Beta virt. eigenvalues --   -0.00218   0.00048   0.00290   0.00671   0.00706

 Mulliken charges and spin densities:
               1          2
     1  Na   0.292290   0.057635
     2  Na   0.004929   0.340296
     3  Na  -0.177605   0.564619
     4  Na  -0.126637   0.020021
     5  Na  -0.086080  -0.056148
     6  Na   0.099223  -0.003595
     7  Na  -0.006119   0.077173
 Sum of Mulliken charges =  -0.00000   1.00000

 Dipole moment (field-independent basis, Debye):
    X=              1.1563    Y=             -0.5110    Z=             -0.1395  Tot=              1.2718
 Quadrupole moment (field-independent basis, Debye-Ang):
   XX=            -50.9153   YY=            -69.2970   ZZ=            -74.5638
   XY=             -0.4896   XZ=              1.4340   YZ=             -0.1579

 Normal termination of Gaussian 16 at Mon Dec  4 04:52:26 2023.
