 Gaussian 16, Revision B.01,
 Gaussian 16:  ES64L-G16RevB.01 20-Dec-2017

 -------------------------
 #P B3LYP/6-311+g(d) force
 -------------------------

 -----
 DPGEN
 -----
 Symbolic Z-matrix:
 Charge =  0 Multiplicity = 2

                         Standard orientation:
 ---------------------------------------------------------------------
 Center     Atomic      Atomic             Coordinates (Angstroms)
 Number     Number       Type             X           Y           Z
 ---------------------------------------------------------------------
      1         11           0       -1.730202   -1.579685   -1.065361
      2         11           0       -0.959377    0.374449    1.620127
      3         11           0        1.498712   -2.424903   -0.458355
      4         11           0        4.936133   -0.261546    0.558481
      5         11           0        2.028308    1.989560   -0.315369
      6         11           0       -1.354959    2.258947   -1.050815
      7         11           0       -4.418615   -0.356823    0.711291
 ---------------------------------------------------------------------

 SCF Done:  E(UB3LYP) =  -1136.11830275     A.U. after   21 cycles

 The electronic state is 2-A.
 Alpha  occ. eigenvalues --  -38.46075 -38.44230 -38.44218 -38.43814 -38.43777
 Alpha  occ. eigenvalues --  -38.43748 -38.43418  -2.21904  -2.20053  -2.19992
 Alpha  occ. eigenvalues --   -2.19650  -2.19644  -2.19529  -2.19197  -1.15598
 Alpha  occ. eigenvalues --   -1.15565  -1.15517  -1.13714  -1.13692  -1.13669
 Alpha  occ. eigenvalues --   -1.13646  -1.13633  -1.13603  -1.13336  -1.13330
 Alpha  occ. eigenvalues --   -1.13319  -1.13312  -1.13275  -1.13267  -1.13236
 Alpha  occ. eigenvalues --   -1.13208  -1.13132  -1.12882  -1.12867  -1.12816
 Alpha  occ. eigenvalues --   -0.17512  -0.13635  -0.11728  -0.10877
 Alpha virt. eigenvalues --   -0.06996  -0.05317  -0.04874  -0.03242  -0.02856
 Alpha virt. eigenvalues --   -0.02420  -0.01789  -0.01671  -0.01363  -0.00669
 Alpha virt. eigenvalues --   -0.00390  -0.00032   0.00263   0.00482   0.00637

  Beta  occ. eigenvalues --  -38.46070 -38.44158 -38.44136 -38.43809 -38.43752
  Beta  occ. eigenvalues --  -38.43749 -38.43396  -2.21898  -2.19919  -2.19839
  Beta  occ. eigenvalues --   -2.19640  -2.19607  -2.19535  -2.19163  -1.15592
  Beta  occ. eigenvalues --   -1.15557  -1.15508  -1.13621  -1.13602  -1.13582
  Beta  occ. eigenvalues --   -1.13542  -1.13526  -1.13505  -1.13320  -1.13312
  Beta  occ. eigenvalues --   -1.13307  -1.13289  -1.13268  -1.13242  -1.13214
  Beta  occ. eigenvalues --   -1.13209  -1.13116  -1.12862  -1.12841  -1.12775
  Beta  occ. eigenvalues --   -0.17090  -0.12853  -0.11338
  Beta virt. eigenvalues --   -0.07486  -0.06865  -0.05196  -0.04282  -0.03029
  Beta virt. eigenvalues --   -0.02595  -0.02145  -0.01467  -0.01374  -0.00936
  Beta virt. eigenvalues --   -0.00388  -0.00233   0.00063   0.00381   0.00611

 Mulliken charges and spin densities:
               1          2
     1  Na  -0.105370   0.051587
     2  Na  -0.204780  -0.040389
     3  Na  -0.159802   0.043209
     4  Na   0.114920   0.430341
     5  Na  -0.207704   0.077191
     6  Na   0.147536   0.030696
     7  Na   0.415199   0.407365
 Sum of Mulliken charges =  -0.00000   1.00000

 Dipole moment (field-independent basis, Debye):
    X=             -1.2118    Y=              0.4656    Z=              0.3287  Tot=              1.3391
 Quadrupole moment (field-independent basis, Debye-Ang):
   XX=            -63.1672   YY=            -76.8720   ZZ=            -63.1813
   XY=             -2.3223   XZ=              2.8018   YZ=             -1.5738

 Normal termination of Gaussian 16 at Mon Dec  4 03:16:35 2023.
