 Gaussian 16, Revision B.01,
 Gaussian 16:  ES64L-G16RevB.01 20-Dec-2017

 -------------------------
 #P B3LYP/6-311+g(d) force
 -------------------------

 -----
 DPGEN
 -----
 Symbolic Z-matrix:
 Charge =  0 Multiplicity = 2

                         Standard orientation:
 ---------------------------------------------------------------------
 Center     Atomic      Atomic             Coordinates (Angstroms)
 Number     Number       Type             X           Y           Z
 ---------------------------------------------------------------------
      1         11           0        3.334381    0.100328   -0.421963
      2         11           0       -0.070549   -0.130486   -1.614059
      3         11           0       -0.791445   -0.164983    2.009748
      4         11           0        1.130764   -2.400455    0.352454
      5         11           0       -2.471207    2.067664   -0.429132
      6         11           0       -2.307695   -1.931693   -0.374244
      7         11           0        1.175749    2.459627    0.477196
 ---------------------------------------------------------------------

 SCF Done:  E(UB3LYP) =  -1136.13704173     A.U. after   19 cycles

 The electronic state is 2-A.
 Alpha  occ. eigenvalues --  -38.43872 -38.43841 -38.43784 -38.43503 -38.43488
 Alpha  occ. eigenvalues --  -38.43324 -38.43257  -2.19720  -2.19677  -2.19618
 Alpha  occ. eigenvalues --   -2.19421  -2.19328  -2.19251  -2.19217  -1.13438
 Alpha  occ. eigenvalues --   -1.13393  -1.13360  -1.13336  -1.13326  -1.13315
 Alpha  occ. eigenvalues --   -1.13286  -1.13281  -1.13273  -1.13100  -1.13055
 Alpha  occ. eigenvalues --   -1.13038  -1.13006  -1.12997  -1.12977  -1.12947
 Alpha  occ. eigenvalues --   -1.12902  -1.12886  -1.12879  -1.12836  -1.12823
 Alpha  occ. eigenvalues --   -0.18731  -0.13061  -0.12380  -0.10905
 Alpha virt. eigenvalues --   -0.05477  -0.05451  -0.04391  -0.03181  -0.02992
 Alpha virt. eigenvalues --   -0.02602  -0.01532  -0.01201  -0.00364  -0.00045
 Alpha virt. eigenvalues --    0.00013   0.00346   0.00798   0.00848   0.00889

  Beta  occ. eigenvalues --  -38.43866 -38.43829 -38.43782 -38.43480 -38.43412
  Beta  occ. eigenvalues --  -38.43314 -38.43195  -2.19704  -2.19668  -2.19616
  Beta  occ. eigenvalues --   -2.19315  -2.19254  -2.19202  -2.19139  -1.13420
  Beta  occ. eigenvalues --   -1.13362  -1.13341  -1.13328  -1.13316  -1.13304
  Beta  occ. eigenvalues --   -1.13287  -1.13274  -1.13267  -1.13012  -1.12989
  Beta  occ. eigenvalues --   -1.12973  -1.12945  -1.12938  -1.12933  -1.12906
  Beta  occ. eigenvalues --   -1.12848  -1.12836  -1.12814  -1.12797  -1.12767
  Beta  occ. eigenvalues --   -0.18003  -0.12836  -0.12142
  Beta virt. eigenvalues --   -0.06962  -0.05461  -0.05362  -0.04329  -0.02518
  Beta virt. eigenvalues --   -0.02215  -0.01546  -0.01441  -0.01159  -0.00299
  Beta virt. eigenvalues --   -0.00081   0.00127   0.00385   0.00852   0.00872

 Mulliken charges and spin densities:
               1          2
     1  Na   0.058560  -0.027981
     2  Na  -0.221849   0.495994
     3  Na  -0.235091   0.574796
     4  Na   0.194490   0.056289
     5  Na  -0.035284  -0.057858
     6  Na   0.269557  -0.055037
     7  Na  -0.030382   0.013798
 Sum of Mulliken charges =  -0.00000   1.00000

 Dipole moment (field-independent basis, Debye):
    X=             -0.2430    Y=              0.0067    Z=              0.0393  Tot=              0.2463
 Quadrupole moment (field-independent basis, Debye-Ang):
   XX=            -55.6212   YY=            -64.5091   ZZ=            -73.2092
   XY=             -0.0721   XZ=              0.7791   YZ=              0.0025

 Normal termination of Gaussian 16 at Thu Dec  7 05:17:28 2023.
