 Gaussian 16, Revision B.01,
 Gaussian 16:  ES64L-G16RevB.01 20-Dec-2017

 -------------------------
 #P B3LYP/6-311+g(d) force
 -------------------------

 -----
 DPGEN
 -----
 Symbolic Z-matrix:
 Charge =  0 Multiplicity = 2

                         Standard orientation:
 ---------------------------------------------------------------------
 Center     Atomic      Atomic             Coordinates (Angstroms)
 Number     Number       Type             X           Y           Z
 ---------------------------------------------------------------------
      1         11           0       -2.770198   -1.022266    1.241549
      2         11           0        2.441675   -0.770391   -1.608571
      3         11           0        0.425207    2.067344   -0.602500
      4         11           0        0.556567   -1.171831    1.642707
      5         11           0       -2.757308    1.850560   -0.531887
      6         11           0       -0.744086   -1.848531   -1.571369
      7         11           0        2.848143    0.895115    1.430071
 ---------------------------------------------------------------------

 SCF Done:  E(UB3LYP) =  -1136.12841276     A.U. after   22 cycles

 The electronic state is 2-A.
 Alpha  occ. eigenvalues --  -38.44589 -38.44319 -38.44209 -38.43933 -38.43789
 Alpha  occ. eigenvalues --  -38.43180 -38.42974  -2.20449  -2.20207  -2.20051
 Alpha  occ. eigenvalues --   -2.19775  -2.19704  -2.19007  -2.18837  -1.14133
 Alpha  occ. eigenvalues --   -1.14089  -1.14073  -1.13920  -1.13841  -1.13820
 Alpha  occ. eigenvalues --   -1.13740  -1.13698  -1.13680  -1.13462  -1.13421
 Alpha  occ. eigenvalues --   -1.13404  -1.13369  -1.13339  -1.13330  -1.12710
 Alpha  occ. eigenvalues --   -1.12669  -1.12649  -1.12518  -1.12512  -1.12448
 Alpha  occ. eigenvalues --   -0.18411  -0.13697  -0.12044  -0.11469
 Alpha virt. eigenvalues --   -0.05859  -0.05185  -0.04889  -0.03552  -0.03065
 Alpha virt. eigenvalues --   -0.02640  -0.01713  -0.00852  -0.00607   0.00083
 Alpha virt. eigenvalues --    0.00233   0.00313   0.00353   0.00469   0.00805

  Beta  occ. eigenvalues --  -38.44537 -38.44278 -38.44189 -38.43895 -38.43735
  Beta  occ. eigenvalues --  -38.43182 -38.42962  -2.20356  -2.20135  -2.20014
  Beta  occ. eigenvalues --   -2.19709  -2.19607  -2.19011  -2.18817  -1.14056
  Beta  occ. eigenvalues --   -1.14029  -1.14002  -1.13855  -1.13793  -1.13771
  Beta  occ. eigenvalues --   -1.13704  -1.13676  -1.13659  -1.13417  -1.13377
  Beta  occ. eigenvalues --   -1.13339  -1.13307  -1.13270  -1.13248  -1.12709
  Beta  occ. eigenvalues --   -1.12669  -1.12654  -1.12502  -1.12483  -1.12441
  Beta  occ. eigenvalues --   -0.17692  -0.13511  -0.11265
  Beta virt. eigenvalues --   -0.08014  -0.05710  -0.04867  -0.04405  -0.03240
  Beta virt. eigenvalues --   -0.02432  -0.01972  -0.01608  -0.00550  -0.00409
  Beta virt. eigenvalues --    0.00211   0.00315   0.00365   0.00485   0.00562

 Mulliken charges and spin densities:
               1          2
     1  Na   0.507811   0.131339
     2  Na   0.188269   0.089498
     3  Na  -0.825734   0.319305
     4  Na  -0.907379   0.334668
     5  Na  -0.050846  -0.189247
     6  Na  -0.115733   0.281338
     7  Na   1.203611   0.033099
 Sum of Mulliken charges =  -0.00000   1.00000

 Dipole moment (field-independent basis, Debye):
    X=              0.5815    Y=             -0.5881    Z=              0.0664  Tot=              0.8297
 Quadrupole moment (field-independent basis, Debye-Ang):
   XX=            -53.7447   YY=            -77.3271   ZZ=            -65.5425
   XY=              2.6325   XZ=             -0.9232   YZ=              1.9578

 Normal termination of Gaussian 16 at Sun Dec  3 19:29:12 2023.
