 Gaussian 16, Revision B.01,
 Gaussian 16:  ES64L-G16RevB.01 20-Dec-2017

 -------------------------
 #P B3LYP/6-311+g(d) force
 -------------------------

 -----
 DPGEN
 -----
 Symbolic Z-matrix:
 Charge =  0 Multiplicity = 2

                         Standard orientation:
 ---------------------------------------------------------------------
 Center     Atomic      Atomic             Coordinates (Angstroms)
 Number     Number       Type             X           Y           Z
 ---------------------------------------------------------------------
      1         11           0       -2.198790   -1.046546    1.980888
      2         11           0       -1.750584   -1.243263   -1.568808
      3         11           0        1.069212   -2.439757    0.423399
      4         11           0        2.646544   -0.393677   -1.530569
      5         11           0        0.134394    1.020852    0.585535
      6         11           0        3.382045    1.875979    0.823452
      7         11           0       -3.282821    2.226411   -0.713898
 ---------------------------------------------------------------------

 SCF Done:  E(UB3LYP) =  -1136.12506606     A.U. after   22 cycles

 The electronic state is 2-A.
 Alpha  occ. eigenvalues --  -38.44488 -38.44410 -38.44259 -38.43989 -38.43800
 Alpha  occ. eigenvalues --  -38.43428 -38.43278  -2.20305  -2.20241  -2.20118
 Alpha  occ. eigenvalues --   -2.19747  -2.19617  -2.19329  -2.19123  -1.14001
 Alpha  occ. eigenvalues --   -1.13976  -1.13919  -1.13900  -1.13870  -1.13843
 Alpha  occ. eigenvalues --   -1.13800  -1.13792  -1.13731  -1.13417  -1.13409
 Alpha  occ. eigenvalues --   -1.13370  -1.13288  -1.13269  -1.13255  -1.13048
 Alpha  occ. eigenvalues --   -1.13006  -1.12934  -1.12808  -1.12785  -1.12759
 Alpha  occ. eigenvalues --   -0.17829  -0.13668  -0.11413  -0.10803
 Alpha virt. eigenvalues --   -0.05979  -0.05747  -0.04989  -0.03082  -0.02648
 Alpha virt. eigenvalues --   -0.02416  -0.01929  -0.01381  -0.00926  -0.00272
 Alpha virt. eigenvalues --    0.00013   0.00194   0.00268   0.00324   0.00693

  Beta  occ. eigenvalues --  -38.44455 -38.44338 -38.44236 -38.43967 -38.43790
  Beta  occ. eigenvalues --  -38.43408 -38.43277  -2.20243  -2.20108  -2.20076
  Beta  occ. eigenvalues --   -2.19707  -2.19599  -2.19297  -2.19126  -1.13956
  Beta  occ. eigenvalues --   -1.13926  -1.13853  -1.13819  -1.13785  -1.13775
  Beta  occ. eigenvalues --   -1.13763  -1.13750  -1.13694  -1.13389  -1.13375
  Beta  occ. eigenvalues --   -1.13346  -1.13270  -1.13257  -1.13245  -1.13002
  Beta  occ. eigenvalues --   -1.12977  -1.12918  -1.12814  -1.12770  -1.12750
  Beta  occ. eigenvalues --   -0.17235  -0.13376  -0.11132
  Beta virt. eigenvalues --   -0.07244  -0.05746  -0.05470  -0.04536  -0.02896
  Beta virt. eigenvalues --   -0.02239  -0.01945  -0.01526  -0.01201  -0.00488
  Beta virt. eigenvalues --   -0.00176   0.00157   0.00280   0.00326   0.00446

 Mulliken charges and spin densities:
               1          2
     1  Na   0.264500   0.145545
     2  Na  -0.049018   0.363495
     3  Na   0.299708   0.085944
     4  Na   0.380830   0.069057
     5  Na  -0.972031   0.370035
     6  Na  -0.078341  -0.053125
     7  Na   0.154352   0.019049
 Sum of Mulliken charges =  -0.00000   1.00000

 Dipole moment (field-independent basis, Debye):
    X=              0.0528    Y=             -0.4310    Z=             -0.0543  Tot=              0.4377
 Quadrupole moment (field-independent basis, Debye-Ang):
   XX=            -55.3820   YY=            -70.7399   ZZ=            -67.6608
   XY=              1.1149   XZ=             -1.1054   YZ=             -0.4000

 Normal termination of Gaussian 16 at Wed Dec  6 00:06:51 2023.
