 Gaussian 16, Revision B.01,
 Gaussian 16:  ES64L-G16RevB.01 20-Dec-2017

 -------------------------
 #P B3LYP/6-311+g(d) force
 -------------------------

 -----
 DPGEN
 -----
 Symbolic Z-matrix:
 Charge =  0 Multiplicity = 2

                         Standard orientation:
 ---------------------------------------------------------------------
 Center     Atomic      Atomic             Coordinates (Angstroms)
 Number     Number       Type             X           Y           Z
 ---------------------------------------------------------------------
      1         11           0       -3.130968    0.805112   -1.246768
      2         11           0        0.455742   -0.894857   -1.620019
      3         11           0       -2.383083   -1.849538    0.381288
      4         11           0        0.902556   -0.821549    1.684246
      5         11           0       -1.485182    1.508192    1.422475
      6         11           0        3.708587   -0.516879   -0.261065
      7         11           0        1.932348    1.769519   -0.360156
 ---------------------------------------------------------------------

 SCF Done:  E(UB3LYP) =  -1136.11708057     A.U. after   33 cycles

 The electronic state is 2-A.
 Alpha  occ. eigenvalues --  -38.45380 -38.44763 -38.44071 -38.43878 -38.43839
 Alpha  occ. eigenvalues --  -38.43808 -38.42297  -2.21260  -2.20624  -2.19998
 Alpha  occ. eigenvalues --   -2.19829  -2.19697  -2.19692  -2.18178  -1.14997
 Alpha  occ. eigenvalues --   -1.14915  -1.14873  -1.14297  -1.14269  -1.14245
 Alpha  occ. eigenvalues --   -1.13698  -1.13668  -1.13598  -1.13533  -1.13467
 Alpha  occ. eigenvalues --   -1.13429  -1.13385  -1.13370  -1.13366  -1.13355
 Alpha  occ. eigenvalues --   -1.13339  -1.13271  -1.11867  -1.11855  -1.11805
 Alpha  occ. eigenvalues --   -0.18895  -0.14762  -0.11413  -0.10561
 Alpha virt. eigenvalues --   -0.06974  -0.05503  -0.04620  -0.03071  -0.02759
 Alpha virt. eigenvalues --   -0.02349  -0.02332  -0.01010  -0.00621  -0.00217
 Alpha virt. eigenvalues --    0.00115   0.00236   0.00324   0.00647   0.00774

  Beta  occ. eigenvalues --  -38.45384 -38.44715 -38.44054 -38.43831 -38.43792
  Beta  occ. eigenvalues --  -38.43773 -38.42287  -2.21272  -2.20534  -2.19967
  Beta  occ. eigenvalues --   -2.19687  -2.19672  -2.19631  -2.18163  -1.14999
  Beta  occ. eigenvalues --   -1.14912  -1.14880  -1.14241  -1.14209  -1.14177
  Beta  occ. eigenvalues --   -1.13675  -1.13650  -1.13566  -1.13439  -1.13365
  Beta  occ. eigenvalues --   -1.13361  -1.13342  -1.13336  -1.13324  -1.13307
  Beta  occ. eigenvalues --   -1.13283  -1.13231  -1.11853  -1.11814  -1.11806
  Beta  occ. eigenvalues --   -0.18200  -0.14428  -0.10376
  Beta virt. eigenvalues --   -0.07606  -0.06778  -0.05073  -0.04245  -0.02734
  Beta virt. eigenvalues --   -0.02555  -0.01763  -0.01701  -0.00743  -0.00415
  Beta virt. eigenvalues --   -0.00115   0.00186   0.00277   0.00402   0.00721

 Mulliken charges and spin densities:
               1          2
     1  Na   0.109713   0.121317
     2  Na  -0.406230   0.312252
     3  Na   0.142725   0.000104
     4  Na  -0.402901   0.393330
     5  Na  -0.052718   0.159960
     6  Na   1.030623  -0.030267
     7  Na  -0.421212   0.043305
 Sum of Mulliken charges =  -0.00000   1.00000

 Dipole moment (field-independent basis, Debye):
    X=              0.9908    Y=             -0.2406    Z=             -0.3202  Tot=              1.0687
 Quadrupole moment (field-independent basis, Debye-Ang):
   XX=            -47.4285   YY=            -76.1454   ZZ=            -71.1757
   XY=             -1.0582   XZ=              1.2619   YZ=             -8.0475

 Normal termination of Gaussian 16 at Thu Dec  7 02:44:07 2023.
