 Gaussian 16, Revision B.01,
 Gaussian 16:  ES64L-G16RevB.01 20-Dec-2017

 -------------------------
 #P B3LYP/6-311+g(d) force
 -------------------------

 -----
 DPGEN
 -----
 Symbolic Z-matrix:
 Charge =  0 Multiplicity = 2

                         Standard orientation:
 ---------------------------------------------------------------------
 Center     Atomic      Atomic             Coordinates (Angstroms)
 Number     Number       Type             X           Y           Z
 ---------------------------------------------------------------------
      1         11           0       -3.383700   -0.165741   -0.006277
      2         11           0       -0.367693    0.173374   -1.423869
      3         11           0        0.432031   -0.344816    2.140828
      4         11           0       -1.021854    2.627623    0.255311
      5         11           0       -0.636682   -2.779724   -0.362202
      6         11           0        2.294581    1.918424   -0.464986
      7         11           0        2.683316   -1.429139   -0.138805
 ---------------------------------------------------------------------

 SCF Done:  E(UB3LYP) =  -1136.13628264     A.U. after   20 cycles

 The electronic state is 2-A.
 Alpha  occ. eigenvalues --  -38.44365 -38.43785 -38.43584 -38.43480 -38.43457
 Alpha  occ. eigenvalues --  -38.43420 -38.42963  -2.20163  -2.19641  -2.19464
 Alpha  occ. eigenvalues --   -2.19343  -2.19312  -2.19295  -2.19005  -1.13843
 Alpha  occ. eigenvalues --   -1.13818  -1.13803  -1.13326  -1.13308  -1.13285
 Alpha  occ. eigenvalues --   -1.13123  -1.13088  -1.13082  -1.13068  -1.13034
 Alpha  occ. eigenvalues --   -1.13023  -1.12993  -1.12984  -1.12968  -1.12948
 Alpha  occ. eigenvalues --   -1.12920  -1.12895  -1.12679  -1.12641  -1.12610
 Alpha  occ. eigenvalues --   -0.18692  -0.13020  -0.12519  -0.10668
 Alpha virt. eigenvalues --   -0.05851  -0.05020  -0.04640  -0.03146  -0.02856
 Alpha virt. eigenvalues --   -0.02469  -0.01701  -0.01060  -0.00364  -0.00296
 Alpha virt. eigenvalues --   -0.00015   0.00335   0.00794   0.00865   0.00899

  Beta  occ. eigenvalues --  -38.44367 -38.43779 -38.43483 -38.43468 -38.43447
  Beta  occ. eigenvalues --  -38.43413 -38.42914  -2.20168  -2.19634  -2.19325
  Beta  occ. eigenvalues --   -2.19298  -2.19286  -2.19275  -2.18917  -1.13838
  Beta  occ. eigenvalues --   -1.13818  -1.13807  -1.13319  -1.13284  -1.13276
  Beta  occ. eigenvalues --   -1.13057  -1.13026  -1.13005  -1.12994  -1.12976
  Beta  occ. eigenvalues --   -1.12969  -1.12957  -1.12952  -1.12933  -1.12918
  Beta  occ. eigenvalues --   -1.12912  -1.12891  -1.12614  -1.12581  -1.12544
  Beta  occ. eigenvalues --   -0.17981  -0.12809  -0.12274
  Beta virt. eigenvalues --   -0.06733  -0.05807  -0.05002  -0.04580  -0.02393
  Beta virt. eigenvalues --   -0.02109  -0.01634  -0.01387  -0.00996  -0.00404
  Beta virt. eigenvalues --   -0.00308   0.00145   0.00375   0.00848   0.00869

 Mulliken charges and spin densities:
               1          2
     1  Na   0.110058  -0.035353
     2  Na  -0.335208   0.230256
     3  Na  -0.613344   0.736087
     4  Na   0.149174   0.065025
     5  Na   0.147105  -0.067716
     6  Na   0.203674   0.036192
     7  Na   0.338541   0.035508
 Sum of Mulliken charges =  -0.00000   1.00000

 Dipole moment (field-independent basis, Debye):
    X=             -0.2965    Y=             -0.1228    Z=              0.2286  Tot=              0.3940
 Quadrupole moment (field-independent basis, Debye-Ang):
   XX=            -54.5580   YY=            -63.4180   ZZ=            -74.7179
   XY=              0.0235   XZ=             -1.8533   YZ=              1.0038

 Normal termination of Gaussian 16 at Thu Dec  7 10:51:58 2023.
