 Gaussian 16, Revision B.01,
 Gaussian 16:  ES64L-G16RevB.01 20-Dec-2017

 -------------------------
 #P B3LYP/6-311+g(d) force
 -------------------------

 -----
 DPGEN
 -----
 Symbolic Z-matrix:
 Charge =  0 Multiplicity = 2

                         Standard orientation:
 ---------------------------------------------------------------------
 Center     Atomic      Atomic             Coordinates (Angstroms)
 Number     Number       Type             X           Y           Z
 ---------------------------------------------------------------------
      1         11           0        1.549014   -1.809607    1.085266
      2         11           0       -3.091408   -1.007110   -1.458109
      3         11           0        3.398162   -0.438306   -1.342812
      4         11           0       -1.801375    2.207535   -0.231609
      5         11           0        0.205043    0.117694   -1.241842
      6         11           0        1.852902    1.789465    1.247914
      7         11           0       -2.112337   -0.859671    1.941194
 ---------------------------------------------------------------------

 SCF Done:  E(UB3LYP) =  -1136.12216216     A.U. after   24 cycles

 The electronic state is 2-A.
 Alpha  occ. eigenvalues --  -38.44742 -38.44588 -38.44261 -38.43881 -38.43533
 Alpha  occ. eigenvalues --  -38.43367 -38.43062  -2.20595  -2.20400  -2.20061
 Alpha  occ. eigenvalues --   -2.19706  -2.19389  -2.19375  -2.18911  -1.14279
 Alpha  occ. eigenvalues --   -1.14225  -1.14218  -1.14079  -1.14035  -1.14033
 Alpha  occ. eigenvalues --   -1.13721  -1.13711  -1.13693  -1.13390  -1.13361
 Alpha  occ. eigenvalues --   -1.13321  -1.13130  -1.13087  -1.13056  -1.13026
 Alpha  occ. eigenvalues --   -1.12999  -1.12995  -1.12609  -1.12578  -1.12511
 Alpha  occ. eigenvalues --   -0.18258  -0.14105  -0.11296  -0.10719
 Alpha virt. eigenvalues --   -0.06069  -0.05840  -0.04849  -0.03144  -0.02568
 Alpha virt. eigenvalues --   -0.02383  -0.02113  -0.01318  -0.00610  -0.00198
 Alpha virt. eigenvalues --    0.00199   0.00254   0.00395   0.00465   0.00560

  Beta  occ. eigenvalues --  -38.44707 -38.44559 -38.44221 -38.43847 -38.43516
  Beta  occ. eigenvalues --  -38.43335 -38.43064  -2.20530  -2.20349  -2.19987
  Beta  occ. eigenvalues --   -2.19644  -2.19360  -2.19321  -2.18917  -1.14226
  Beta  occ. eigenvalues --   -1.14186  -1.14175  -1.14038  -1.14004  -1.13995
  Beta  occ. eigenvalues --   -1.13667  -1.13660  -1.13639  -1.13343  -1.13311
  Beta  occ. eigenvalues --   -1.13281  -1.13107  -1.13035  -1.13022  -1.12991
  Beta  occ. eigenvalues --   -1.12966  -1.12957  -1.12609  -1.12575  -1.12509
  Beta  occ. eigenvalues --   -0.17589  -0.13842  -0.10501
  Beta virt. eigenvalues --   -0.07645  -0.05861  -0.05167  -0.04683  -0.02856
  Beta virt. eigenvalues --   -0.02086  -0.02034  -0.01659  -0.00853  -0.00500
  Beta virt. eigenvalues --   -0.00009   0.00279   0.00340   0.00473   0.00564

 Mulliken charges and spin densities:
               1          2
     1  Na  -0.301962   0.174154
     2  Na   0.226817   0.048056
     3  Na   0.854906   0.045878
     4  Na   0.054602   0.069797
     5  Na  -0.506252   0.113243
     6  Na  -0.226429   0.346054
     7  Na  -0.101682   0.202817
 Sum of Mulliken charges =  -0.00000   1.00000

 Dipole moment (field-independent basis, Debye):
    X=              0.3272    Y=             -0.0141    Z=             -0.1822  Tot=              0.3748
 Quadrupole moment (field-independent basis, Debye-Ang):
   XX=            -49.7528   YY=            -78.1102   ZZ=            -65.3067
   XY=              0.3525   XZ=             -0.1258   YZ=              3.4945

 Normal termination of Gaussian 16 at Tue Dec  5 19:47:16 2023.
