 Gaussian 16, Revision B.01,
 Gaussian 16:  ES64L-G16RevB.01 20-Dec-2017

 -------------------------
 #P B3LYP/6-311+g(d) force
 -------------------------

 -----
 DPGEN
 -----
 Symbolic Z-matrix:
 Charge =  0 Multiplicity = 2

                         Standard orientation:
 ---------------------------------------------------------------------
 Center     Atomic      Atomic             Coordinates (Angstroms)
 Number     Number       Type             X           Y           Z
 ---------------------------------------------------------------------
      1         11           0       -2.998749   -1.371158   -0.003493
      2         11           0        0.606319   -2.465595    0.228014
      3         11           0        2.101007    2.313142    0.450534
      4         11           0       -2.531943    1.864286   -0.301043
      5         11           0       -0.160555    0.273034   -1.692068
      6         11           0        3.467496   -0.761671   -0.377571
      7         11           0       -0.483575    0.147962    1.695628
 ---------------------------------------------------------------------

 SCF Done:  E(UB3LYP) =  -1136.12841015     A.U. after   22 cycles

 The electronic state is 2-A.
 Alpha  occ. eigenvalues --  -38.44839 -38.44619 -38.43932 -38.43736 -38.43658
 Alpha  occ. eigenvalues --  -38.43152 -38.42649  -2.20638  -2.20468  -2.19817
 Alpha  occ. eigenvalues --   -2.19670  -2.19462  -2.19134  -2.18534  -1.14308
 Alpha  occ. eigenvalues --   -1.14294  -1.14279  -1.14146  -1.14129  -1.14106
 Alpha  occ. eigenvalues --   -1.13532  -1.13480  -1.13445  -1.13369  -1.13297
 Alpha  occ. eigenvalues --   -1.13271  -1.13135  -1.13119  -1.13105  -1.12831
 Alpha  occ. eigenvalues --   -1.12777  -1.12732  -1.12238  -1.12202  -1.12146
 Alpha  occ. eigenvalues --   -0.18723  -0.13805  -0.11707  -0.10485
 Alpha virt. eigenvalues --   -0.06586  -0.05678  -0.03925  -0.03323  -0.02466
 Alpha virt. eigenvalues --   -0.02268  -0.02191  -0.01411  -0.00544  -0.00104
 Alpha virt. eigenvalues --   -0.00047   0.00260   0.00631   0.00753   0.00773

  Beta  occ. eigenvalues --  -38.44834 -38.44613 -38.43920 -38.43674 -38.43649
  Beta  occ. eigenvalues --  -38.43070 -38.42642  -2.20630  -2.20460  -2.19798
  Beta  occ. eigenvalues --   -2.19557  -2.19447  -2.18984  -2.18525  -1.14298
  Beta  occ. eigenvalues --   -1.14285  -1.14274  -1.14142  -1.14113  -1.14089
  Beta  occ. eigenvalues --   -1.13510  -1.13453  -1.13423  -1.13291  -1.13220
  Beta  occ. eigenvalues --   -1.13188  -1.13115  -1.13104  -1.13095  -1.12729
  Beta  occ. eigenvalues --   -1.12675  -1.12617  -1.12232  -1.12176  -1.12134
  Beta  occ. eigenvalues --   -0.18024  -0.13574  -0.11418
  Beta virt. eigenvalues --   -0.06699  -0.06438  -0.05635  -0.03812  -0.02713
  Beta virt. eigenvalues --   -0.02173  -0.01730  -0.01387  -0.01152  -0.00556
  Beta virt. eigenvalues --   -0.00096   0.00095   0.00303   0.00709   0.00771

 Mulliken charges and spin densities:
               1          2
     1  Na   0.195045   0.000257
     2  Na  -0.114551  -0.049555
     3  Na   0.026965  -0.025899
     4  Na   0.330954   0.050746
     5  Na  -0.323036   0.455199
     6  Na   0.008740   0.003418
     7  Na  -0.124119   0.565834
 Sum of Mulliken charges =  -0.00000   1.00000

 Dipole moment (field-independent basis, Debye):
    X=             -0.1423    Y=             -0.0085    Z=             -0.1411  Tot=              0.2006
 Quadrupole moment (field-independent basis, Debye-Ang):
   XX=            -47.4646   YY=            -68.7629   ZZ=            -75.6481
   XY=              0.5159   XZ=             -0.3713   YZ=              0.7246

 Normal termination of Gaussian 16 at Tue Dec  5 18:54:48 2023.
