 Gaussian 16, Revision B.01,
 Gaussian 16:  ES64L-G16RevB.01 20-Dec-2017

 -------------------------
 #P B3LYP/6-311+g(d) force
 -------------------------

 -----
 DPGEN
 -----
 Symbolic Z-matrix:
 Charge =  0 Multiplicity = 2

                         Standard orientation:
 ---------------------------------------------------------------------
 Center     Atomic      Atomic             Coordinates (Angstroms)
 Number     Number       Type             X           Y           Z
 ---------------------------------------------------------------------
      1         11           0       -3.195099   -0.986386   -0.304322
      2         11           0       -0.217271   -0.047860    2.106886
      3         11           0        3.168753   -0.649700   -0.002094
      4         11           0        1.683875    2.313127   -0.385726
      5         11           0        0.524923   -2.731787    0.091681
      6         11           0       -0.341243   -0.116787   -1.834333
      7         11           0       -1.623938    2.219392    0.327909
 ---------------------------------------------------------------------

 SCF Done:  E(UB3LYP) =  -1136.13672999     A.U. after   19 cycles

 The electronic state is 2-A.
 Alpha  occ. eigenvalues --  -38.44311 -38.44076 -38.43937 -38.43652 -38.43300
 Alpha  occ. eigenvalues --  -38.43234 -38.43087  -2.20116  -2.19899  -2.19831
 Alpha  occ. eigenvalues --   -2.19586  -2.19194  -2.19089  -2.18948  -1.13800
 Alpha  occ. eigenvalues --   -1.13764  -1.13757  -1.13568  -1.13562  -1.13551
 Alpha  occ. eigenvalues --   -1.13503  -1.13472  -1.13442  -1.13265  -1.13234
 Alpha  occ. eigenvalues --   -1.13205  -1.12888  -1.12859  -1.12814  -1.12773
 Alpha  occ. eigenvalues --   -1.12765  -1.12706  -1.12623  -1.12606  -1.12586
 Alpha  occ. eigenvalues --   -0.18630  -0.13055  -0.12264  -0.11149
 Alpha virt. eigenvalues --   -0.05928  -0.04932  -0.04342  -0.03345  -0.03011
 Alpha virt. eigenvalues --   -0.02900  -0.01746  -0.00924  -0.00227  -0.00166
 Alpha virt. eigenvalues --   -0.00024   0.00341   0.00803   0.00869   0.00897

  Beta  occ. eigenvalues --  -38.44305 -38.44078 -38.43839 -38.43582 -38.43288
  Beta  occ. eigenvalues --  -38.43228 -38.43081  -2.20107  -2.19903  -2.19652
  Beta  occ. eigenvalues --   -2.19458  -2.19177  -2.19082  -2.18939  -1.13779
  Beta  occ. eigenvalues --   -1.13756  -1.13751  -1.13573  -1.13558  -1.13547
  Beta  occ. eigenvalues --   -1.13384  -1.13340  -1.13319  -1.13181  -1.13145
  Beta  occ. eigenvalues --   -1.13108  -1.12872  -1.12818  -1.12807  -1.12770
  Beta  occ. eigenvalues --   -1.12734  -1.12704  -1.12613  -1.12596  -1.12573
  Beta  occ. eigenvalues --   -0.17881  -0.12833  -0.12009
  Beta virt. eigenvalues --   -0.07212  -0.05874  -0.04903  -0.04303  -0.02580
  Beta virt. eigenvalues --   -0.02206  -0.01856  -0.01650  -0.00860  -0.00273
  Beta virt. eigenvalues --   -0.00155   0.00082   0.00368   0.00865   0.00895

 Mulliken charges and spin densities:
               1          2
     1  Na   0.191541  -0.101459
     2  Na  -0.338999   0.604645
     3  Na  -0.034963  -0.054772
     4  Na   0.082985  -0.036830
     5  Na   0.121896  -0.098362
     6  Na  -0.269580   0.636090
     7  Na   0.247119   0.050688
 Sum of Mulliken charges =  -0.00000   1.00000

 Dipole moment (field-independent basis, Debye):
    X=             -0.2732    Y=             -0.2555    Z=              0.0763  Tot=              0.3817
 Quadrupole moment (field-independent basis, Debye-Ang):
   XX=            -55.3850   YY=            -66.9829   ZZ=            -72.2030
   XY=              0.5597   XZ=             -0.1085   YZ=             -0.1453

 Normal termination of Gaussian 16 at Tue Dec  5 15:17:26 2023.
