 Gaussian 16, Revision B.01,
 Gaussian 16:  ES64L-G16RevB.01 20-Dec-2017

 -------------------------
 #P B3LYP/6-311+g(d) force
 -------------------------

 -----
 DPGEN
 -----
 Symbolic Z-matrix:
 Charge =  0 Multiplicity = 2

                         Standard orientation:
 ---------------------------------------------------------------------
 Center     Atomic      Atomic             Coordinates (Angstroms)
 Number     Number       Type             X           Y           Z
 ---------------------------------------------------------------------
      1         11           0        0.719522   -0.755798   -1.660185
      2         11           0       -2.023369   -2.523417   -0.364662
      3         11           0       -3.450620    0.413454    0.210156
      4         11           0        2.693181    1.626175   -0.503621
      5         11           0       -0.205342   -0.122137    1.704625
      6         11           0        3.588173   -1.169192    0.753455
      7         11           0       -1.321544    2.530916   -0.139768
 ---------------------------------------------------------------------

 SCF Done:  E(UB3LYP) =  -1136.12225784     A.U. after   23 cycles

 The electronic state is 2-A.
 Alpha  occ. eigenvalues --  -38.44910 -38.44897 -38.44743 -38.44470 -38.43528
 Alpha  occ. eigenvalues --  -38.42902 -38.42805  -2.20767  -2.20760  -2.20566
 Alpha  occ. eigenvalues --   -2.20320  -2.19415  -2.18739  -2.18665  -1.14473
 Alpha  occ. eigenvalues --   -1.14459  -1.14429  -1.14404  -1.14399  -1.14364
 Alpha  occ. eigenvalues --   -1.14250  -1.14211  -1.14195  -1.14000  -1.13969
 Alpha  occ. eigenvalues --   -1.13949  -1.13102  -1.13053  -1.13031  -1.12412
 Alpha  occ. eigenvalues --   -1.12394  -1.12392  -1.12360  -1.12331  -1.12295
 Alpha  occ. eigenvalues --   -0.18224  -0.14301  -0.11479  -0.10452
 Alpha virt. eigenvalues --   -0.07029  -0.05666  -0.04338  -0.03391  -0.02697
 Alpha virt. eigenvalues --   -0.02362  -0.02178  -0.01500  -0.00614  -0.00250
 Alpha virt. eigenvalues --   -0.00148   0.00159   0.00433   0.00606   0.00726

  Beta  occ. eigenvalues --  -38.44897 -38.44870 -38.44700 -38.44452 -38.43457
  Beta  occ. eigenvalues --  -38.42901 -38.42807  -2.20766  -2.20686  -2.20485
  Beta  occ. eigenvalues --   -2.20293  -2.19286  -2.18740  -2.18670  -1.14467
  Beta  occ. eigenvalues --   -1.14417  -1.14409  -1.14401  -1.14355  -1.14312
  Beta  occ. eigenvalues --   -1.14200  -1.14144  -1.14141  -1.13969  -1.13949
  Beta  occ. eigenvalues --   -1.13912  -1.13017  -1.12958  -1.12932  -1.12415
  Beta  occ. eigenvalues --   -1.12394  -1.12378  -1.12367  -1.12335  -1.12280
  Beta  occ. eigenvalues --   -0.17616  -0.14031  -0.11280
  Beta virt. eigenvalues --   -0.06873  -0.06723  -0.05523  -0.03912  -0.03077
  Beta virt. eigenvalues --   -0.02481  -0.01774  -0.01430  -0.01371  -0.00505
  Beta virt. eigenvalues --   -0.00151  -0.00010   0.00227   0.00597   0.00747

 Mulliken charges and spin densities:
               1          2
     1  Na  -0.189868   0.355361
     2  Na  -0.004531  -0.018622
     3  Na   0.246301  -0.000049
     4  Na   0.303874   0.121953
     5  Na  -0.152911   0.287573
     6  Na  -0.006601   0.269771
     7  Na  -0.196265  -0.015986
 Sum of Mulliken charges =  -0.00000   1.00000

 Dipole moment (field-independent basis, Debye):
    X=              0.4331    Y=             -0.0423    Z=              0.0906  Tot=              0.4445
 Quadrupole moment (field-independent basis, Debye-Ang):
   XX=            -50.3358   YY=            -71.5378   ZZ=            -74.0955
   XY=              1.0698   XZ=              0.1843   YZ=             -1.9092

 Normal termination of Gaussian 16 at Tue Dec  5 21:55:51 2023.
