 Gaussian 16, Revision B.01,
 Gaussian 16:  ES64L-G16RevB.01 20-Dec-2017

 -------------------------
 #P B3LYP/6-311+g(d) force
 -------------------------

 -----
 DPGEN
 -----
 Symbolic Z-matrix:
 Charge =  0 Multiplicity = 2

                         Standard orientation:
 ---------------------------------------------------------------------
 Center     Atomic      Atomic             Coordinates (Angstroms)
 Number     Number       Type             X           Y           Z
 ---------------------------------------------------------------------
      1         11           0        0.844211    1.176128   -0.590374
      2         11           0       -0.780870   -0.881515   -1.609355
      3         11           0        3.608796    0.712836    0.320245
      4         11           0        1.724170   -1.718393   -0.129751
      5         11           0       -0.463033   -0.419324    1.732831
      6         11           0       -1.995571    1.948031   -0.080595
      7         11           0       -2.937702   -0.817764    0.356999
 ---------------------------------------------------------------------

 SCF Done:  E(UB3LYP) =  -1136.09401705     A.U. after   26 cycles

 The electronic state is 2-A.
 Alpha  occ. eigenvalues --  -38.45303 -38.45296 -38.44235 -38.43384 -38.43262
 Alpha  occ. eigenvalues --  -38.43221 -38.43031  -2.21310  -2.21170  -2.20299
 Alpha  occ. eigenvalues --   -2.19519  -2.19432  -2.19245  -2.19021  -1.15059
 Alpha  occ. eigenvalues --   -1.15004  -1.14914  -1.14882  -1.14828  -1.14797
 Alpha  occ. eigenvalues --   -1.14018  -1.13952  -1.13870  -1.13470  -1.13200
 Alpha  occ. eigenvalues --   -1.13143  -1.13093  -1.13067  -1.12970  -1.12907
 Alpha  occ. eigenvalues --   -1.12885  -1.12826  -1.12691  -1.12675  -1.12636
 Alpha  occ. eigenvalues --   -0.20455  -0.14838  -0.11557  -0.11269
 Alpha virt. eigenvalues --   -0.07159  -0.04764  -0.04151  -0.03125  -0.02676
 Alpha virt. eigenvalues --   -0.02220  -0.02119  -0.00810  -0.00345   0.00088
 Alpha virt. eigenvalues --    0.00152   0.00418   0.00511   0.00820   0.00874

  Beta  occ. eigenvalues --  -38.45308 -38.45270 -38.44166 -38.43304 -38.43221
  Beta  occ. eigenvalues --  -38.43212 -38.43020  -2.21268  -2.21180  -2.20173
  Beta  occ. eigenvalues --   -2.19394  -2.19348  -2.19234  -2.19008  -1.15028
  Beta  occ. eigenvalues --   -1.14934  -1.14892  -1.14890  -1.14836  -1.14795
  Beta  occ. eigenvalues --   -1.13930  -1.13860  -1.13782  -1.13379  -1.13138
  Beta  occ. eigenvalues --   -1.13061  -1.13025  -1.13002  -1.12899  -1.12864
  Beta  occ. eigenvalues --   -1.12840  -1.12806  -1.12688  -1.12661  -1.12587
  Beta  occ. eigenvalues --   -0.19668  -0.14570  -0.11033
  Beta virt. eigenvalues --   -0.07402  -0.06996  -0.04790  -0.03337  -0.02911
  Beta virt. eigenvalues --   -0.02539  -0.01443  -0.01295  -0.00770  -0.00079
  Beta virt. eigenvalues --    0.00104   0.00159   0.00415   0.00708   0.00854

 Mulliken charges and spin densities:
               1          2
     1  Na  -0.534977   0.162492
     2  Na   0.208115   0.239157
     3  Na   0.198148   0.001634
     4  Na   0.359768   0.101739
     5  Na  -0.374731   0.300218
     6  Na  -0.518908  -0.000035
     7  Na   0.662586   0.194795
 Sum of Mulliken charges =  -0.00000   1.00000

 Dipole moment (field-independent basis, Debye):
    X=              0.4239    Y=             -0.4094    Z=              0.3225  Tot=              0.6717
 Quadrupole moment (field-independent basis, Debye-Ang):
   XX=            -45.6617   YY=            -76.4497   ZZ=            -70.9740
   XY=              0.4385   XZ=              1.7185   YZ=              0.2413

 Normal termination of Gaussian 16 at Fri Dec  8 17:08:47 2023.
