 Gaussian 16, Revision B.01,
 Gaussian 16:  ES64L-G16RevB.01 20-Dec-2017

 -------------------------
 #P B3LYP/6-311+g(d) force
 -------------------------

 -----
 DPGEN
 -----
 Symbolic Z-matrix:
 Charge =  0 Multiplicity = 2

                         Standard orientation:
 ---------------------------------------------------------------------
 Center     Atomic      Atomic             Coordinates (Angstroms)
 Number     Number       Type             X           Y           Z
 ---------------------------------------------------------------------
      1         11           0        1.232245   -2.872929    0.075290
      2         11           0        4.557790   -0.774008    0.018056
      3         11           0        3.039373    1.862472   -0.299321
      4         11           0       -1.721881   -3.595134    0.293056
      5         11           0       -3.887118   -0.511789   -1.071458
      6         11           0       -0.546200    4.220939   -0.137769
      7         11           0       -2.674209    1.670448    1.122144
 ---------------------------------------------------------------------

 SCF Done:  E(UB3LYP) =  -1136.10927861     A.U. after   19 cycles

 The electronic state is 2-A.
 Alpha  occ. eigenvalues --  -38.45110 -38.44693 -38.44681 -38.44395 -38.44118
 Alpha  occ. eigenvalues --  -38.44071 -38.43979  -2.20885  -2.20491  -2.20451
 Alpha  occ. eigenvalues --   -2.20201  -2.19942  -2.19852  -2.19787  -1.14564
 Alpha  occ. eigenvalues --   -1.14555  -1.14540  -1.14183  -1.14139  -1.14133
 Alpha  occ. eigenvalues --   -1.14112  -1.14107  -1.14068  -1.13895  -1.13864
 Alpha  occ. eigenvalues --   -1.13839  -1.13606  -1.13587  -1.13572  -1.13504
 Alpha  occ. eigenvalues --   -1.13489  -1.13479  -1.13451  -1.13444  -1.13412
 Alpha  occ. eigenvalues --   -0.15504  -0.13936  -0.13239  -0.10888
 Alpha virt. eigenvalues --   -0.06916  -0.05120  -0.04629  -0.03240  -0.03119
 Alpha virt. eigenvalues --   -0.02512  -0.02380  -0.01854  -0.01737  -0.00831
 Alpha virt. eigenvalues --   -0.00345  -0.00069   0.00347   0.00459   0.00574

  Beta  occ. eigenvalues --  -38.45103 -38.44687 -38.44614 -38.44357 -38.44090
  Beta  occ. eigenvalues --  -38.44000 -38.43963  -2.20876  -2.20467  -2.20346
  Beta  occ. eigenvalues --   -2.20135  -2.19891  -2.19764  -2.19720  -1.14559
  Beta  occ. eigenvalues --   -1.14550  -1.14511  -1.14156  -1.14147  -1.14090
  Beta  occ. eigenvalues --   -1.14037  -1.14015  -1.14003  -1.13845  -1.13822
  Beta  occ. eigenvalues --   -1.13785  -1.13567  -1.13552  -1.13538  -1.13433
  Beta  occ. eigenvalues --   -1.13428  -1.13414  -1.13398  -1.13395  -1.13379
  Beta  occ. eigenvalues --   -0.15007  -0.13305  -0.12415
  Beta virt. eigenvalues --   -0.07721  -0.07002  -0.04708  -0.04346  -0.02993
  Beta virt. eigenvalues --   -0.02696  -0.02184  -0.02164  -0.01731  -0.01494
  Beta virt. eigenvalues --   -0.00488  -0.00155   0.00192   0.00421   0.00451

 Mulliken charges and spin densities:
               1          2
     1  Na  -0.392711   0.242429
     2  Na   0.564935   0.141604
     3  Na  -0.403691   0.112362
     4  Na   0.304573  -0.140384
     5  Na   0.118579   0.356643
     6  Na   0.079477   0.342158
     7  Na  -0.271162  -0.054812
 Sum of Mulliken charges =  -0.00000   1.00000

 Dipole moment (field-independent basis, Debye):
    X=              0.1122    Y=             -0.1594    Z=             -0.2109  Tot=              0.2872
 Quadrupole moment (field-independent basis, Debye-Ang):
   XX=            -61.9213   YY=            -69.0178   ZZ=            -69.7851
   XY=              1.2102   XZ=              0.6615   YZ=             -0.9656

 Normal termination of Gaussian 16 at Sun Dec  3 15:41:42 2023.
