 Gaussian 16, Revision B.01,
 Gaussian 16:  ES64L-G16RevB.01 20-Dec-2017

 -------------------------
 #P B3LYP/6-311+g(d) force
 -------------------------

 -----
 DPGEN
 -----
 Symbolic Z-matrix:
 Charge =  0 Multiplicity = 2

                         Standard orientation:
 ---------------------------------------------------------------------
 Center     Atomic      Atomic             Coordinates (Angstroms)
 Number     Number       Type             X           Y           Z
 ---------------------------------------------------------------------
      1         11           0       -1.608868   -0.521875    1.822317
      2         11           0       -0.216169   -0.282433   -1.786897
      3         11           0        3.806457   -0.687859   -0.896350
      4         11           0        1.621955   -1.116580    1.491257
      5         11           0       -3.492340   -1.363979   -0.843961
      6         11           0       -2.003576    2.246688   -0.048010
      7         11           0        1.892541    1.726038    0.261643
 ---------------------------------------------------------------------

 SCF Done:  E(UB3LYP) =  -1136.11844010     A.U. after   37 cycles

 The electronic state is 2-A.
 Alpha  occ. eigenvalues --  -38.44969 -38.44966 -38.44078 -38.43902 -38.43888
 Alpha  occ. eigenvalues --  -38.43665 -38.43164  -2.20808  -2.20804  -2.19885
 Alpha  occ. eigenvalues --   -2.19829  -2.19781  -2.19556  -2.18995  -1.14505
 Alpha  occ. eigenvalues --   -1.14473  -1.14460  -1.14451  -1.14442  -1.14429
 Alpha  occ. eigenvalues --   -1.13562  -1.13551  -1.13544  -1.13535  -1.13518
 Alpha  occ. eigenvalues --   -1.13470  -1.13424  -1.13420  -1.13383  -1.13248
 Alpha  occ. eigenvalues --   -1.13227  -1.13141  -1.12685  -1.12650  -1.12606
 Alpha  occ. eigenvalues --   -0.18507  -0.14423  -0.11645  -0.10528
 Alpha virt. eigenvalues --   -0.06841  -0.05606  -0.04802  -0.03264  -0.02716
 Alpha virt. eigenvalues --   -0.02329  -0.02225  -0.01393  -0.00780  -0.00180
 Alpha virt. eigenvalues --    0.00131   0.00167   0.00316   0.00506   0.00580

  Beta  occ. eigenvalues --  -38.44960 -38.44922 -38.44070 -38.43847 -38.43834
  Beta  occ. eigenvalues --  -38.43657 -38.43147  -2.20788  -2.20726  -2.19871
  Beta  occ. eigenvalues --   -2.19731  -2.19687  -2.19543  -2.18963  -1.14461
  Beta  occ. eigenvalues --   -1.14452  -1.14446  -1.14431  -1.14387  -1.14366
  Beta  occ. eigenvalues --   -1.13548  -1.13531  -1.13519  -1.13490  -1.13445
  Beta  occ. eigenvalues --   -1.13396  -1.13361  -1.13339  -1.13306  -1.13227
  Beta  occ. eigenvalues --   -1.13203  -1.13140  -1.12655  -1.12626  -1.12591
  Beta  occ. eigenvalues --   -0.17783  -0.14299  -0.10353
  Beta virt. eigenvalues --   -0.07691  -0.06549  -0.05298  -0.04437  -0.02768
  Beta virt. eigenvalues --   -0.02497  -0.01901  -0.01621  -0.01065  -0.00556
  Beta virt. eigenvalues --   -0.00140   0.00134   0.00311   0.00360   0.00600

 Mulliken charges and spin densities:
               1          2
     1  Na  -0.041727   0.284473
     2  Na  -0.587592   0.468063
     3  Na   0.801088   0.098564
     4  Na  -0.136727  -0.010429
     5  Na   0.240164  -0.083781
     6  Na  -0.050637   0.033636
     7  Na  -0.224568   0.209474
 Sum of Mulliken charges =  -0.00000   1.00000

 Dipole moment (field-independent basis, Debye):
    X=              0.8122    Y=              0.0424    Z=             -0.7924  Tot=              1.1355
 Quadrupole moment (field-independent basis, Debye-Ang):
   XX=            -49.9191   YY=            -78.3677   ZZ=            -67.9141
   XY=             -1.6588   XZ=             -2.2395   YZ=              3.8881

 Normal termination of Gaussian 16 at Thu Dec  7 20:43:55 2023.
