 Gaussian 16, Revision B.01,
 Gaussian 16:  ES64L-G16RevB.01 20-Dec-2017

 -------------------------
 #P B3LYP/6-311+g(d) force
 -------------------------

 -----
 DPGEN
 -----
 Symbolic Z-matrix:
 Charge =  0 Multiplicity = 2

                         Standard orientation:
 ---------------------------------------------------------------------
 Center     Atomic      Atomic             Coordinates (Angstroms)
 Number     Number       Type             X           Y           Z
 ---------------------------------------------------------------------
      1         11           0        3.907290    2.160686    0.127805
      2         11           0        0.113214    1.480541   -0.870912
      3         11           0       -0.702897   -1.672898    1.822929
      4         11           0        2.680296   -1.061529    0.408597
      5         11           0       -2.819269   -0.586225   -0.922105
      6         11           0       -3.680663    2.016045    0.604863
      7         11           0        0.502029   -2.336620   -1.171177
 ---------------------------------------------------------------------

 SCF Done:  E(UB3LYP) =  -1136.11987021     A.U. after   22 cycles

 The electronic state is 2-A.
 Alpha  occ. eigenvalues --  -38.44645 -38.44541 -38.44264 -38.44175 -38.44041
 Alpha  occ. eigenvalues --  -38.43905 -38.43484  -2.20433  -2.20340  -2.20134
 Alpha  occ. eigenvalues --   -2.20053  -2.19884  -2.19669  -2.19397  -1.14141
 Alpha  occ. eigenvalues --   -1.14108  -1.14043  -1.14026  -1.13986  -1.13978
 Alpha  occ. eigenvalues --   -1.13804  -1.13803  -1.13797  -1.13752  -1.13726
 Alpha  occ. eigenvalues --   -1.13654  -1.13553  -1.13539  -1.13494  -1.13340
 Alpha  occ. eigenvalues --   -1.13338  -1.13300  -1.13087  -1.13032  -1.13010
 Alpha  occ. eigenvalues --   -0.17898  -0.13784  -0.12003  -0.10194
 Alpha virt. eigenvalues --   -0.06628  -0.06331  -0.04278  -0.03457  -0.02728
 Alpha virt. eigenvalues --   -0.02311  -0.01995  -0.01701  -0.01100  -0.00268
 Alpha virt. eigenvalues --   -0.00192   0.00167   0.00233   0.00484   0.00643

  Beta  occ. eigenvalues --  -38.44610 -38.44523 -38.44247 -38.44165 -38.43979
  Beta  occ. eigenvalues --  -38.43907 -38.43460  -2.20371  -2.20305  -2.20108
  Beta  occ. eigenvalues --   -2.20036  -2.19768  -2.19675  -2.19356  -1.14099
  Beta  occ. eigenvalues --   -1.14048  -1.14021  -1.13987  -1.13959  -1.13951
  Beta  occ. eigenvalues --   -1.13789  -1.13784  -1.13765  -1.13713  -1.13713
  Beta  occ. eigenvalues --   -1.13637  -1.13474  -1.13457  -1.13413  -1.13345
  Beta  occ. eigenvalues --   -1.13339  -1.13305  -1.13063  -1.13007  -1.12949
  Beta  occ. eigenvalues --   -0.17226  -0.13577  -0.11856
  Beta virt. eigenvalues --   -0.06607  -0.06374  -0.06061  -0.04084  -0.02934
  Beta virt. eigenvalues --   -0.02393  -0.02126  -0.01633  -0.01263  -0.00867
  Beta virt. eigenvalues --   -0.00192   0.00070   0.00224   0.00423   0.00550

 Mulliken charges and spin densities:
               1          2
     1  Na   0.454172  -0.031636
     2  Na  -0.834056   0.013567
     3  Na  -0.127164   0.268728
     4  Na  -0.240927   0.093747
     5  Na   0.162761   0.309955
     6  Na   0.229804   0.041105
     7  Na   0.355409   0.304535
 Sum of Mulliken charges =  -0.00000   1.00000

 Dipole moment (field-independent basis, Debye):
    X=             -0.5317    Y=              0.2861    Z=             -0.1686  Tot=              0.6269
 Quadrupole moment (field-independent basis, Debye-Ang):
   XX=            -57.7966   YY=            -64.6925   ZZ=            -73.9272
   XY=             -1.1934   XZ=             -0.2347   YZ=              4.1110

 Normal termination of Gaussian 16 at Wed Nov 29 17:12:44 2023.
