 Gaussian 16, Revision B.01,
 Gaussian 16:  ES64L-G16RevB.01 20-Dec-2017

 -------------------------
 #P B3LYP/6-311+g(d) force
 -------------------------

 -----
 DPGEN
 -----
 Symbolic Z-matrix:
 Charge =  0 Multiplicity = 2

                         Standard orientation:
 ---------------------------------------------------------------------
 Center     Atomic      Atomic             Coordinates (Angstroms)
 Number     Number       Type             X           Y           Z
 ---------------------------------------------------------------------
      1         11           0        0.155529   -0.469306    1.821593
      2         11           0       -3.437664   -0.671910    0.068827
      3         11           0       -0.647961   -2.762993   -0.148410
      4         11           0        2.817979   -1.482224   -0.607096
      5         11           0       -0.351861    0.763234   -1.627103
      6         11           0        2.490224    1.468192    0.426708
      7         11           0       -1.026248    3.155008    0.065481
 ---------------------------------------------------------------------

 SCF Done:  E(UB3LYP) =  -1136.13062894     A.U. after   20 cycles

 The electronic state is 2-A.
 Alpha  occ. eigenvalues --  -38.44843 -38.43898 -38.43854 -38.43716 -38.43636
 Alpha  occ. eigenvalues --  -38.43346 -38.43252  -2.20609  -2.19773  -2.19671
 Alpha  occ. eigenvalues --   -2.19560  -2.19493  -2.19270  -2.19172  -1.14287
 Alpha  occ. eigenvalues --   -1.14256  -1.14253  -1.13481  -1.13451  -1.13416
 Alpha  occ. eigenvalues --   -1.13401  -1.13316  -1.13296  -1.13237  -1.13213
 Alpha  occ. eigenvalues --   -1.13209  -1.13194  -1.13154  -1.13102  -1.12940
 Alpha  occ. eigenvalues --   -1.12904  -1.12870  -1.12847  -1.12810  -1.12786
 Alpha  occ. eigenvalues --   -0.18324  -0.13011  -0.12536  -0.10297
 Alpha virt. eigenvalues --   -0.06198  -0.05224  -0.04732  -0.03139  -0.02947
 Alpha virt. eigenvalues --   -0.02135  -0.01868  -0.01275  -0.00552  -0.00435
 Alpha virt. eigenvalues --    0.00000   0.00332   0.00741   0.00802   0.00813

  Beta  occ. eigenvalues --  -38.44845 -38.43883 -38.43855 -38.43697 -38.43628
  Beta  occ. eigenvalues --  -38.43265 -38.43200  -2.20614  -2.19750  -2.19676
  Beta  occ. eigenvalues --   -2.19527  -2.19482  -2.19122  -2.19078  -1.14282
  Beta  occ. eigenvalues --   -1.14260  -1.14255  -1.13469  -1.13413  -1.13404
  Beta  occ. eigenvalues --   -1.13385  -1.13314  -1.13296  -1.13218  -1.13192
  Beta  occ. eigenvalues --   -1.13176  -1.13164  -1.13132  -1.13092  -1.12844
  Beta  occ. eigenvalues --   -1.12799  -1.12778  -1.12765  -1.12742  -1.12720
  Beta  occ. eigenvalues --   -0.17629  -0.12806  -0.12314
  Beta virt. eigenvalues --   -0.06493  -0.06176  -0.05078  -0.04681  -0.02435
  Beta virt. eigenvalues --   -0.02240  -0.01798  -0.01293  -0.01077  -0.00545
  Beta virt. eigenvalues --   -0.00451   0.00144   0.00376   0.00757   0.00845

 Mulliken charges and spin densities:
               1          2
     1  Na  -0.048045   0.497429
     2  Na  -0.040369  -0.132874
     3  Na   0.123431   0.072109
     4  Na  -0.116900   0.128567
     5  Na  -0.243151   0.516833
     6  Na   0.258512   0.074358
     7  Na   0.066521  -0.156422
 Sum of Mulliken charges =  -0.00000   1.00000

 Dipole moment (field-independent basis, Debye):
    X=             -0.6327    Y=              0.0705    Z=              0.1059  Tot=              0.6453
 Quadrupole moment (field-independent basis, Debye-Ang):
   XX=            -54.4760   YY=            -62.0575   ZZ=            -76.1336
   XY=             -0.3063   XZ=             -1.3164   YZ=              3.0830

 Normal termination of Gaussian 16 at Thu Dec  7 09:03:24 2023.
