 Gaussian 16, Revision B.01,
 Gaussian 16:  ES64L-G16RevB.01 20-Dec-2017

 -------------------------
 #P B3LYP/6-311+g(d) force
 -------------------------

 -----
 DPGEN
 -----
 Symbolic Z-matrix:
 Charge =  0 Multiplicity = 2

                         Standard orientation:
 ---------------------------------------------------------------------
 Center     Atomic      Atomic             Coordinates (Angstroms)
 Number     Number       Type             X           Y           Z
 ---------------------------------------------------------------------
      1         11           0        0.032177    0.363842   -1.418560
      2         11           0       -1.927913   -1.864086    0.431071
      3         11           0        0.796746   -1.028550    1.916299
      4         11           0       -3.634304    0.608243   -0.547742
      5         11           0        2.986256    1.655235   -0.256457
      6         11           0        1.991165   -2.439797   -0.852384
      7         11           0       -0.244126    2.705114    0.727773
 ---------------------------------------------------------------------

 SCF Done:  E(UB3LYP) =  -1136.13086739     A.U. after   20 cycles

 The electronic state is 2-A.
 Alpha  occ. eigenvalues --  -38.44544 -38.44048 -38.43771 -38.43673 -38.43664
 Alpha  occ. eigenvalues --  -38.43382 -38.43225  -2.20337  -2.19857  -2.19597
 Alpha  occ. eigenvalues --   -2.19545  -2.19498  -2.19334  -2.19126  -1.14019
 Alpha  occ. eigenvalues --   -1.13991  -1.13971  -1.13556  -1.13515  -1.13487
 Alpha  occ. eigenvalues --   -1.13318  -1.13255  -1.13249  -1.13213  -1.13203
 Alpha  occ. eigenvalues --   -1.13176  -1.13165  -1.13157  -1.13127  -1.13032
 Alpha  occ. eigenvalues --   -1.12976  -1.12944  -1.12802  -1.12754  -1.12732
 Alpha  occ. eigenvalues --   -0.18184  -0.13083  -0.12310  -0.10518
 Alpha virt. eigenvalues --   -0.06063  -0.05391  -0.04404  -0.03170  -0.03011
 Alpha virt. eigenvalues --   -0.02197  -0.01948  -0.01334  -0.00616  -0.00069
 Alpha virt. eigenvalues --   -0.00068   0.00299   0.00698   0.00747   0.00794

  Beta  occ. eigenvalues --  -38.44542 -38.44041 -38.43754 -38.43651 -38.43651
  Beta  occ. eigenvalues --  -38.43340 -38.43151  -2.20335  -2.19845  -2.19567
  Beta  occ. eigenvalues --   -2.19524  -2.19458  -2.19260  -2.18991  -1.14007
  Beta  occ. eigenvalues --   -1.13992  -1.13963  -1.13549  -1.13499  -1.13479
  Beta  occ. eigenvalues --   -1.13297  -1.13230  -1.13220  -1.13185  -1.13175
  Beta  occ. eigenvalues --   -1.13148  -1.13139  -1.13135  -1.13093  -1.12973
  Beta  occ. eigenvalues --   -1.12925  -1.12887  -1.12711  -1.12657  -1.12635
  Beta  occ. eigenvalues --   -0.17518  -0.12853  -0.12088
  Beta virt. eigenvalues --   -0.06733  -0.05972  -0.05269  -0.04226  -0.02623
  Beta virt. eigenvalues --   -0.02351  -0.01864  -0.01354  -0.01209  -0.00461
  Beta virt. eigenvalues --   -0.00085   0.00090   0.00348   0.00767   0.00823

 Mulliken charges and spin densities:
               1          2
     1  Na  -0.154160   0.409539
     2  Na  -0.032732  -0.011243
     3  Na   0.055115   0.496751
     4  Na   0.189783   0.017121
     5  Na   0.115156  -0.047367
     6  Na  -0.074295   0.035316
     7  Na  -0.098866   0.099883
 Sum of Mulliken charges =  -0.00000   1.00000

 Dipole moment (field-independent basis, Debye):
    X=              0.3584    Y=              0.3962    Z=              0.0424  Tot=              0.5359
 Quadrupole moment (field-independent basis, Debye-Ang):
   XX=            -53.1719   YY=            -65.5512   ZZ=            -73.8673
   XY=             -0.9059   XZ=             -0.3589   YZ=              2.0655

 Normal termination of Gaussian 16 at Tue Dec  5 23:00:52 2023.
