 Gaussian 16, Revision B.01,
 Gaussian 16:  ES64L-G16RevB.01 20-Dec-2017

 -------------------------
 #P B3LYP/6-311+g(d) force
 -------------------------

 -----
 DPGEN
 -----
 Symbolic Z-matrix:
 Charge =  0 Multiplicity = 2

                         Standard orientation:
 ---------------------------------------------------------------------
 Center     Atomic      Atomic             Coordinates (Angstroms)
 Number     Number       Type             X           Y           Z
 ---------------------------------------------------------------------
      1         11           0        2.930630   -1.878215   -0.098370
      2         11           0        0.440595   -0.269722   -1.315152
      3         11           0       -3.213826   -0.052698   -0.234528
      4         11           0       -1.491003   -2.615768    0.164795
      5         11           0        2.658353    1.694130    0.158450
      6         11           0       -0.279750    0.408869    1.728741
      7         11           0       -1.044999    2.713405   -0.403936
 ---------------------------------------------------------------------

 SCF Done:  E(UB3LYP) =  -1136.13119236     A.U. after   20 cycles

 The electronic state is 2-A.
 Alpha  occ. eigenvalues --  -38.44428 -38.44357 -38.44315 -38.43569 -38.43114
 Alpha  occ. eigenvalues --  -38.42967 -38.42881  -2.20260  -2.20182  -2.20160
 Alpha  occ. eigenvalues --   -2.19429  -2.18986  -2.18982  -2.18847  -1.13947
 Alpha  occ. eigenvalues --   -1.13931  -1.13883  -1.13867  -1.13846  -1.13841
 Alpha  occ. eigenvalues --   -1.13824  -1.13809  -1.13794  -1.13110  -1.13079
 Alpha  occ. eigenvalues --   -1.13073  -1.12743  -1.12685  -1.12662  -1.12618
 Alpha  occ. eigenvalues --   -1.12607  -1.12590  -1.12522  -1.12462  -1.12438
 Alpha  occ. eigenvalues --   -0.18709  -0.13587  -0.12259  -0.09932
 Alpha virt. eigenvalues --   -0.06035  -0.05819  -0.04480  -0.03112  -0.02462
 Alpha virt. eigenvalues --   -0.01980  -0.01723  -0.01454  -0.00636  -0.00462
 Alpha virt. eigenvalues --    0.00021   0.00300   0.00699   0.00768   0.00852

  Beta  occ. eigenvalues --  -38.44421 -38.44355 -38.44306 -38.43563 -38.43100
  Beta  occ. eigenvalues --  -38.42922 -38.42798  -2.20250  -2.20168  -2.20159
  Beta  occ. eigenvalues --   -2.19420  -2.18962  -2.18902  -2.18696  -1.13939
  Beta  occ. eigenvalues --   -1.13906  -1.13878  -1.13861  -1.13838  -1.13824
  Beta  occ. eigenvalues --   -1.13800  -1.13799  -1.13796  -1.13105  -1.13073
  Beta  occ. eigenvalues --   -1.13048  -1.12693  -1.12642  -1.12623  -1.12588
  Beta  occ. eigenvalues --   -1.12559  -1.12531  -1.12423  -1.12361  -1.12326
  Beta  occ. eigenvalues --   -0.18031  -0.13347  -0.12008
  Beta virt. eigenvalues --   -0.06163  -0.05936  -0.05755  -0.04452  -0.02374
  Beta virt. eigenvalues --   -0.01869  -0.01773  -0.01426  -0.00792  -0.00662
  Beta virt. eigenvalues --   -0.00464   0.00185   0.00362   0.00757   0.00777

 Mulliken charges and spin densities:
               1          2
     1  Na   0.136070  -0.078498
     2  Na  -0.365837   0.358562
     3  Na   0.215934   0.101257
     4  Na   0.043837  -0.029978
     5  Na   0.185290  -0.030031
     6  Na  -0.268442   0.587005
     7  Na   0.053147   0.091682
 Sum of Mulliken charges =  -0.00000   1.00000

 Dipole moment (field-independent basis, Debye):
    X=              0.4507    Y=             -0.0632    Z=              0.1686  Tot=              0.4854
 Quadrupole moment (field-independent basis, Debye-Ang):
   XX=            -50.9340   YY=            -61.5061   ZZ=            -78.1913
   XY=              0.2106   XZ=              1.5120   YZ=             -1.3559

 Normal termination of Gaussian 16 at Thu Dec  7 16:27:56 2023.
