 Gaussian 16, Revision B.01,
 Gaussian 16:  ES64L-G16RevB.01 20-Dec-2017

 -------------------------
 #P B3LYP/6-311+g(d) force
 -------------------------

 -----
 DPGEN
 -----
 Symbolic Z-matrix:
 Charge =  0 Multiplicity = 2

                         Standard orientation:
 ---------------------------------------------------------------------
 Center     Atomic      Atomic             Coordinates (Angstroms)
 Number     Number       Type             X           Y           Z
 ---------------------------------------------------------------------
      1         11           0       -2.226258   -0.064867    0.760568
      2         11           0       -4.021791   -2.617775   -0.508838
      3         11           0        3.119511   -0.212841    0.777667
      4         11           0       -3.897381    2.536445   -0.436742
      5         11           0        6.057761   -0.105520   -0.751693
      6         11           0        0.410134   -1.736996    0.111423
      7         11           0        0.558023    2.201554    0.047615
 ---------------------------------------------------------------------

 SCF Done:  E(UB3LYP) =  -1136.10959680     A.U. after   24 cycles

 The electronic state is 2-A.
 Alpha  occ. eigenvalues --  -38.45399 -38.44742 -38.44555 -38.44469 -38.44025
 Alpha  occ. eigenvalues --  -38.44016 -38.43273  -2.21205  -2.20585  -2.20320
 Alpha  occ. eigenvalues --   -2.20247  -2.19870  -2.19789  -2.19181  -1.14833
 Alpha  occ. eigenvalues --   -1.14831  -1.14827  -1.14284  -1.14255  -1.14195
 Alpha  occ. eigenvalues --   -1.14017  -1.13998  -1.13933  -1.13912  -1.13900
 Alpha  occ. eigenvalues --   -1.13854  -1.13565  -1.13539  -1.13516  -1.13457
 Alpha  occ. eigenvalues --   -1.13453  -1.13412  -1.12915  -1.12872  -1.12762
 Alpha  occ. eigenvalues --   -0.16921  -0.14319  -0.11892  -0.11143
 Alpha virt. eigenvalues --   -0.06423  -0.05777  -0.04626  -0.03396  -0.02736
 Alpha virt. eigenvalues --   -0.02648  -0.02400  -0.01227  -0.01026  -0.00831
 Alpha virt. eigenvalues --   -0.00713  -0.00055  -0.00007   0.00214   0.00712

  Beta  occ. eigenvalues --  -38.45281 -38.44710 -38.44557 -38.44415 -38.44016
  Beta  occ. eigenvalues --  -38.44004 -38.43269  -2.20986  -2.20528  -2.20326
  Beta  occ. eigenvalues --   -2.20146  -2.19880  -2.19751  -2.19179  -1.14683
  Beta  occ. eigenvalues --   -1.14682  -1.14681  -1.14251  -1.14217  -1.14146
  Beta  occ. eigenvalues --   -1.14023  -1.13999  -1.13936  -1.13840  -1.13831
  Beta  occ. eigenvalues --   -1.13790  -1.13573  -1.13553  -1.13465  -1.13430
  Beta  occ. eigenvalues --   -1.13425  -1.13389  -1.12888  -1.12862  -1.12768
  Beta  occ. eigenvalues --   -0.16398  -0.13327  -0.11001
  Beta virt. eigenvalues --   -0.08423  -0.06200  -0.05194  -0.04497  -0.03176
  Beta virt. eigenvalues --   -0.02413  -0.02370  -0.01822  -0.01054  -0.00823
  Beta virt. eigenvalues --   -0.00422  -0.00386   0.00006   0.00093   0.00329

 Mulliken charges and spin densities:
               1          2
     1  Na  -0.938038  -0.098459
     2  Na   0.424867   0.170099
     3  Na   0.231043  -0.312514
     4  Na   0.402467   0.318594
     5  Na  -0.111297   0.565763
     6  Na   0.005235   0.275485
     7  Na  -0.014276   0.081033
 Sum of Mulliken charges =  -0.00000   1.00000

 Dipole moment (field-independent basis, Debye):
    X=              0.9006    Y=              0.2943    Z=             -0.8479  Tot=              1.2715
 Quadrupole moment (field-independent basis, Debye-Ang):
   XX=            -51.7726   YY=            -71.1271   ZZ=            -70.2668
   XY=              0.4433   XZ=              0.6838   YZ=              0.0427

 Normal termination of Gaussian 16 at Tue Nov 28 21:38:02 2023.
