 Gaussian 16, Revision B.01,
 Gaussian 16:  ES64L-G16RevB.01 20-Dec-2017

 -------------------------
 #P B3LYP/6-311+g(d) force
 -------------------------

 -----
 DPGEN
 -----
 Symbolic Z-matrix:
 Charge =  0 Multiplicity = 2

                         Standard orientation:
 ---------------------------------------------------------------------
 Center     Atomic      Atomic             Coordinates (Angstroms)
 Number     Number       Type             X           Y           Z
 ---------------------------------------------------------------------
      1         11           0       -3.239621   -0.465478   -0.246112
      2         11           0       -1.424373    2.535266    0.463864
      3         11           0        2.271452    1.878529   -0.216095
      4         11           0       -0.135734    0.183077   -1.762160
      5         11           0        0.608549   -0.184854    1.836291
      6         11           0       -0.523550   -2.567064    0.275456
      7         11           0        2.443277   -1.379475   -0.351244
 ---------------------------------------------------------------------

 SCF Done:  E(UB3LYP) =  -1136.13573298     A.U. after   19 cycles

 The electronic state is 2-A.
 Alpha  occ. eigenvalues --  -38.44104 -38.43595 -38.43548 -38.43537 -38.43410
 Alpha  occ. eigenvalues --  -38.43330 -38.42948  -2.19918  -2.19508  -2.19426
 Alpha  occ. eigenvalues --   -2.19418  -2.19410  -2.19306  -2.18879  -1.13593
 Alpha  occ. eigenvalues --   -1.13573  -1.13564  -1.13276  -1.13187  -1.13177
 Alpha  occ. eigenvalues --   -1.13113  -1.13110  -1.13097  -1.13089  -1.13078
 Alpha  occ. eigenvalues --   -1.13048  -1.13032  -1.13013  -1.13000  -1.12981
 Alpha  occ. eigenvalues --   -1.12929  -1.12917  -1.12570  -1.12534  -1.12490
 Alpha  occ. eigenvalues --   -0.19170  -0.13219  -0.12461  -0.10985
 Alpha virt. eigenvalues --   -0.05636  -0.05091  -0.04383  -0.03288  -0.02954
 Alpha virt. eigenvalues --   -0.02539  -0.01493  -0.00969  -0.00261  -0.00035
 Alpha virt. eigenvalues --    0.00044   0.00360   0.00836   0.00899   0.00944

  Beta  occ. eigenvalues --  -38.44104 -38.43586 -38.43534 -38.43529 -38.43327
  Beta  occ. eigenvalues --  -38.43257 -38.42938  -2.19919  -2.19488  -2.19415
  Beta  occ. eigenvalues --   -2.19403  -2.19259  -2.19175  -2.18865  -1.13580
  Beta  occ. eigenvalues --   -1.13575  -1.13566  -1.13251  -1.13166  -1.13132
  Beta  occ. eigenvalues --   -1.13098  -1.13077  -1.13070  -1.13064  -1.13039
  Beta  occ. eigenvalues --   -1.13021  -1.12993  -1.12923  -1.12902  -1.12893
  Beta  occ. eigenvalues --   -1.12840  -1.12817  -1.12556  -1.12503  -1.12475
  Beta  occ. eigenvalues --   -0.18417  -0.12986  -0.12181
  Beta virt. eigenvalues --   -0.07028  -0.05580  -0.05062  -0.04357  -0.02545
  Beta virt. eigenvalues --   -0.02158  -0.01512  -0.01382  -0.00906  -0.00264
  Beta virt. eigenvalues --   -0.00042   0.00131   0.00389   0.00884   0.00910

 Mulliken charges and spin densities:
               1          2
     1  Na  -0.019991  -0.069326
     2  Na  -0.125303  -0.055340
     3  Na   0.125266  -0.053654
     4  Na  -0.311145   0.541123
     5  Na  -0.288007   0.632879
     6  Na   0.188617  -0.038070
     7  Na   0.430564   0.042389
 Sum of Mulliken charges =  -0.00000   1.00000

 Dipole moment (field-independent basis, Debye):
    X=             -0.2251    Y=              0.2277    Z=             -0.0390  Tot=              0.3226
 Quadrupole moment (field-independent basis, Debye-Ang):
   XX=            -56.0235   YY=            -64.8366   ZZ=            -72.9719
   XY=              0.3865   XZ=             -1.2068   YZ=              1.0509

 Normal termination of Gaussian 16 at Thu Dec  7 07:12:30 2023.
