 Gaussian 16, Revision B.01,
 Gaussian 16:  ES64L-G16RevB.01 20-Dec-2017

 -------------------------
 #P B3LYP/6-311+g(d) force
 -------------------------

 -----
 DPGEN
 -----
 Symbolic Z-matrix:
 Charge =  0 Multiplicity = 2

                         Standard orientation:
 ---------------------------------------------------------------------
 Center     Atomic      Atomic             Coordinates (Angstroms)
 Number     Number       Type             X           Y           Z
 ---------------------------------------------------------------------
      1         11           0       -0.447948   -0.156860   -1.362891
      2         11           0       -3.039749    1.051811    0.510420
      3         11           0        3.167396    1.146101    0.164973
      4         11           0       -2.406714   -2.016026   -0.304024
      5         11           0        0.332407   -0.363784    2.062278
      6         11           0        2.331497   -2.316903   -0.410481
      7         11           0        0.063110    2.655660   -0.660275
 ---------------------------------------------------------------------

 SCF Done:  E(UB3LYP) =  -1136.12471051     A.U. after   22 cycles

 The electronic state is 2-A.
 Alpha  occ. eigenvalues --  -38.44756 -38.44500 -38.44090 -38.44022 -38.43911
 Alpha  occ. eigenvalues --  -38.43173 -38.42726  -2.20545  -2.20346  -2.19971
 Alpha  occ. eigenvalues --   -2.19807  -2.19758  -2.19227  -2.18605  -1.14227
 Alpha  occ. eigenvalues --   -1.14196  -1.14186  -1.14026  -1.14002  -1.13990
 Alpha  occ. eigenvalues --   -1.13742  -1.13598  -1.13583  -1.13484  -1.13465
 Alpha  occ. eigenvalues --   -1.13452  -1.13438  -1.13388  -1.13364  -1.12958
 Alpha  occ. eigenvalues --   -1.12889  -1.12815  -1.12314  -1.12238  -1.12210
 Alpha  occ. eigenvalues --   -0.18462  -0.13580  -0.11812  -0.10533
 Alpha virt. eigenvalues --   -0.06256  -0.05825  -0.03955  -0.03530  -0.02523
 Alpha virt. eigenvalues --   -0.02343  -0.02031  -0.01381  -0.00547  -0.00246
 Alpha virt. eigenvalues --    0.00003   0.00309   0.00670   0.00721   0.00805

  Beta  occ. eigenvalues --  -38.44756 -38.44488 -38.44081 -38.44019 -38.43824
  Beta  occ. eigenvalues --  -38.43114 -38.42713  -2.20548  -2.20327  -2.19957
  Beta  occ. eigenvalues --   -2.19804  -2.19598  -2.19124  -2.18583  -1.14215
  Beta  occ. eigenvalues --   -1.14198  -1.14190  -1.14017  -1.13982  -1.13964
  Beta  occ. eigenvalues --   -1.13723  -1.13578  -1.13569  -1.13472  -1.13460
  Beta  occ. eigenvalues --   -1.13446  -1.13332  -1.13278  -1.13247  -1.12879
  Beta  occ. eigenvalues --   -1.12809  -1.12745  -1.12289  -1.12209  -1.12198
  Beta  occ. eigenvalues --   -0.17768  -0.13404  -0.11555
  Beta virt. eigenvalues --   -0.06695  -0.06127  -0.05763  -0.03920  -0.02791
  Beta virt. eigenvalues --   -0.01929  -0.01856  -0.01401  -0.01205  -0.00594
  Beta virt. eigenvalues --   -0.00198   0.00133   0.00348   0.00737   0.00747

 Mulliken charges and spin densities:
               1          2
     1  Na  -0.065271   0.066532
     2  Na   0.062793   0.223983
     3  Na   0.074436   0.007283
     4  Na   0.257654   0.042673
     5  Na  -0.405517   0.628936
     6  Na  -0.037597  -0.021303
     7  Na   0.113501   0.051897
 Sum of Mulliken charges =  -0.00000   1.00000

 Dipole moment (field-independent basis, Debye):
    X=              0.1490    Y=             -0.1682    Z=              0.4392  Tot=              0.4933
 Quadrupole moment (field-independent basis, Debye-Ang):
   XX=            -49.8959   YY=            -66.6062   ZZ=            -75.6324
   XY=              0.1045   XZ=             -1.6730   YZ=              1.5033

 Normal termination of Gaussian 16 at Thu Dec  7 17:02:12 2023.
