 Gaussian 16, Revision B.01,
 Gaussian 16:  ES64L-G16RevB.01 20-Dec-2017

 -------------------------
 #P B3LYP/6-311+g(d) force
 -------------------------

 -----
 DPGEN
 -----
 Symbolic Z-matrix:
 Charge =  0 Multiplicity = 2

                         Standard orientation:
 ---------------------------------------------------------------------
 Center     Atomic      Atomic             Coordinates (Angstroms)
 Number     Number       Type             X           Y           Z
 ---------------------------------------------------------------------
      1         11           0       -2.287972    3.235078    0.298596
      2         11           0        0.178731   -2.960115   -0.685315
      3         11           0       -2.903284   -2.996658   -0.213431
      4         11           0        1.509962    3.087070   -0.199904
      5         11           0        4.113573    1.253862   -0.587858
      6         11           0        3.689462   -2.196765    1.110739
      7         11           0       -4.300472    0.577528    0.277172
 ---------------------------------------------------------------------

 SCF Done:  E(UB3LYP) =  -1136.10644780     A.U. after   21 cycles

 The electronic state is 2-A.
 Alpha  occ. eigenvalues --  -38.45143 -38.44979 -38.44954 -38.44542 -38.44390
 Alpha  occ. eigenvalues --  -38.44307 -38.43956  -2.20911  -2.20751  -2.20729
 Alpha  occ. eigenvalues --   -2.20321  -2.20159  -2.20103  -2.19770  -1.14582
 Alpha  occ. eigenvalues --   -1.14570  -1.14543  -1.14432  -1.14423  -1.14417
 Alpha  occ. eigenvalues --   -1.14404  -1.14399  -1.14366  -1.13968  -1.13952
 Alpha  occ. eigenvalues --   -1.13939  -1.13833  -1.13826  -1.13802  -1.13763
 Alpha  occ. eigenvalues --   -1.13757  -1.13727  -1.13433  -1.13418  -1.13401
 Alpha  occ. eigenvalues --   -0.15407  -0.13920  -0.13378  -0.11002
 Alpha virt. eigenvalues --   -0.07655  -0.05108  -0.04312  -0.03496  -0.03434
 Alpha virt. eigenvalues --   -0.02571  -0.02277  -0.01992  -0.01390  -0.00869
 Alpha virt. eigenvalues --   -0.00572  -0.00276   0.00053   0.00292   0.00560

  Beta  occ. eigenvalues --  -38.45114 -38.44969 -38.44948 -38.44445 -38.44384
  Beta  occ. eigenvalues --  -38.44260 -38.43920  -2.20860  -2.20738  -2.20724
  Beta  occ. eigenvalues --   -2.20152  -2.20140  -2.20017  -2.19705  -1.14549
  Beta  occ. eigenvalues --   -1.14537  -1.14496  -1.14426  -1.14418  -1.14406
  Beta  occ. eigenvalues --   -1.14405  -1.14359  -1.14336  -1.13845  -1.13830
  Beta  occ. eigenvalues --   -1.13830  -1.13824  -1.13821  -1.13779  -1.13705
  Beta  occ. eigenvalues --   -1.13702  -1.13667  -1.13386  -1.13374  -1.13358
  Beta  occ. eigenvalues --   -0.14903  -0.13176  -0.12651
  Beta virt. eigenvalues --   -0.07894  -0.07757  -0.04583  -0.03987  -0.03212
  Beta virt. eigenvalues --   -0.03150  -0.02340  -0.02071  -0.01766  -0.01215
  Beta virt. eigenvalues --   -0.00571  -0.00269  -0.00068   0.00230   0.00360

 Mulliken charges and spin densities:
               1          2
     1  Na   0.356598   0.064349
     2  Na  -0.698347   0.076405
     3  Na   0.404917   0.143007
     4  Na  -0.052186   0.201225
     5  Na  -0.027581  -0.112054
     6  Na   0.121027   0.463229
     7  Na  -0.104429   0.163838
 Sum of Mulliken charges =  -0.00000   1.00000

 Dipole moment (field-independent basis, Debye):
    X=             -0.2222    Y=             -0.0092    Z=              0.0047  Tot=              0.2224
 Quadrupole moment (field-independent basis, Debye-Ang):
   XX=            -56.9719   YY=            -70.6239   ZZ=            -72.6965
   XY=              2.2532   XZ=             -1.7215   YZ=             -0.3069

 Normal termination of Gaussian 16 at Sun Dec  3 18:21:01 2023.
