 Gaussian 16, Revision B.01,
 Gaussian 16:  ES64L-G16RevB.01 20-Dec-2017

 -------------------------
 #P B3LYP/6-311+g(d) force
 -------------------------

 -----
 DPGEN
 -----
 Symbolic Z-matrix:
 Charge =  0 Multiplicity = 2

                         Standard orientation:
 ---------------------------------------------------------------------
 Center     Atomic      Atomic             Coordinates (Angstroms)
 Number     Number       Type             X           Y           Z
 ---------------------------------------------------------------------
      1         11           0       -0.397052   -2.488796   -1.069796
      2         11           0       -1.029025   -1.884288    2.516951
      3         11           0       -3.519275   -0.419264   -2.166819
      4         11           0       -2.928287    1.802901    0.875161
      5         11           0        0.223470    3.038773    0.003463
      6         11           0        2.799427   -0.213002    1.037076
      7         11           0        4.850741    0.163677   -1.196036
 ---------------------------------------------------------------------

 SCF Done:  E(UB3LYP) =  -1136.10296013     A.U. after   21 cycles

 The electronic state is 2-A.
 Alpha  occ. eigenvalues --  -38.45039 -38.44727 -38.44650 -38.44640 -38.44522
 Alpha  occ. eigenvalues --  -38.44215 -38.44028  -2.20812  -2.20495  -2.20393
 Alpha  occ. eigenvalues --   -2.20361  -2.20321  -2.20010  -2.19784  -1.14467
 Alpha  occ. eigenvalues --   -1.14433  -1.14429  -1.14144  -1.14140  -1.14110
 Alpha  occ. eigenvalues --   -1.14066  -1.14059  -1.14055  -1.14022  -1.14022
 Alpha  occ. eigenvalues --   -1.14011  -1.14008  -1.13965  -1.13959  -1.13679
 Alpha  occ. eigenvalues --   -1.13673  -1.13633  -1.13461  -1.13447  -1.13433
 Alpha  occ. eigenvalues --   -0.15793  -0.13363  -0.11769  -0.11311
 Alpha virt. eigenvalues --   -0.06983  -0.05527  -0.04803  -0.03457  -0.03160
 Alpha virt. eigenvalues --   -0.02745  -0.02223  -0.01641  -0.01323  -0.00559
 Alpha virt. eigenvalues --   -0.00456  -0.00177   0.00103   0.00243   0.00546

  Beta  occ. eigenvalues --  -38.44940 -38.44664 -38.44650 -38.44625 -38.44495
  Beta  occ. eigenvalues --  -38.44217 -38.44037  -2.20627  -2.20410  -2.20351
  Beta  occ. eigenvalues --   -2.20347  -2.20272  -2.20016  -2.19803  -1.14341
  Beta  occ. eigenvalues --   -1.14311  -1.14303  -1.14091  -1.14063  -1.14044
  Beta  occ. eigenvalues --   -1.14040  -1.14034  -1.14032  -1.14027  -1.14004
  Beta  occ. eigenvalues --   -1.13992  -1.13979  -1.13931  -1.13925  -1.13686
  Beta  occ. eigenvalues --   -1.13675  -1.13621  -1.13469  -1.13461  -1.13436
  Beta  occ. eigenvalues --   -0.15281  -0.12857  -0.11499
  Beta virt. eigenvalues --   -0.07898  -0.06683  -0.05060  -0.04499  -0.03194
  Beta virt. eigenvalues --   -0.02976  -0.02194  -0.02124  -0.01139  -0.01101
  Beta virt. eigenvalues --   -0.00413  -0.00390   0.00078   0.00239   0.00334

 Mulliken charges and spin densities:
               1          2
     1  Na   0.006573  -0.103974
     2  Na   0.072263   0.465421
     3  Na   0.151482   0.457879
     4  Na  -0.200714  -0.105907
     5  Na   0.152650   0.186824
     6  Na  -0.443615   0.003089
     7  Na   0.261360   0.096667
 Sum of Mulliken charges =  -0.00000   1.00000

 Dipole moment (field-independent basis, Debye):
    X=              0.2190    Y=             -0.1224    Z=             -0.4955  Tot=              0.5554
 Quadrupole moment (field-independent basis, Debye-Ang):
   XX=            -60.6615   YY=            -76.8545   ZZ=            -63.0992
   XY=              1.6426   XZ=             -6.4496   YZ=             -0.9172

 Normal termination of Gaussian 16 at Sun Dec  3 14:44:19 2023.
