 Gaussian 16, Revision B.01,
 Gaussian 16:  ES64L-G16RevB.01 20-Dec-2017

 -------------------------
 #P B3LYP/6-311+g(d) force
 -------------------------

 -----
 DPGEN
 -----
 Symbolic Z-matrix:
 Charge =  0 Multiplicity = 2

                         Standard orientation:
 ---------------------------------------------------------------------
 Center     Atomic      Atomic             Coordinates (Angstroms)
 Number     Number       Type             X           Y           Z
 ---------------------------------------------------------------------
      1         11           0        2.754962   -1.045251   -0.916187
      2         11           0       -0.935808   -0.477436   -1.447716
      3         11           0        0.178482   -2.756072    0.956857
      4         11           0       -3.521836   -0.519734   -0.406440
      5         11           0        1.167636    0.221005    1.625330
      6         11           0       -1.189618    2.281362    0.958270
      7         11           0        1.546182    2.296125   -0.770114
 ---------------------------------------------------------------------

 SCF Done:  E(UB3LYP) =  -1136.12919660     A.U. after   19 cycles

 The electronic state is 2-A.
 Alpha  occ. eigenvalues --  -38.44132 -38.43941 -38.43730 -38.43472 -38.43421
 Alpha  occ. eigenvalues --  -38.43398 -38.43300  -2.19979  -2.19803  -2.19581
 Alpha  occ. eigenvalues --   -2.19364  -2.19356  -2.19320  -2.19308  -1.13808
 Alpha  occ. eigenvalues --   -1.13600  -1.13588  -1.13490  -1.13467  -1.13422
 Alpha  occ. eigenvalues --   -1.13289  -1.13231  -1.13190  -1.13120  -1.13058
 Alpha  occ. eigenvalues --   -1.13030  -1.13016  -1.13001  -1.12979  -1.12971
 Alpha  occ. eigenvalues --   -1.12962  -1.12959  -1.12929  -1.12908  -1.12881
 Alpha  occ. eigenvalues --   -0.18732  -0.13092  -0.12540  -0.11107
 Alpha virt. eigenvalues --   -0.05639  -0.04767  -0.04626  -0.03333  -0.03289
 Alpha virt. eigenvalues --   -0.02445  -0.01494  -0.00975  -0.00461   0.00058
 Alpha virt. eigenvalues --    0.00147   0.00314   0.00712   0.00859   0.00897

  Beta  occ. eigenvalues --  -38.44127 -38.43913 -38.43698 -38.43448 -38.43403
  Beta  occ. eigenvalues --  -38.43363 -38.43242  -2.19972  -2.19755  -2.19525
  Beta  occ. eigenvalues --   -2.19314  -2.19299  -2.19290  -2.19206  -1.13794
  Beta  occ. eigenvalues --   -1.13591  -1.13585  -1.13462  -1.13427  -1.13375
  Beta  occ. eigenvalues --   -1.13240  -1.13185  -1.13157  -1.13084  -1.13013
  Beta  occ. eigenvalues --   -1.13000  -1.12969  -1.12956  -1.12941  -1.12939
  Beta  occ. eigenvalues --   -1.12923  -1.12899  -1.12876  -1.12852  -1.12810
  Beta  occ. eigenvalues --   -0.18041  -0.12825  -0.12291
  Beta virt. eigenvalues --   -0.07235  -0.05486  -0.04632  -0.04483  -0.02762
  Beta virt. eigenvalues --   -0.02666  -0.01645  -0.01247  -0.00913  -0.00230
  Beta virt. eigenvalues --    0.00140   0.00175   0.00386   0.00790   0.00875

 Mulliken charges and spin densities:
               1          2
     1  Na   0.057190   0.124273
     2  Na  -0.301710   0.281812
     3  Na  -0.314005  -0.090481
     4  Na   0.312417   0.025899
     5  Na   0.521655   0.513076
     6  Na  -0.270378  -0.070425
     7  Na  -0.005168   0.215846
 Sum of Mulliken charges =  -0.00000   1.00000

 Dipole moment (field-independent basis, Debye):
    X=             -0.0409    Y=             -0.1756    Z=              0.0548  Tot=              0.1884
 Quadrupole moment (field-independent basis, Debye-Ang):
   XX=            -58.4386   YY=            -64.8913   ZZ=            -71.0196
   XY=             -0.5516   XZ=             -4.4068   YZ=             -1.2285

 Normal termination of Gaussian 16 at Fri Dec  8 05:51:53 2023.
