 Gaussian 16, Revision B.01,
 Gaussian 16:  ES64L-G16RevB.01 20-Dec-2017

 -------------------------
 #P B3LYP/6-311+g(d) force
 -------------------------

 -----
 DPGEN
 -----
 Symbolic Z-matrix:
 Charge =  0 Multiplicity = 2

                         Standard orientation:
 ---------------------------------------------------------------------
 Center     Atomic      Atomic             Coordinates (Angstroms)
 Number     Number       Type             X           Y           Z
 ---------------------------------------------------------------------
      1         11           0        1.073501    2.070303   -0.580457
      2         11           0        0.371309   -0.738571    2.060111
      3         11           0       -1.782856    0.981997    1.052473
      4         11           0       -4.489838   -0.166947   -0.549402
      5         11           0       -1.101818   -0.668826   -1.210424
      6         11           0        1.786928   -1.884193   -0.481214
      7         11           0        4.142774    0.406238   -0.291087
 ---------------------------------------------------------------------

 SCF Done:  E(UB3LYP) =  -1136.10498452     A.U. after   33 cycles

 The electronic state is 2-A.
 Alpha  occ. eigenvalues --  -38.45049 -38.44399 -38.44340 -38.44093 -38.44025
 Alpha  occ. eigenvalues --  -38.44020 -38.42824  -2.21013  -2.20249  -2.20151
 Alpha  occ. eigenvalues --   -2.20055  -2.19955  -2.19893  -2.18767  -1.14790
 Alpha  occ. eigenvalues --   -1.14676  -1.14599  -1.13942  -1.13899  -1.13859
 Alpha  occ. eigenvalues --   -1.13829  -1.13806  -1.13781  -1.13762  -1.13699
 Alpha  occ. eigenvalues --   -1.13667  -1.13657  -1.13615  -1.13593  -1.13560
 Alpha  occ. eigenvalues --   -1.13533  -1.13497  -1.12478  -1.12406  -1.12386
 Alpha  occ. eigenvalues --   -0.19080  -0.14147  -0.11853  -0.10903
 Alpha virt. eigenvalues --   -0.07893  -0.04618  -0.04259  -0.03432  -0.03199
 Alpha virt. eigenvalues --   -0.02484  -0.02204  -0.01299  -0.01054  -0.00520
 Alpha virt. eigenvalues --    0.00038   0.00191   0.00413   0.00661   0.00872

  Beta  occ. eigenvalues --  -38.45019 -38.44335 -38.44316 -38.44098 -38.43983
  Beta  occ. eigenvalues --  -38.43965 -38.42818  -2.20962  -2.20132  -2.20105
  Beta  occ. eigenvalues --   -2.19985  -2.19904  -2.19852  -2.18761  -1.14739
  Beta  occ. eigenvalues --   -1.14634  -1.14561  -1.13867  -1.13815  -1.13798
  Beta  occ. eigenvalues --   -1.13772  -1.13768  -1.13748  -1.13720  -1.13655
  Beta  occ. eigenvalues --   -1.13611  -1.13569  -1.13568  -1.13566  -1.13543
  Beta  occ. eigenvalues --   -1.13530  -1.13448  -1.12458  -1.12408  -1.12363
  Beta  occ. eigenvalues --   -0.18303  -0.13893  -0.10664
  Beta virt. eigenvalues --   -0.07998  -0.07543  -0.04167  -0.03936  -0.03223
  Beta virt. eigenvalues --   -0.02857  -0.01975  -0.01593  -0.00943  -0.00913
  Beta virt. eigenvalues --   -0.00453   0.00162   0.00270   0.00451   0.00776

 Mulliken charges and spin densities:
               1          2
     1  Na  -0.260304   0.279434
     2  Na  -0.340843  -0.050726
     3  Na   0.408007   0.292092
     4  Na   0.332767   0.038750
     5  Na  -0.616353   0.180706
     6  Na   0.466198   0.302550
     7  Na   0.010529  -0.042805
 Sum of Mulliken charges =  -0.00000   1.00000

 Dipole moment (field-independent basis, Debye):
    X=             -0.3927    Y=             -0.4151    Z=              0.5935  Tot=              0.8238
 Quadrupole moment (field-independent basis, Debye-Ang):
   XX=            -58.1699   YY=            -72.2018   ZZ=            -70.2416
   XY=             -2.8014   XZ=              1.3401   YZ=              4.1505

 Normal termination of Gaussian 16 at Thu Dec  7 15:22:14 2023.
