 Gaussian 16, Revision B.01,
 Gaussian 16:  ES64L-G16RevB.01 20-Dec-2017

 -------------------------
 #P B3LYP/6-311+g(d) force
 -------------------------

 -----
 DPGEN
 -----
 Symbolic Z-matrix:
 Charge =  0 Multiplicity = 2

                         Standard orientation:
 ---------------------------------------------------------------------
 Center     Atomic      Atomic             Coordinates (Angstroms)
 Number     Number       Type             X           Y           Z
 ---------------------------------------------------------------------
      1         11           0        0.341332   -0.572728    1.672561
      2         11           0       -0.059806    0.563463   -1.602581
      3         11           0       -1.376048   -2.261262   -0.054359
      4         11           0        2.111948   -1.880162   -0.360340
      5         11           0       -3.130201    0.314177   -0.079920
      6         11           0        2.631943    1.289582   -0.003247
      7         11           0       -0.519167    2.546930    0.427886
 ---------------------------------------------------------------------

 SCF Done:  E(UB3LYP) =  -1136.12966008     A.U. after   19 cycles

 The electronic state is 2-A.
 Alpha  occ. eigenvalues --  -38.44137 -38.43789 -38.43541 -38.43293 -38.43239
 Alpha  occ. eigenvalues --  -38.43090 -38.43084  -2.20007  -2.19709  -2.19476
 Alpha  occ. eigenvalues --   -2.19241  -2.19185  -2.19146  -2.19140  -1.13700
 Alpha  occ. eigenvalues --   -1.13660  -1.13652  -1.13417  -1.13371  -1.13358
 Alpha  occ. eigenvalues --   -1.13223  -1.13128  -1.13097  -1.13075  -1.13041
 Alpha  occ. eigenvalues --   -1.12898  -1.12859  -1.12847  -1.12791  -1.12783
 Alpha  occ. eigenvalues --   -1.12773  -1.12738  -1.12730  -1.12715  -1.12688
 Alpha  occ. eigenvalues --   -0.19656  -0.13550  -0.12692  -0.10712
 Alpha virt. eigenvalues --   -0.05724  -0.05061  -0.04388  -0.03218  -0.02890
 Alpha virt. eigenvalues --   -0.02098  -0.01607  -0.00930  -0.00100   0.00035
 Alpha virt. eigenvalues --    0.00045   0.00361   0.00850   0.00942   0.00960

  Beta  occ. eigenvalues --  -38.44135 -38.43780 -38.43530 -38.43284 -38.43225
  Beta  occ. eigenvalues --  -38.43018 -38.43014  -2.20006  -2.19699  -2.19459
  Beta  occ. eigenvalues --   -2.19229  -2.19159  -2.19025  -2.19009  -1.13701
  Beta  occ. eigenvalues --   -1.13655  -1.13637  -1.13411  -1.13358  -1.13325
  Beta  occ. eigenvalues --   -1.13203  -1.13095  -1.13079  -1.13033  -1.13009
  Beta  occ. eigenvalues --   -1.12863  -1.12850  -1.12797  -1.12768  -1.12723
  Beta  occ. eigenvalues --   -1.12688  -1.12649  -1.12646  -1.12627  -1.12618
  Beta  occ. eigenvalues --   -0.18910  -0.13278  -0.12438
  Beta virt. eigenvalues --   -0.06736  -0.05687  -0.05055  -0.04352  -0.02416
  Beta virt. eigenvalues --   -0.02097  -0.01533  -0.01073  -0.00878  -0.00111
  Beta virt. eigenvalues --   -0.00006   0.00167   0.00399   0.00891   0.00948

 Mulliken charges and spin densities:
               1          2
     1  Na  -0.533472   0.573912
     2  Na  -0.648595   0.527957
     3  Na   0.359271  -0.038974
     4  Na   0.234180  -0.022531
     5  Na   0.027140  -0.050744
     6  Na   0.326376   0.010546
     7  Na   0.235102  -0.000166
 Sum of Mulliken charges =  -0.00000   1.00000

 Dipole moment (field-independent basis, Debye):
    X=             -0.0671    Y=              0.0978    Z=             -0.0064  Tot=              0.1188
 Quadrupole moment (field-independent basis, Debye-Ang):
   XX=            -53.9347   YY=            -64.9158   ZZ=            -74.3929
   XY=             -0.2364   XZ=             -0.6939   YZ=              2.2744

 Normal termination of Gaussian 16 at Thu Dec  7 08:37:39 2023.
