 Gaussian 16, Revision B.01,
 Gaussian 16:  ES64L-G16RevB.01 20-Dec-2017

 -------------------------
 #P B3LYP/6-311+g(d) force
 -------------------------

 -----
 DPGEN
 -----
 Symbolic Z-matrix:
 Charge =  0 Multiplicity = 2

                         Standard orientation:
 ---------------------------------------------------------------------
 Center     Atomic      Atomic             Coordinates (Angstroms)
 Number     Number       Type             X           Y           Z
 ---------------------------------------------------------------------
      1         11           0       -0.066362   -0.399933    1.844012
      2         11           0       -0.125672    0.358706   -1.749052
      3         11           0        2.381892   -1.665112   -0.315685
      4         11           0       -3.213431   -0.246990   -0.042629
      5         11           0        2.690011    1.695409    0.218506
      6         11           0       -1.038141    2.946605    0.102714
      7         11           0       -0.628297   -2.688685   -0.057866
 ---------------------------------------------------------------------

 SCF Done:  E(UB3LYP) =  -1136.13705547     A.U. after   19 cycles

 The electronic state is 2-A.
 Alpha  occ. eigenvalues --  -38.44166 -38.43957 -38.43920 -38.43449 -38.43344
 Alpha  occ. eigenvalues --  -38.43235 -38.43153  -2.19975  -2.19762  -2.19721
 Alpha  occ. eigenvalues --   -2.19341  -2.19290  -2.19166  -2.19095  -1.13652
 Alpha  occ. eigenvalues --   -1.13635  -1.13614  -1.13433  -1.13429  -1.13415
 Alpha  occ. eigenvalues --   -1.13403  -1.13384  -1.13346  -1.13085  -1.13022
 Alpha  occ. eigenvalues --   -1.12996  -1.12992  -1.12934  -1.12888  -1.12821
 Alpha  occ. eigenvalues --   -1.12793  -1.12776  -1.12770  -1.12725  -1.12710
 Alpha  occ. eigenvalues --   -0.18718  -0.12895  -0.12627  -0.10561
 Alpha virt. eigenvalues --   -0.05810  -0.05115  -0.04775  -0.03059  -0.02970
 Alpha virt. eigenvalues --   -0.02334  -0.01571  -0.01171  -0.00521  -0.00274
 Alpha virt. eigenvalues --    0.00008   0.00361   0.00823   0.00841   0.00916

  Beta  occ. eigenvalues --  -38.44163 -38.43953 -38.43918 -38.43440 -38.43263
  Beta  occ. eigenvalues --  -38.43225 -38.43082  -2.19973  -2.19758  -2.19721
  Beta  occ. eigenvalues --   -2.19328  -2.19157  -2.19136  -2.18964  -1.13639
  Beta  occ. eigenvalues --   -1.13628  -1.13614  -1.13429  -1.13411  -1.13410
  Beta  occ. eigenvalues --   -1.13399  -1.13375  -1.13348  -1.13056  -1.12986
  Beta  occ. eigenvalues --   -1.12973  -1.12954  -1.12834  -1.12793  -1.12786
  Beta  occ. eigenvalues --   -1.12765  -1.12727  -1.12687  -1.12629  -1.12616
  Beta  occ. eigenvalues --   -0.17977  -0.12669  -0.12388
  Beta virt. eigenvalues --   -0.06665  -0.05815  -0.05062  -0.04734  -0.02293
  Beta virt. eigenvalues --   -0.02195  -0.01494  -0.01319  -0.01079  -0.00568
  Beta virt. eigenvalues --   -0.00324   0.00142   0.00384   0.00824   0.00874

 Mulliken charges and spin densities:
               1          2
     1  Na  -0.394537   0.744383
     2  Na  -0.194493   0.599504
     3  Na   0.177733   0.012460
     4  Na   0.076801  -0.135427
     5  Na  -0.041972  -0.075753
     6  Na  -0.080607  -0.163691
     7  Na   0.457076   0.018524
 Sum of Mulliken charges =  -0.00000   1.00000

 Dipole moment (field-independent basis, Debye):
    X=             -0.2346    Y=              0.3701    Z=              0.0441  Tot=              0.4404
 Quadrupole moment (field-independent basis, Debye-Ang):
   XX=            -56.1465   YY=            -61.4574   ZZ=            -75.1671
   XY=              0.2232   XZ=             -0.0932   YZ=              1.8785

 Normal termination of Gaussian 16 at Thu Dec  7 17:59:40 2023.
