 Gaussian 16, Revision B.01,
 Gaussian 16:  ES64L-G16RevB.01 20-Dec-2017

 -------------------------
 #P B3LYP/6-311+g(d) force
 -------------------------

 -----
 DPGEN
 -----
 Symbolic Z-matrix:
 Charge =  0 Multiplicity = 2

                         Standard orientation:
 ---------------------------------------------------------------------
 Center     Atomic      Atomic             Coordinates (Angstroms)
 Number     Number       Type             X           Y           Z
 ---------------------------------------------------------------------
      1         11           0       -1.318585    2.690873    0.262858
      2         11           0        0.069624   -0.539025   -0.169010
      3         11           0       -2.718319   -2.637556   -0.566955
      4         11           0        2.070995   -1.804158    1.845969
      5         11           0       -3.865063    0.555475   -0.038457
      6         11           0        1.987526    2.376978    0.066406
      7         11           0        3.773822   -0.642586   -1.400811
 ---------------------------------------------------------------------

 SCF Done:  E(UB3LYP) =  -1136.11986442     A.U. after   23 cycles

 The electronic state is 2-A.
 Alpha  occ. eigenvalues --  -38.44819 -38.44492 -38.44397 -38.44290 -38.43975
 Alpha  occ. eigenvalues --  -38.43625 -38.43087  -2.20622  -2.20304  -2.20179
 Alpha  occ. eigenvalues --   -2.20118  -2.19785  -2.19543  -2.18932  -1.14298
 Alpha  occ. eigenvalues --   -1.14285  -1.14254  -1.13992  -1.13975  -1.13926
 Alpha  occ. eigenvalues --   -1.13854  -1.13838  -1.13815  -1.13812  -1.13753
 Alpha  occ. eigenvalues --   -1.13728  -1.13447  -1.13423  -1.13390  -1.13263
 Alpha  occ. eigenvalues --   -1.13199  -1.13160  -1.12601  -1.12593  -1.12583
 Alpha  occ. eigenvalues --   -0.17246  -0.14021  -0.12205  -0.10186
 Alpha virt. eigenvalues --   -0.07069  -0.05650  -0.04425  -0.03432  -0.02592
 Alpha virt. eigenvalues --   -0.02535  -0.01804  -0.01494  -0.01280  -0.00553
 Alpha virt. eigenvalues --   -0.00381   0.00108   0.00393   0.00536   0.00574

  Beta  occ. eigenvalues --  -38.44810 -38.44480 -38.44398 -38.44223 -38.43886
  Beta  occ. eigenvalues --  -38.43611 -38.43085  -2.20605  -2.20285  -2.20180
  Beta  occ. eigenvalues --   -2.19995  -2.19619  -2.19521  -2.18929  -1.14286
  Beta  occ. eigenvalues --   -1.14272  -1.14243  -1.13983  -1.13959  -1.13893
  Beta  occ. eigenvalues --   -1.13857  -1.13838  -1.13809  -1.13723  -1.13669
  Beta  occ. eigenvalues --   -1.13641  -1.13334  -1.13303  -1.13280  -1.13217
  Beta  occ. eigenvalues --   -1.13183  -1.13158  -1.12599  -1.12591  -1.12578
  Beta  occ. eigenvalues --   -0.16848  -0.13524  -0.11951
  Beta virt. eigenvalues --   -0.07036  -0.06473  -0.05372  -0.04256  -0.03046
  Beta virt. eigenvalues --   -0.02379  -0.02035  -0.01628  -0.01227  -0.00874
  Beta virt. eigenvalues --   -0.00375  -0.00060   0.00214   0.00489   0.00582

 Mulliken charges and spin densities:
               1          2
     1  Na   0.127971  -0.082257
     2  Na  -3.117128   0.139704
     3  Na   0.474119  -0.016129
     4  Na   0.547455   0.162414
     5  Na  -0.216186   0.088091
     6  Na   1.695681   0.220446
     7  Na   0.488088   0.487730
 Sum of Mulliken charges =  -0.00000   1.00000

 Dipole moment (field-independent basis, Debye):
    X=             -0.6728    Y=             -0.2738    Z=              0.6794  Tot=              0.9946
 Quadrupole moment (field-independent basis, Debye-Ang):
   XX=            -59.9697   YY=            -64.8359   ZZ=            -72.1087
   XY=             -1.6522   XZ=              3.6609   YZ=              1.9110

 Normal termination of Gaussian 16 at Tue Dec  5 20:01:10 2023.
