 Gaussian 16, Revision B.01,
 Gaussian 16:  ES64L-G16RevB.01 20-Dec-2017

 -------------------------
 #P B3LYP/6-311+g(d) force
 -------------------------

 -----
 DPGEN
 -----
 Symbolic Z-matrix:
 Charge =  0 Multiplicity = 2

                         Standard orientation:
 ---------------------------------------------------------------------
 Center     Atomic      Atomic             Coordinates (Angstroms)
 Number     Number       Type             X           Y           Z
 ---------------------------------------------------------------------
      1         11           0        4.249153   -0.765527    0.800350
      2         11           0        2.033253   -2.663489    0.464044
      3         11           0        3.326866    2.047564   -0.868261
      4         11           0       -0.902570    3.331122   -0.470724
      5         11           0       -4.556660   -1.655292   -0.199591
      6         11           0       -1.211838   -2.053188   -1.149504
      7         11           0       -2.938205    1.758811    1.423687
 ---------------------------------------------------------------------

 SCF Done:  E(UB3LYP) =  -1136.10253414     A.U. after   23 cycles

 The electronic state is 2-A.
 Alpha  occ. eigenvalues --  -38.45030 -38.44906 -38.44844 -38.44649 -38.44423
 Alpha  occ. eigenvalues --  -38.43996 -38.43880  -2.20770  -2.20739  -2.20623
 Alpha  occ. eigenvalues --   -2.20435  -2.20206  -2.19843  -2.19657  -1.14478
 Alpha  occ. eigenvalues --   -1.14459  -1.14452  -1.14405  -1.14395  -1.14385
 Alpha  occ. eigenvalues --   -1.14292  -1.14291  -1.14251  -1.14087  -1.14069
 Alpha  occ. eigenvalues --   -1.14054  -1.13861  -1.13850  -1.13825  -1.13499
 Alpha  occ. eigenvalues --   -1.13476  -1.13467  -1.13323  -1.13319  -1.13302
 Alpha  occ. eigenvalues --   -0.15750  -0.14160  -0.12683  -0.10713
 Alpha virt. eigenvalues --   -0.07641  -0.05144  -0.04408  -0.03703  -0.03391
 Alpha virt. eigenvalues --   -0.02607  -0.01962  -0.01654  -0.01213  -0.01035
 Alpha virt. eigenvalues --   -0.00704  -0.00383   0.00273   0.00359   0.00540

  Beta  occ. eigenvalues --  -38.45045 -38.44910 -38.44819 -38.44563 -38.44360
  Beta  occ. eigenvalues --  -38.43942 -38.43871  -2.20801  -2.20753  -2.20580
  Beta  occ. eigenvalues --   -2.20275  -2.20089  -2.19741  -2.19643  -1.14485
  Beta  occ. eigenvalues --   -1.14476  -1.14468  -1.14410  -1.14401  -1.14368
  Beta  occ. eigenvalues --   -1.14264  -1.14258  -1.14212  -1.13978  -1.13963
  Beta  occ. eigenvalues --   -1.13944  -1.13780  -1.13770  -1.13750  -1.13441
  Beta  occ. eigenvalues --   -1.13406  -1.13398  -1.13316  -1.13309  -1.13280
  Beta  occ. eigenvalues --   -0.15276  -0.13543  -0.11959
  Beta virt. eigenvalues --   -0.07605  -0.07569  -0.04730  -0.03997  -0.03525
  Beta virt. eigenvalues --   -0.03180  -0.02276  -0.01731  -0.01362  -0.01018
  Beta virt. eigenvalues --   -0.00694  -0.00572  -0.00164   0.00303   0.00475

 Mulliken charges and spin densities:
               1          2
     1  Na   0.419421  -0.012759
     2  Na  -0.167471   0.237176
     3  Na  -0.134502   0.444025
     4  Na  -0.112870   0.004485
     5  Na   0.309309   0.269059
     6  Na  -0.339776  -0.038892
     7  Na   0.025889   0.096908
 Sum of Mulliken charges =  -0.00000   1.00000

 Dipole moment (field-independent basis, Debye):
    X=             -0.2839    Y=             -0.1688    Z=              0.2349  Tot=              0.4053
 Quadrupole moment (field-independent basis, Debye-Ang):
   XX=            -59.5229   YY=            -76.4308   ZZ=            -67.0157
   XY=             -1.2859   XZ=             -1.7425   YZ=             -2.4878

 Normal termination of Gaussian 16 at Sun Dec  3 21:06:53 2023.
