 Gaussian 16, Revision B.01,
 Gaussian 16:  ES64L-G16RevB.01 20-Dec-2017

 -------------------------
 #P B3LYP/6-311+g(d) force
 -------------------------

 -----
 DPGEN
 -----
 Symbolic Z-matrix:
 Charge =  0 Multiplicity = 2

                         Standard orientation:
 ---------------------------------------------------------------------
 Center     Atomic      Atomic             Coordinates (Angstroms)
 Number     Number       Type             X           Y           Z
 ---------------------------------------------------------------------
      1         11           0        3.283232   -2.531146   -0.526474
      2         11           0        1.320279    3.399574    0.265742
      3         11           0       -2.928118   -1.540975    1.550192
      4         11           0        0.376812   -3.092447   -0.599613
      5         11           0        3.627779    1.295726    0.824621
      6         11           0       -1.505745    2.279105   -1.188134
      7         11           0       -4.174239    0.190163   -0.326334
 ---------------------------------------------------------------------

 SCF Done:  E(UB3LYP) =  -1136.10631092     A.U. after   19 cycles

 The electronic state is 2-A.
 Alpha  occ. eigenvalues --  -38.44924 -38.44807 -38.44601 -38.44351 -38.44276
 Alpha  occ. eigenvalues --  -38.44024 -38.43845  -2.20778  -2.20653  -2.20407
 Alpha  occ. eigenvalues --   -2.20157  -2.20089  -2.19843  -2.19653  -1.14651
 Alpha  occ. eigenvalues --   -1.14421  -1.14414  -1.14272  -1.14262  -1.14212
 Alpha  occ. eigenvalues --   -1.14143  -1.14060  -1.14046  -1.13820  -1.13806
 Alpha  occ. eigenvalues --   -1.13781  -1.13738  -1.13727  -1.13720  -1.13496
 Alpha  occ. eigenvalues --   -1.13489  -1.13470  -1.13322  -1.13320  -1.13306
 Alpha  occ. eigenvalues --   -0.16003  -0.14081  -0.13286  -0.10731
 Alpha virt. eigenvalues --   -0.07206  -0.05026  -0.04594  -0.03615  -0.03284
 Alpha virt. eigenvalues --   -0.02306  -0.02111  -0.01391  -0.01335  -0.01020
 Alpha virt. eigenvalues --   -0.00653  -0.00063   0.00122   0.00417   0.00714

  Beta  occ. eigenvalues --  -38.44921 -38.44753 -38.44582 -38.44282 -38.44269
  Beta  occ. eigenvalues --  -38.43941 -38.43854  -2.20778  -2.20555  -2.20374
  Beta  occ. eigenvalues --   -2.20080  -2.20028  -2.19689  -2.19676  -1.14614
  Beta  occ. eigenvalues --   -1.14426  -1.14396  -1.14206  -1.14192  -1.14161
  Beta  occ. eigenvalues --   -1.14115  -1.14038  -1.14023  -1.13738  -1.13733
  Beta  occ. eigenvalues --   -1.13722  -1.13718  -1.13701  -1.13689  -1.13404
  Beta  occ. eigenvalues --   -1.13386  -1.13370  -1.13343  -1.13335  -1.13270
  Beta  occ. eigenvalues --   -0.15463  -0.13493  -0.12717
  Beta virt. eigenvalues --   -0.07499  -0.07100  -0.04569  -0.04318  -0.03323
  Beta virt. eigenvalues --   -0.02843  -0.02137  -0.01967  -0.01215  -0.01075
  Beta virt. eigenvalues --   -0.00805  -0.00343   0.00124   0.00328   0.00482

 Mulliken charges and spin densities:
               1          2
     1  Na   0.607367  -0.028728
     2  Na   0.548471  -0.092728
     3  Na  -0.128061   0.294260
     4  Na  -0.593194   0.089743
     5  Na  -0.256278   0.348390
     6  Na  -0.628890   0.380693
     7  Na   0.450584   0.008371
 Sum of Mulliken charges =  -0.00000   1.00000

 Dipole moment (field-independent basis, Debye):
    X=             -0.5403    Y=             -0.6978    Z=              0.1578  Tot=              0.8965
 Quadrupole moment (field-independent basis, Debye-Ang):
   XX=            -59.3421   YY=            -72.7443   ZZ=            -70.6062
   XY=             -2.2294   XZ=              2.2175   YZ=             -0.5782

 Normal termination of Gaussian 16 at Sun Dec  3 15:37:03 2023.
