 Gaussian 16, Revision B.01,
 Gaussian 16:  ES64L-G16RevB.01 20-Dec-2017

 -------------------------
 #P B3LYP/6-311+g(d) force
 -------------------------

 -----
 DPGEN
 -----
 Symbolic Z-matrix:
 Charge =  0 Multiplicity = 2

                         Standard orientation:
 ---------------------------------------------------------------------
 Center     Atomic      Atomic             Coordinates (Angstroms)
 Number     Number       Type             X           Y           Z
 ---------------------------------------------------------------------
      1         11           0       -3.236783   -0.281319   -0.042109
      2         11           0        2.740712   -1.428523   -0.199780
      3         11           0        2.394716    1.823193   -0.014622
      4         11           0       -0.048878    0.465049   -1.643519
      5         11           0        0.192306   -0.752035    2.016353
      6         11           0       -1.209139    2.789570    0.315570
      7         11           0       -0.832934   -2.615935   -0.431892
 ---------------------------------------------------------------------

 SCF Done:  E(UB3LYP) =  -1136.13743072     A.U. after   20 cycles

 The electronic state is 2-A.
 Alpha  occ. eigenvalues --  -38.44286 -38.43844 -38.43795 -38.43523 -38.43515
 Alpha  occ. eigenvalues --  -38.43267 -38.43147  -2.20097  -2.19696  -2.19651
 Alpha  occ. eigenvalues --   -2.19404  -2.19344  -2.19153  -2.19115  -1.13770
 Alpha  occ. eigenvalues --   -1.13755  -1.13742  -1.13407  -1.13364  -1.13346
 Alpha  occ. eigenvalues --   -1.13335  -1.13304  -1.13260  -1.13085  -1.13045
 Alpha  occ. eigenvalues --   -1.13040  -1.13018  -1.13005  -1.12973  -1.12852
 Alpha  occ. eigenvalues --   -1.12816  -1.12789  -1.12773  -1.12738  -1.12732
 Alpha  occ. eigenvalues --   -0.18581  -0.13127  -0.12458  -0.10593
 Alpha virt. eigenvalues --   -0.05785  -0.05276  -0.04613  -0.03179  -0.03025
 Alpha virt. eigenvalues --   -0.02374  -0.01610  -0.01075  -0.00432  -0.00347
 Alpha virt. eigenvalues --   -0.00017   0.00363   0.00779   0.00870   0.00890

  Beta  occ. eigenvalues --  -38.44285 -38.43839 -38.43791 -38.43517 -38.43429
  Beta  occ. eigenvalues --  -38.43254 -38.43087  -2.20097  -2.19690  -2.19646
  Beta  occ. eigenvalues --   -2.19335  -2.19245  -2.19133  -2.19005  -1.13761
  Beta  occ. eigenvalues --   -1.13749  -1.13744  -1.13406  -1.13346  -1.13335
  Beta  occ. eigenvalues --   -1.13322  -1.13284  -1.13260  -1.13034  -1.12988
  Beta  occ. eigenvalues --   -1.12985  -1.12969  -1.12930  -1.12904  -1.12825
  Beta  occ. eigenvalues --   -1.12773  -1.12760  -1.12718  -1.12662  -1.12653
  Beta  occ. eigenvalues --   -0.17861  -0.12906  -0.12245
  Beta virt. eigenvalues --   -0.06713  -0.05751  -0.05263  -0.04505  -0.02420
  Beta virt. eigenvalues --   -0.02281  -0.01528  -0.01354  -0.01014  -0.00464
  Beta virt. eigenvalues --   -0.00383   0.00146   0.00394   0.00834   0.00878

 Mulliken charges and spin densities:
               1          2
     1  Na   0.040923  -0.054400
     2  Na   0.305854  -0.023273
     3  Na   0.118569  -0.040240
     4  Na  -0.087689   0.433291
     5  Na  -0.575423   0.753526
     6  Na  -0.052812  -0.027866
     7  Na   0.250578  -0.041039
 Sum of Mulliken charges =  -0.00000   1.00000

 Dipole moment (field-independent basis, Debye):
    X=             -0.1015    Y=              0.0318    Z=              0.1280  Tot=              0.1664
 Quadrupole moment (field-independent basis, Debye-Ang):
   XX=            -55.1831   YY=            -63.8201   ZZ=            -74.4821
   XY=             -0.3076   XZ=             -0.6729   YZ=              2.5146

 Normal termination of Gaussian 16 at Tue Dec  5 14:27:38 2023.
