 Gaussian 16, Revision B.01,
 Gaussian 16:  ES64L-G16RevB.01 20-Dec-2017

 -------------------------
 #P B3LYP/6-311+g(d) force
 -------------------------

 -----
 DPGEN
 -----
 Symbolic Z-matrix:
 Charge =  0 Multiplicity = 2

                         Standard orientation:
 ---------------------------------------------------------------------
 Center     Atomic      Atomic             Coordinates (Angstroms)
 Number     Number       Type             X           Y           Z
 ---------------------------------------------------------------------
      1         11           0       -0.113700    0.107269    1.775253
      2         11           0        2.152081    1.968052   -0.322461
      3         11           0       -1.188024    1.587090   -1.403458
      4         11           0        3.098853   -0.856232    1.225961
      5         11           0        1.396834   -1.261894   -1.551975
      6         11           0       -1.744395   -1.875718   -0.757167
      7         11           0       -3.601648    0.331434    1.033847
 ---------------------------------------------------------------------

 SCF Done:  E(UB3LYP) =  -1136.12794755     A.U. after   30 cycles

 The electronic state is 2-A.
 Alpha  occ. eigenvalues --  -38.44717 -38.44693 -38.44322 -38.44319 -38.43589
 Alpha  occ. eigenvalues --  -38.42700 -38.42544  -2.20564  -2.20537  -2.20201
 Alpha  occ. eigenvalues --   -2.20180  -2.19454  -2.18578  -2.18441  -1.14236
 Alpha  occ. eigenvalues --   -1.14214  -1.14205  -1.14190  -1.14183  -1.14168
 Alpha  occ. eigenvalues --   -1.13901  -1.13860  -1.13850  -1.13820  -1.13809
 Alpha  occ. eigenvalues --   -1.13803  -1.13134  -1.13106  -1.13093  -1.12278
 Alpha  occ. eigenvalues --   -1.12255  -1.12212  -1.12113  -1.12104  -1.12068
 Alpha  occ. eigenvalues --   -0.18672  -0.14186  -0.11826  -0.10765
 Alpha virt. eigenvalues --   -0.06451  -0.05267  -0.04717  -0.03321  -0.02647
 Alpha virt. eigenvalues --   -0.02446  -0.02291  -0.01000  -0.00632  -0.00138
 Alpha virt. eigenvalues --    0.00213   0.00282   0.00427   0.00660   0.00702

  Beta  occ. eigenvalues --  -38.44700 -38.44654 -38.44281 -38.44254 -38.43567
  Beta  occ. eigenvalues --  -38.42697 -38.42529  -2.20506  -2.20492  -2.20126
  Beta  occ. eigenvalues --   -2.20063  -2.19418  -2.18576  -2.18415  -1.14176
  Beta  occ. eigenvalues --   -1.14174  -1.14171  -1.14170  -1.14151  -1.14136
  Beta  occ. eigenvalues --   -1.13842  -1.13800  -1.13780  -1.13760  -1.13724
  Beta  occ. eigenvalues --   -1.13711  -1.13104  -1.13085  -1.13046  -1.12277
  Beta  occ. eigenvalues --   -1.12238  -1.12211  -1.12097  -1.12060  -1.12058
  Beta  occ. eigenvalues --   -0.17928  -0.13942  -0.10536
  Beta virt. eigenvalues --   -0.07920  -0.06250  -0.04818  -0.04438  -0.02914
  Beta virt. eigenvalues --   -0.02230  -0.01978  -0.01768  -0.00603  -0.00570
  Beta virt. eigenvalues --   -0.00017   0.00249   0.00386   0.00438   0.00774

 Mulliken charges and spin densities:
               1          2
     1  Na  -0.639024   0.403475
     2  Na  -0.063459   0.109430
     3  Na  -0.236099   0.235118
     4  Na   0.709366  -0.042059
     5  Na  -0.292163   0.258587
     6  Na  -0.285517  -0.068975
     7  Na   0.806897   0.104424
 Sum of Mulliken charges =  -0.00000   1.00000

 Dipole moment (field-independent basis, Debye):
    X=             -0.3093    Y=              0.2520    Z=              0.6025  Tot=              0.7226
 Quadrupole moment (field-independent basis, Debye-Ang):
   XX=            -48.2653   YY=            -77.0972   ZZ=            -68.9534
   XY=             -1.1013   XZ=              0.2334   YZ=             -6.7545

 Normal termination of Gaussian 16 at Tue Dec  5 17:19:57 2023.
