 Gaussian 16, Revision B.01,
 Gaussian 16:  ES64L-G16RevB.01 20-Dec-2017

 -------------------------
 #P B3LYP/6-311+g(d) force
 -------------------------

 -----
 DPGEN
 -----
 Symbolic Z-matrix:
 Charge =  0 Multiplicity = 2

                         Standard orientation:
 ---------------------------------------------------------------------
 Center     Atomic      Atomic             Coordinates (Angstroms)
 Number     Number       Type             X           Y           Z
 ---------------------------------------------------------------------
      1         11           0       -1.977795    0.274478    1.196287
      2         11           0        3.462915   -0.531890   -0.482917
      3         11           0        0.941083   -2.389049    0.716714
      4         11           0        0.255781   -0.325073   -1.697348
      5         11           0       -3.258942   -1.479828   -0.503634
      6         11           0        1.132980    1.402352    1.530666
      7         11           0       -0.556022    3.049009   -0.759767
 ---------------------------------------------------------------------

 SCF Done:  E(UB3LYP) =  -1136.12735547     A.U. after   20 cycles

 The electronic state is 2-A.
 Alpha  occ. eigenvalues --  -38.44563 -38.44229 -38.44138 -38.43567 -38.43416
 Alpha  occ. eigenvalues --  -38.43285 -38.43121  -2.20388  -2.20070  -2.19990
 Alpha  occ. eigenvalues --   -2.19487  -2.19375  -2.19116  -2.19024  -1.14056
 Alpha  occ. eigenvalues --   -1.14044  -1.14035  -1.13846  -1.13778  -1.13733
 Alpha  occ. eigenvalues --   -1.13672  -1.13610  -1.13593  -1.13182  -1.13124
 Alpha  occ. eigenvalues --   -1.13102  -1.13050  -1.13012  -1.12964  -1.12791
 Alpha  occ. eigenvalues --   -1.12776  -1.12763  -1.12712  -1.12667  -1.12617
 Alpha  occ. eigenvalues --   -0.18461  -0.13303  -0.12098  -0.10788
 Alpha virt. eigenvalues --   -0.06263  -0.04886  -0.04378  -0.03335  -0.03029
 Alpha virt. eigenvalues --   -0.02395  -0.01988  -0.01027  -0.00634   0.00067
 Alpha virt. eigenvalues --    0.00176   0.00316   0.00523   0.00796   0.00859

  Beta  occ. eigenvalues --  -38.44559 -38.44213 -38.44139 -38.43498 -38.43389
  Beta  occ. eigenvalues --  -38.43271 -38.43075  -2.20382  -2.20043  -2.19992
  Beta  occ. eigenvalues --   -2.19363  -2.19328  -2.19092  -2.18942  -1.14044
  Beta  occ. eigenvalues --   -1.14036  -1.14030  -1.13844  -1.13761  -1.13692
  Beta  occ. eigenvalues --   -1.13656  -1.13602  -1.13595  -1.13094  -1.13034
  Beta  occ. eigenvalues --   -1.13017  -1.13005  -1.12970  -1.12933  -1.12774
  Beta  occ. eigenvalues --   -1.12752  -1.12736  -1.12652  -1.12604  -1.12561
  Beta  occ. eigenvalues --   -0.17716  -0.13144  -0.11921
  Beta virt. eigenvalues --   -0.06882  -0.06172  -0.04737  -0.04192  -0.02801
  Beta virt. eigenvalues --   -0.02424  -0.01925  -0.01435  -0.00940  -0.00356
  Beta virt. eigenvalues --    0.00114   0.00207   0.00346   0.00620   0.00840

 Mulliken charges and spin densities:
               1          2
     1  Na  -0.049619   0.176229
     2  Na   0.510439  -0.041323
     3  Na  -0.280557   0.141551
     4  Na  -0.190470   0.539357
     5  Na   0.218917  -0.106674
     6  Na  -0.021592   0.305899
     7  Na  -0.187118  -0.015039
 Sum of Mulliken charges =  -0.00000   1.00000

 Dipole moment (field-independent basis, Debye):
    X=              0.7637    Y=             -0.3544    Z=             -0.2703  Tot=              0.8843
 Quadrupole moment (field-independent basis, Debye-Ang):
   XX=            -55.2136   YY=            -66.1303   ZZ=            -71.9423
   XY=              0.3137   XZ=              1.4361   YZ=             -1.6548

 Normal termination of Gaussian 16 at Tue Dec  5 10:36:57 2023.
