 Gaussian 16, Revision B.01,
 Gaussian 16:  ES64L-G16RevB.01 20-Dec-2017

 -------------------------
 #P B3LYP/6-311+g(d) force
 -------------------------

 -----
 DPGEN
 -----
 Symbolic Z-matrix:
 Charge =  0 Multiplicity = 2

                         Standard orientation:
 ---------------------------------------------------------------------
 Center     Atomic      Atomic             Coordinates (Angstroms)
 Number     Number       Type             X           Y           Z
 ---------------------------------------------------------------------
      1         11           0       -1.613391    2.660351    0.148739
      2         11           0        2.828062   -1.056896   -0.148538
      3         11           0       -0.152029   -2.670725   -0.103617
      4         11           0        2.265372    2.051549   -0.293622
      5         11           0        0.170863   -0.230695    2.099568
      6         11           0       -3.331722   -0.676573   -0.210496
      7         11           0       -0.167155   -0.077012   -1.492035
 ---------------------------------------------------------------------

 SCF Done:  E(UB3LYP) =  -1136.13362007     A.U. after   19 cycles

 The electronic state is 2-A.
 Alpha  occ. eigenvalues --  -38.44559 -38.43788 -38.43748 -38.43613 -38.43558
 Alpha  occ. eigenvalues --  -38.43165 -38.43078  -2.20347  -2.19686  -2.19538
 Alpha  occ. eigenvalues --   -2.19459  -2.19452  -2.19187  -2.19008  -1.14027
 Alpha  occ. eigenvalues --   -1.13996  -1.13987  -1.13389  -1.13350  -1.13337
 Alpha  occ. eigenvalues --   -1.13220  -1.13208  -1.13170  -1.13131  -1.13129
 Alpha  occ. eigenvalues --   -1.13112  -1.13088  -1.13074  -1.13064  -1.12986
 Alpha  occ. eigenvalues --   -1.12845  -1.12788  -1.12662  -1.12646  -1.12600
 Alpha  occ. eigenvalues --   -0.18745  -0.13173  -0.12278  -0.10687
 Alpha virt. eigenvalues --   -0.05972  -0.05246  -0.04435  -0.03120  -0.02729
 Alpha virt. eigenvalues --   -0.02521  -0.01845  -0.01082  -0.00458  -0.00270
 Alpha virt. eigenvalues --   -0.00022   0.00321   0.00755   0.00843   0.00898

  Beta  occ. eigenvalues --  -38.44557 -38.43781 -38.43747 -38.43607 -38.43453
  Beta  occ. eigenvalues --  -38.43111 -38.43068  -2.20345  -2.19676  -2.19537
  Beta  occ. eigenvalues --   -2.19449  -2.19261  -2.19091  -2.18993  -1.14011
  Beta  occ. eigenvalues --   -1.13996  -1.13987  -1.13385  -1.13343  -1.13302
  Beta  occ. eigenvalues --   -1.13214  -1.13197  -1.13173  -1.13118  -1.13100
  Beta  occ. eigenvalues --   -1.13076  -1.13008  -1.12943  -1.12931  -1.12926
  Beta  occ. eigenvalues --   -1.12770  -1.12716  -1.12637  -1.12606  -1.12585
  Beta  occ. eigenvalues --   -0.18013  -0.12940  -0.12039
  Beta virt. eigenvalues --   -0.06743  -0.05919  -0.05225  -0.04410  -0.02386
  Beta virt. eigenvalues --   -0.01969  -0.01758  -0.01420  -0.01018  -0.00491
  Beta virt. eigenvalues --   -0.00316   0.00137   0.00360   0.00805   0.00857

 Mulliken charges and spin densities:
               1          2
     1  Na  -0.041249  -0.046103
     2  Na   0.447550   0.073032
     3  Na   0.466601  -0.006824
     4  Na   0.064963  -0.013167
     5  Na  -0.606319   0.754545
     6  Na   0.117326  -0.065672
     7  Na  -0.448872   0.304188
 Sum of Mulliken charges =  -0.00000   1.00000

 Dipole moment (field-independent basis, Debye):
    X=             -0.4279    Y=              0.0587    Z=              0.2041  Tot=              0.4777
 Quadrupole moment (field-independent basis, Debye-Ang):
   XX=            -53.7138   YY=            -64.0775   ZZ=            -74.9506
   XY=              0.1441   XZ=             -0.5942   YZ=              0.3931

 Normal termination of Gaussian 16 at Tue Dec  5 21:29:46 2023.
