 Gaussian 16, Revision B.01,
 Gaussian 16:  ES64L-G16RevB.01 20-Dec-2017

 -------------------------
 #P B3LYP/6-311+g(d) force
 -------------------------

 -----
 DPGEN
 -----
 Symbolic Z-matrix:
 Charge =  0 Multiplicity = 2

                         Standard orientation:
 ---------------------------------------------------------------------
 Center     Atomic      Atomic             Coordinates (Angstroms)
 Number     Number       Type             X           Y           Z
 ---------------------------------------------------------------------
      1         11           0        0.782612   -1.762060    0.272214
      2         11           0        0.423175    0.688635   -1.425986
      3         11           0        2.998886   -0.023026   -0.342386
      4         11           0        0.919668    1.178942    1.246114
      5         11           0       -1.778741    1.771302   -0.159886
      6         11           0       -1.924497   -1.169400   -1.130986
      7         11           0       -1.421104   -0.684393    1.540914
 ---------------------------------------------------------------------

 SCF Done:  E(UB3LYP) =  -1136.08179627     A.U. after   21 cycles

 The electronic state is 2-A.
 Alpha  occ. eigenvalues --  -38.44532 -38.44189 -38.43943 -38.43934 -38.43665
 Alpha  occ. eigenvalues --  -38.43128 -38.42831  -2.20563  -2.20379  -2.20236
 Alpha  occ. eigenvalues --   -2.20034  -2.19868  -2.19215  -2.19016  -1.14426
 Alpha  occ. eigenvalues --   -1.14254  -1.14235  -1.14198  -1.14150  -1.14085
 Alpha  occ. eigenvalues --   -1.13990  -1.13935  -1.13866  -1.13650  -1.13617
 Alpha  occ. eigenvalues --   -1.13591  -1.13516  -1.13455  -1.13417  -1.12897
 Alpha  occ. eigenvalues --   -1.12853  -1.12797  -1.12719  -1.12663  -1.12592
 Alpha  occ. eigenvalues --   -0.21533  -0.14344  -0.12605  -0.12017
 Alpha virt. eigenvalues --   -0.05735  -0.04170  -0.04042  -0.03558  -0.02836
 Alpha virt. eigenvalues --   -0.02784  -0.01365  -0.00412  -0.00265   0.00295
 Alpha virt. eigenvalues --    0.00702   0.00896   0.00971   0.01043   0.01087

  Beta  occ. eigenvalues --  -38.44526 -38.44126 -38.43905 -38.43870 -38.43612
  Beta  occ. eigenvalues --  -38.43116 -38.42810  -2.20554  -2.20269  -2.20124
  Beta  occ. eigenvalues --   -2.19968  -2.19777  -2.19199  -2.18987  -1.14406
  Beta  occ. eigenvalues --   -1.14209  -1.14199  -1.14187  -1.14054  -1.14015
  Beta  occ. eigenvalues --   -1.13908  -1.13851  -1.13792  -1.13588  -1.13571
  Beta  occ. eigenvalues --   -1.13524  -1.13446  -1.13388  -1.13330  -1.12887
  Beta  occ. eigenvalues --   -1.12817  -1.12767  -1.12703  -1.12613  -1.12548
  Beta  occ. eigenvalues --   -0.20654  -0.14102  -0.11777
  Beta virt. eigenvalues --   -0.08146  -0.05629  -0.04075  -0.03405  -0.03328
  Beta virt. eigenvalues --   -0.02054  -0.01752  -0.01299  -0.00320  -0.00061
  Beta virt. eigenvalues --    0.00336   0.00757   0.00905   0.01061   0.01087

 Mulliken charges and spin densities:
               1          2
     1  Na  -0.857508   0.180560
     2  Na  -0.084793   0.456443
     3  Na   1.054265  -0.048956
     4  Na  -0.611595   0.200768
     5  Na  -0.137882  -0.064393
     6  Na  -0.114048  -0.004576
     7  Na   0.751562   0.280154
 Sum of Mulliken charges =  -0.00000   1.00000

 Dipole moment (field-independent basis, Debye):
    X=              0.2141    Y=             -0.0148    Z=             -0.0767  Tot=              0.2279
 Quadrupole moment (field-independent basis, Debye-Ang):
   XX=            -55.4262   YY=            -75.1250   ZZ=            -65.8075
   XY=             -0.3713   XZ=              0.1010   YZ=              1.4351

 Normal termination of Gaussian 16 at Fri Dec  8 20:12:39 2023.
