 Gaussian 16, Revision B.01,
 Gaussian 16:  ES64L-G16RevB.01 20-Dec-2017

 -------------------------
 #P B3LYP/6-311+g(d) force
 -------------------------

 -----
 DPGEN
 -----
 Symbolic Z-matrix:
 Charge =  0 Multiplicity = 2

                         Standard orientation:
 ---------------------------------------------------------------------
 Center     Atomic      Atomic             Coordinates (Angstroms)
 Number     Number       Type             X           Y           Z
 ---------------------------------------------------------------------
      1         11           0        0.361397   -0.211692    1.759697
      2         11           0       -0.305426   -2.588083   -0.920803
      3         11           0       -2.898118   -1.342190    0.418656
      4         11           0        3.418582   -1.027837    0.501487
      5         11           0       -2.525031    2.607181    0.244718
      6         11           0       -0.341933    0.143055   -1.439464
      7         11           0        2.290529    2.419565   -0.564291
 ---------------------------------------------------------------------

 SCF Done:  E(UB3LYP) =  -1136.12056278     A.U. after   21 cycles

 The electronic state is 2-A.
 Alpha  occ. eigenvalues --  -38.44513 -38.44503 -38.44428 -38.43955 -38.43889
 Alpha  occ. eigenvalues --  -38.43375 -38.43208  -2.20297  -2.20276  -2.20272
 Alpha  occ. eigenvalues --   -2.19839  -2.19634  -2.19387  -2.19155  -1.13974
 Alpha  occ. eigenvalues --   -1.13954  -1.13950  -1.13947  -1.13947  -1.13936
 Alpha  occ. eigenvalues --   -1.13924  -1.13905  -1.13894  -1.13555  -1.13467
 Alpha  occ. eigenvalues --   -1.13446  -1.13317  -1.13289  -1.13283  -1.13271
 Alpha  occ. eigenvalues --   -1.13054  -1.12975  -1.12766  -1.12745  -1.12740
 Alpha  occ. eigenvalues --   -0.18235  -0.13251  -0.11810  -0.10523
 Alpha virt. eigenvalues --   -0.06105  -0.05977  -0.04267  -0.03298  -0.02622
 Alpha virt. eigenvalues --   -0.02220  -0.02021  -0.01534  -0.00705  -0.00383
 Alpha virt. eigenvalues --    0.00001   0.00243   0.00604   0.00674   0.00735

  Beta  occ. eigenvalues --  -38.44497 -38.44481 -38.44420 -38.43897 -38.43893
  Beta  occ. eigenvalues --  -38.43312 -38.43176  -2.20269  -2.20263  -2.20233
  Beta  occ. eigenvalues --   -2.19725  -2.19650  -2.19276  -2.19100  -1.13947
  Beta  occ. eigenvalues --   -1.13940  -1.13930  -1.13925  -1.13918  -1.13910
  Beta  occ. eigenvalues --   -1.13899  -1.13893  -1.13869  -1.13476  -1.13390
  Beta  occ. eigenvalues --   -1.13357  -1.13326  -1.13297  -1.13289  -1.13200
  Beta  occ. eigenvalues --   -1.12965  -1.12897  -1.12729  -1.12706  -1.12673
  Beta  occ. eigenvalues --   -0.17579  -0.12967  -0.11577
  Beta virt. eigenvalues --   -0.06830  -0.05908  -0.05806  -0.04211  -0.02656
  Beta virt. eigenvalues --   -0.02118  -0.01817  -0.01495  -0.01256  -0.00630
  Beta virt. eigenvalues --   -0.00308   0.00101   0.00301   0.00659   0.00744

 Mulliken charges and spin densities:
               1          2
     1  Na  -0.146271   0.603018
     2  Na   0.210282   0.099432
     3  Na   0.087836   0.123311
     4  Na   0.014448   0.053970
     5  Na  -0.316400  -0.017840
     6  Na   0.365360   0.121626
     7  Na  -0.215256   0.016483
 Sum of Mulliken charges =  -0.00000   1.00000

 Dipole moment (field-independent basis, Debye):
    X=              0.3717    Y=             -0.0699    Z=              0.3147  Tot=              0.4920
 Quadrupole moment (field-independent basis, Debye-Ang):
   XX=            -52.8284   YY=            -63.6501   ZZ=            -75.6299
   XY=              1.3929   XZ=             -2.2058   YZ=              0.0352

 Normal termination of Gaussian 16 at Tue Dec  5 18:21:30 2023.
