 Gaussian 16, Revision B.01,
 Gaussian 16:  ES64L-G16RevB.01 20-Dec-2017

 -------------------------
 #P B3LYP/6-311+g(d) force
 -------------------------

 -----
 DPGEN
 -----
 Symbolic Z-matrix:
 Charge =  0 Multiplicity = 2

                         Standard orientation:
 ---------------------------------------------------------------------
 Center     Atomic      Atomic             Coordinates (Angstroms)
 Number     Number       Type             X           Y           Z
 ---------------------------------------------------------------------
      1         11           0       -2.657369    0.878563    0.107420
      2         11           0        3.242712    0.596076    0.009563
      3         11           0       -1.937297   -2.673624   -0.005636
      4         11           0        0.084676    0.553331    2.033404
      5         11           0       -0.364528    3.154906   -0.513405
      6         11           0        0.045804   -0.198051   -1.604674
      7         11           0        1.586002   -2.311201   -0.026674
 ---------------------------------------------------------------------

 SCF Done:  E(UB3LYP) =  -1136.13666970     A.U. after   19 cycles

 The electronic state is 2-A.
 Alpha  occ. eigenvalues --  -38.43897 -38.43865 -38.43668 -38.43619 -38.43551
 Alpha  occ. eigenvalues --  -38.43523 -38.43242  -2.19706  -2.19696  -2.19557
 Alpha  occ. eigenvalues --   -2.19506  -2.19432  -2.19335  -2.19218  -1.13380
 Alpha  occ. eigenvalues --   -1.13374  -1.13372  -1.13357  -1.13356  -1.13343
 Alpha  occ. eigenvalues --   -1.13307  -1.13217  -1.13208  -1.13185  -1.13155
 Alpha  occ. eigenvalues --   -1.13119  -1.13093  -1.13054  -1.13044  -1.13005
 Alpha  occ. eigenvalues --   -1.12988  -1.12985  -1.12897  -1.12858  -1.12816
 Alpha  occ. eigenvalues --   -0.18535  -0.13084  -0.12425  -0.10608
 Alpha virt. eigenvalues --   -0.05468  -0.05246  -0.04966  -0.03216  -0.02822
 Alpha virt. eigenvalues --   -0.02420  -0.01465  -0.01378  -0.00416  -0.00303
 Alpha virt. eigenvalues --   -0.00015   0.00347   0.00787   0.00840   0.00874

  Beta  occ. eigenvalues --  -38.43896 -38.43851 -38.43663 -38.43610 -38.43524
  Beta  occ. eigenvalues --  -38.43459 -38.43181  -2.19707  -2.19674  -2.19549
  Beta  occ. eigenvalues --   -2.19495  -2.19339  -2.19262  -2.19108  -1.13383
  Beta  occ. eigenvalues --   -1.13361  -1.13360  -1.13352  -1.13333  -1.13318
  Beta  occ. eigenvalues --   -1.13293  -1.13197  -1.13191  -1.13155  -1.13144
  Beta  occ. eigenvalues --   -1.13114  -1.13001  -1.12990  -1.12984  -1.12981
  Beta  occ. eigenvalues --   -1.12935  -1.12925  -1.12820  -1.12779  -1.12737
  Beta  occ. eigenvalues --   -0.17817  -0.12837  -0.12235
  Beta virt. eigenvalues --   -0.06708  -0.05455  -0.05156  -0.04924  -0.02414
  Beta virt. eigenvalues --   -0.02131  -0.01434  -0.01387  -0.01257  -0.00465
  Beta virt. eigenvalues --   -0.00318   0.00137   0.00375   0.00824   0.00836

 Mulliken charges and spin densities:
               1          2
     1  Na   0.293964   0.076410
     2  Na   0.081291  -0.088218
     3  Na  -0.011653  -0.040572
     4  Na  -0.448230   0.658237
     5  Na   0.087462  -0.026796
     6  Na  -0.190665   0.426735
     7  Na   0.187831  -0.005796
 Sum of Mulliken charges =  -0.00000   1.00000

 Dipole moment (field-independent basis, Debye):
    X=              0.1957    Y=              0.2425    Z=              0.0992  Tot=              0.3271
 Quadrupole moment (field-independent basis, Debye-Ang):
   XX=            -59.1867   YY=            -58.9457   ZZ=            -75.0414
   XY=              1.6345   XZ=             -0.2091   YZ=             -1.7194

 Normal termination of Gaussian 16 at Thu Dec  7 13:45:00 2023.
