 Gaussian 16, Revision B.01,
 Gaussian 16:  ES64L-G16RevB.01 20-Dec-2017

 -------------------------
 #P B3LYP/6-311+g(d) force
 -------------------------

 -----
 DPGEN
 -----
 Symbolic Z-matrix:
 Charge =  0 Multiplicity = 2

                         Standard orientation:
 ---------------------------------------------------------------------
 Center     Atomic      Atomic             Coordinates (Angstroms)
 Number     Number       Type             X           Y           Z
 ---------------------------------------------------------------------
      1         11           0        0.194746   -0.314380   -1.630602
      2         11           0       -2.962414   -1.381995   -0.536470
      3         11           0       -0.257356   -0.460679    2.029884
      4         11           0        2.797806    0.363848   -0.294911
      5         11           0       -2.231496    1.733850    0.144383
      6         11           0        0.975107    2.730253    0.056751
      7         11           0        1.483607   -2.670897    0.230965
 ---------------------------------------------------------------------

 SCF Done:  E(UB3LYP) =  -1136.13331135     A.U. after   20 cycles

 The electronic state is 2-A.
 Alpha  occ. eigenvalues --  -38.44117 -38.43822 -38.43712 -38.43656 -38.43493
 Alpha  occ. eigenvalues --  -38.43420 -38.42999  -2.19942  -2.19771  -2.19606
 Alpha  occ. eigenvalues --   -2.19533  -2.19417  -2.19365  -2.18890  -1.13614
 Alpha  occ. eigenvalues --   -1.13603  -1.13581  -1.13532  -1.13444  -1.13394
 Alpha  occ. eigenvalues --   -1.13279  -1.13257  -1.13228  -1.13205  -1.13191
 Alpha  occ. eigenvalues --   -1.13168  -1.13106  -1.13068  -1.13039  -1.13022
 Alpha  occ. eigenvalues --   -1.12999  -1.12983  -1.12573  -1.12542  -1.12525
 Alpha  occ. eigenvalues --   -0.18920  -0.13386  -0.12421  -0.10961
 Alpha virt. eigenvalues --   -0.05626  -0.05166  -0.04528  -0.03391  -0.02934
 Alpha virt. eigenvalues --   -0.02578  -0.01522  -0.01106  -0.00272  -0.00049
 Alpha virt. eigenvalues --   -0.00011   0.00350   0.00817   0.00876   0.00892

  Beta  occ. eigenvalues --  -38.44102 -38.43812 -38.43651 -38.43620 -38.43486
  Beta  occ. eigenvalues --  -38.43359 -38.42998  -2.19917  -2.19756  -2.19526
  Beta  occ. eigenvalues --   -2.19437  -2.19356  -2.19306  -2.18891  -1.13596
  Beta  occ. eigenvalues --   -1.13577  -1.13561  -1.13511  -1.13434  -1.13368
  Beta  occ. eigenvalues --   -1.13216  -1.13186  -1.13166  -1.13157  -1.13115
  Beta  occ. eigenvalues --   -1.13107  -1.13060  -1.13001  -1.13000  -1.12984
  Beta  occ. eigenvalues --   -1.12954  -1.12933  -1.12577  -1.12544  -1.12503
  Beta  occ. eigenvalues --   -0.18209  -0.13118  -0.12169
  Beta virt. eigenvalues --   -0.07067  -0.05568  -0.05102  -0.04454  -0.02633
  Beta virt. eigenvalues --   -0.02177  -0.01577  -0.01398  -0.01022  -0.00311
  Beta virt. eigenvalues --   -0.00060   0.00126   0.00390   0.00859   0.00907

 Mulliken charges and spin densities:
               1          2
     1  Na  -0.331921   0.228273
     2  Na   0.154556   0.003873
     3  Na  -0.467899   0.541574
     4  Na   0.481324   0.152941
     5  Na   0.122075   0.087133
     6  Na  -0.170774  -0.004673
     7  Na   0.212639  -0.009121
 Sum of Mulliken charges =  -0.00000   1.00000

 Dipole moment (field-independent basis, Debye):
    X=             -0.3301    Y=             -0.4400    Z=              0.1409  Tot=              0.5678
 Quadrupole moment (field-independent basis, Debye-Ang):
   XX=            -58.2261   YY=            -63.3018   ZZ=            -73.2882
   XY=              0.0348   XZ=              0.7160   YZ=              0.6373

 Normal termination of Gaussian 16 at Thu Dec  7 23:35:35 2023.
