 Gaussian 16, Revision B.01,
 Gaussian 16:  ES64L-G16RevB.01 20-Dec-2017

 -------------------------
 #P B3LYP/6-311+g(d) force
 -------------------------

 -----
 DPGEN
 -----
 Symbolic Z-matrix:
 Charge =  0 Multiplicity = 2

                         Standard orientation:
 ---------------------------------------------------------------------
 Center     Atomic      Atomic             Coordinates (Angstroms)
 Number     Number       Type             X           Y           Z
 ---------------------------------------------------------------------
      1         11           0        2.043466    1.888671   -0.224498
      2         11           0        0.299575   -0.702617   -1.319813
      3         11           0        2.729489   -1.679209   -0.156770
      4         11           0       -1.419815   -2.752708    0.068967
      5         11           0       -2.902182    0.125659   -0.067899
      6         11           0        0.262403    0.432318    2.277755
      7         11           0       -1.012936    2.687887   -0.577742
 ---------------------------------------------------------------------

 SCF Done:  E(UB3LYP) =  -1136.13026709     A.U. after   18 cycles

 The electronic state is 2-A.
 Alpha  occ. eigenvalues --  -38.44150 -38.43954 -38.43863 -38.43677 -38.43648
 Alpha  occ. eigenvalues --  -38.43334 -38.43067  -2.20005  -2.19815  -2.19723
 Alpha  occ. eigenvalues --   -2.19578  -2.19521  -2.19215  -2.19128  -1.13784
 Alpha  occ. eigenvalues --   -1.13639  -1.13615  -1.13550  -1.13465  -1.13446
 Alpha  occ. eigenvalues --   -1.13383  -1.13355  -1.13337  -1.13282  -1.13232
 Alpha  occ. eigenvalues --   -1.13215  -1.13207  -1.13175  -1.13166  -1.12874
 Alpha  occ. eigenvalues --   -1.12870  -1.12850  -1.12790  -1.12763  -1.12756
 Alpha  occ. eigenvalues --   -0.18810  -0.13071  -0.12766  -0.10843
 Alpha virt. eigenvalues --   -0.05707  -0.05021  -0.04782  -0.03157  -0.03005
 Alpha virt. eigenvalues --   -0.02630  -0.01377  -0.01184  -0.00330  -0.00213
 Alpha virt. eigenvalues --   -0.00022   0.00334   0.00846   0.00867   0.00923

  Beta  occ. eigenvalues --  -38.44146 -38.43954 -38.43751 -38.43668 -38.43645
  Beta  occ. eigenvalues --  -38.43320 -38.43028  -2.20001  -2.19815  -2.19565
  Beta  occ. eigenvalues --   -2.19520  -2.19514  -2.19191  -2.19058  -1.13775
  Beta  occ. eigenvalues --   -1.13621  -1.13615  -1.13548  -1.13460  -1.13441
  Beta  occ. eigenvalues --   -1.13291  -1.13240  -1.13218  -1.13210  -1.13206
  Beta  occ. eigenvalues --   -1.13191  -1.13172  -1.13167  -1.13152  -1.12856
  Beta  occ. eigenvalues --   -1.12855  -1.12818  -1.12734  -1.12710  -1.12707
  Beta  occ. eigenvalues --   -0.18112  -0.12860  -0.12539
  Beta virt. eigenvalues --   -0.06859  -0.05679  -0.04953  -0.04725  -0.02367
  Beta virt. eigenvalues --   -0.02267  -0.01539  -0.01313  -0.01114  -0.00354
  Beta virt. eigenvalues --   -0.00237   0.00163   0.00388   0.00849   0.00923

 Mulliken charges and spin densities:
               1          2
     1  Na   0.435686   0.132282
     2  Na  -0.379041  -0.025428
     3  Na   0.278670   0.034483
     4  Na   0.248796   0.039322
     5  Na   0.134779   0.050943
     6  Na  -0.711403   0.677997
     7  Na  -0.007488   0.090401
 Sum of Mulliken charges =  -0.00000   1.00000

 Dipole moment (field-independent basis, Debye):
    X=              0.1860    Y=             -0.3193    Z=              0.3382  Tot=              0.5009
 Quadrupole moment (field-independent basis, Debye-Ang):
   XX=            -59.1774   YY=            -61.3010   ZZ=            -74.1215
   XY=             -0.2771   XZ=              0.0136   YZ=             -2.1836

 Normal termination of Gaussian 16 at Sat Dec  9 07:13:59 2023.
