 Gaussian 16, Revision B.01,
 Gaussian 16:  ES64L-G16RevB.01 20-Dec-2017

 -------------------------
 #P B3LYP/6-311+g(d) force
 -------------------------

 -----
 DPGEN
 -----
 Symbolic Z-matrix:
 Charge =  0 Multiplicity = 2

                         Standard orientation:
 ---------------------------------------------------------------------
 Center     Atomic      Atomic             Coordinates (Angstroms)
 Number     Number       Type             X           Y           Z
 ---------------------------------------------------------------------
      1         11           0        0.346940   -2.776259    0.240719
      2         11           0       -1.874547    2.167965   -0.342764
      3         11           0        1.431458    2.391048    0.332722
      4         11           0        0.141578   -0.110356   -1.723963
      5         11           0       -3.018415   -1.102939   -0.208115
      6         11           0        3.101505   -0.551769   -0.423452
      7         11           0       -0.128519   -0.017691    2.124854
 ---------------------------------------------------------------------

 SCF Done:  E(UB3LYP) =  -1136.13961650     A.U. after   18 cycles

 The electronic state is 2-A.
 Alpha  occ. eigenvalues --  -38.43964 -38.43867 -38.43844 -38.43408 -38.43332
 Alpha  occ. eigenvalues --  -38.43280 -38.43120  -2.19773  -2.19740  -2.19711
 Alpha  occ. eigenvalues --   -2.19383  -2.19202  -2.19140  -2.19004  -1.13448
 Alpha  occ. eigenvalues --   -1.13436  -1.13415  -1.13409  -1.13402  -1.13373
 Alpha  occ. eigenvalues --   -1.13364  -1.13356  -1.13347  -1.13069  -1.13045
 Alpha  occ. eigenvalues --   -1.13004  -1.12879  -1.12861  -1.12837  -1.12823
 Alpha  occ. eigenvalues --   -1.12811  -1.12751  -1.12683  -1.12663  -1.12631
 Alpha  occ. eigenvalues --   -0.18762  -0.12934  -0.12424  -0.11146
 Alpha virt. eigenvalues --   -0.05592  -0.04890  -0.04530  -0.03223  -0.03102
 Alpha virt. eigenvalues --   -0.02856  -0.01539  -0.00966  -0.00250  -0.00108
 Alpha virt. eigenvalues --    0.00003   0.00357   0.00824   0.00906   0.00934

  Beta  occ. eigenvalues --  -38.43962 -38.43859 -38.43743 -38.43344 -38.43325
  Beta  occ. eigenvalues --  -38.43272 -38.43112  -2.19772  -2.19699  -2.19556
  Beta  occ. eigenvalues --   -2.19267  -2.19192  -2.19129  -2.18992  -1.13439
  Beta  occ. eigenvalues --   -1.13433  -1.13410  -1.13388  -1.13347  -1.13340
  Beta  occ. eigenvalues --   -1.13283  -1.13237  -1.13230  -1.12995  -1.12971
  Beta  occ. eigenvalues --   -1.12921  -1.12861  -1.12843  -1.12824  -1.12810
  Beta  occ. eigenvalues --   -1.12779  -1.12746  -1.12672  -1.12636  -1.12622
  Beta  occ. eigenvalues --   -0.18018  -0.12678  -0.12177
  Beta virt. eigenvalues --   -0.07200  -0.05554  -0.04889  -0.04466  -0.02480
  Beta virt. eigenvalues --   -0.02274  -0.01792  -0.01445  -0.00903  -0.00261
  Beta virt. eigenvalues --   -0.00130   0.00102   0.00380   0.00883   0.00906

 Mulliken charges and spin densities:
               1          2
     1  Na   0.115414  -0.043702
     2  Na   0.126725  -0.031765
     3  Na   0.200755   0.049340
     4  Na  -0.254620   0.479373
     5  Na   0.034986  -0.088569
     6  Na   0.193351  -0.020858
     7  Na  -0.416612   0.656181
 Sum of Mulliken charges =  -0.00000   1.00000

 Dipole moment (field-independent basis, Debye):
    X=             -0.0730    Y=             -0.1837    Z=              0.0937  Tot=              0.2188
 Quadrupole moment (field-independent basis, Debye-Ang):
   XX=            -56.9165   YY=            -65.0073   ZZ=            -72.2334
   XY=              0.3001   XZ=              0.3089   YZ=             -0.1076

 Normal termination of Gaussian 16 at Wed Dec  6 00:50:48 2023.
