 Gaussian 16, Revision B.01,
 Gaussian 16:  ES64L-G16RevB.01 20-Dec-2017

 -------------------------
 #P B3LYP/6-311+g(d) force
 -------------------------

 -----
 DPGEN
 -----
 Symbolic Z-matrix:
 Charge =  0 Multiplicity = 2

                         Standard orientation:
 ---------------------------------------------------------------------
 Center     Atomic      Atomic             Coordinates (Angstroms)
 Number     Number       Type             X           Y           Z
 ---------------------------------------------------------------------
      1         11           0       -2.726212   -1.602132    1.745876
      2         11           0        4.032809   -2.200188    0.109820
      3         11           0       -2.899325   -1.375115   -1.712059
      4         11           0        0.282359   -0.747882   -0.506369
      5         11           0        3.543349    1.153986    0.160962
      6         11           0        0.404035    3.032684   -0.178349
      7         11           0       -2.637015    1.738647    0.380119
 ---------------------------------------------------------------------

 SCF Done:  E(UB3LYP) =  -1136.12008908     A.U. after   24 cycles

 The electronic state is 2-A.
 Alpha  occ. eigenvalues --  -38.44941 -38.44553 -38.44523 -38.44434 -38.44132
 Alpha  occ. eigenvalues --  -38.44125 -38.42706  -2.20729  -2.20375  -2.20342
 Alpha  occ. eigenvalues --   -2.20206  -2.19969  -2.19961  -2.18517  -1.14419
 Alpha  occ. eigenvalues --   -1.14395  -1.14353  -1.14065  -1.14060  -1.14039
 Alpha  occ. eigenvalues --   -1.14001  -1.13996  -1.13952  -1.13872  -1.13868
 Alpha  occ. eigenvalues --   -1.13835  -1.13637  -1.13629  -1.13617  -1.13610
 Alpha  occ. eigenvalues --   -1.13600  -1.13550  -1.12187  -1.12183  -1.12171
 Alpha  occ. eigenvalues --   -0.17224  -0.14204  -0.11816  -0.10114
 Alpha virt. eigenvalues --   -0.06929  -0.06360  -0.04445  -0.03306  -0.02769
 Alpha virt. eigenvalues --   -0.02303  -0.01977  -0.01798  -0.01379  -0.00509
 Alpha virt. eigenvalues --   -0.00423   0.00102   0.00149   0.00436   0.00520

  Beta  occ. eigenvalues --  -38.44941 -38.44527 -38.44492 -38.44426 -38.44071
  Beta  occ. eigenvalues --  -38.44070 -38.42707  -2.20729  -2.20329  -2.20287
  Beta  occ. eigenvalues --   -2.20191  -2.19869  -2.19849  -2.18521  -1.14418
  Beta  occ. eigenvalues --   -1.14394  -1.14350  -1.14031  -1.14009  -1.14001
  Beta  occ. eigenvalues --   -1.13965  -1.13954  -1.13908  -1.13862  -1.13857
  Beta  occ. eigenvalues --   -1.13826  -1.13566  -1.13558  -1.13545  -1.13528
  Beta  occ. eigenvalues --   -1.13509  -1.13476  -1.12189  -1.12184  -1.12171
  Beta  occ. eigenvalues --   -0.16673  -0.13937  -0.11655
  Beta virt. eigenvalues --   -0.06819  -0.06264  -0.06112  -0.04310  -0.03033
  Beta virt. eigenvalues --   -0.02603  -0.01951  -0.01624  -0.01374  -0.01107
  Beta virt. eigenvalues --   -0.00342   0.00010   0.00186   0.00363   0.00505

 Mulliken charges and spin densities:
               1          2
     1  Na   0.195566   0.324893
     2  Na   0.380503   0.046268
     3  Na   0.887615  -0.044504
     4  Na  -1.942208   0.426385
     5  Na   0.072228   0.068505
     6  Na   0.407644  -0.152940
     7  Na  -0.001349   0.331393
 Sum of Mulliken charges =  -0.00000   1.00000

 Dipole moment (field-independent basis, Debye):
    X=              0.5103    Y=             -0.5056    Z=             -0.1960  Tot=              0.7446
 Quadrupole moment (field-independent basis, Debye-Ang):
   XX=            -55.4292   YY=            -65.7753   ZZ=            -75.1978
   XY=              0.3534   XZ=              4.7006   YZ=             -2.3098

 Normal termination of Gaussian 16 at Fri Dec  8 19:12:12 2023.
