 Gaussian 16, Revision B.01,
 Gaussian 16:  ES64L-G16RevB.01 20-Dec-2017

 -------------------------
 #P B3LYP/6-311+g(d) force
 -------------------------

 -----
 DPGEN
 -----
 Symbolic Z-matrix:
 Charge =  0 Multiplicity = 2

                         Standard orientation:
 ---------------------------------------------------------------------
 Center     Atomic      Atomic             Coordinates (Angstroms)
 Number     Number       Type             X           Y           Z
 ---------------------------------------------------------------------
      1         11           0        2.099819    2.526027    1.407374
      2         11           0       -3.720400   -1.358246    0.041982
      3         11           0        2.178100   -2.963595   -0.389313
      4         11           0       -0.201681    3.408824   -0.298165
      5         11           0       -1.273016   -3.073454    0.828277
      6         11           0        3.983049   -0.375935   -0.827362
      7         11           0       -3.065871    1.836381   -0.762793
 ---------------------------------------------------------------------

 SCF Done:  E(UB3LYP) =  -1136.10879203     A.U. after   20 cycles

 The electronic state is 2-A.
 Alpha  occ. eigenvalues --  -38.44916 -38.44630 -38.44555 -38.44496 -38.44308
 Alpha  occ. eigenvalues --  -38.44115 -38.43920  -2.20705  -2.20445  -2.20345
 Alpha  occ. eigenvalues --   -2.20324  -2.20143  -2.19938  -2.19750  -1.14380
 Alpha  occ. eigenvalues --   -1.14363  -1.14337  -1.14151  -1.14108  -1.14104
 Alpha  occ. eigenvalues --   -1.14079  -1.14014  -1.14005  -1.13987  -1.13959
 Alpha  occ. eigenvalues --   -1.13940  -1.13803  -1.13795  -1.13770  -1.13585
 Alpha  occ. eigenvalues --   -1.13582  -1.13567  -1.13394  -1.13389  -1.13381
 Alpha  occ. eigenvalues --   -0.15920  -0.13884  -0.13790  -0.10778
 Alpha virt. eigenvalues --   -0.07496  -0.04894  -0.04106  -0.03738  -0.03529
 Alpha virt. eigenvalues --   -0.02215  -0.02041  -0.01602  -0.01314  -0.01053
 Alpha virt. eigenvalues --   -0.00577  -0.00070   0.00125   0.00458   0.00768

  Beta  occ. eigenvalues --  -38.44878 -38.44631 -38.44546 -38.44434 -38.44302
  Beta  occ. eigenvalues --  -38.44062 -38.43849  -2.20639  -2.20454  -2.20332
  Beta  occ. eigenvalues --   -2.20212  -2.20140  -2.19840  -2.19617  -1.14330
  Beta  occ. eigenvalues --   -1.14320  -1.14284  -1.14139  -1.14120  -1.14085
  Beta  occ. eigenvalues --   -1.14008  -1.14008  -1.14000  -1.13949  -1.13884
  Beta  occ. eigenvalues --   -1.13865  -1.13801  -1.13797  -1.13715  -1.13523
  Beta  occ. eigenvalues --   -1.13515  -1.13501  -1.13305  -1.13302  -1.13295
  Beta  occ. eigenvalues --   -0.15390  -0.13151  -0.13078
  Beta virt. eigenvalues --   -0.07680  -0.07533  -0.04404  -0.03763  -0.03482
  Beta virt. eigenvalues --   -0.03108  -0.02081  -0.01766  -0.01387  -0.01231
  Beta virt. eigenvalues --   -0.00729  -0.00340   0.00151   0.00329   0.00484

 Mulliken charges and spin densities:
               1          2
     1  Na  -0.184003   0.247289
     2  Na   0.297071  -0.001504
     3  Na   0.026336   0.013236
     4  Na  -0.310603   0.025197
     5  Na  -0.193180   0.228492
     6  Na   0.041035   0.157422
     7  Na   0.323345   0.329868
 Sum of Mulliken charges =  -0.00000   1.00000

 Dipole moment (field-independent basis, Debye):
    X=              0.7023    Y=             -0.0836    Z=              0.0306  Tot=              0.7079
 Quadrupole moment (field-independent basis, Debye-Ang):
   XX=            -62.2822   YY=            -69.2099   ZZ=            -70.4792
   XY=              2.7133   XZ=              0.5355   YZ=             -1.5853

 Normal termination of Gaussian 16 at Mon Dec  4 05:00:18 2023.
