 Gaussian 16, Revision B.01,
 Gaussian 16:  ES64L-G16RevB.01 20-Dec-2017

 -------------------------
 #P B3LYP/6-311+g(d) force
 -------------------------

 -----
 DPGEN
 -----
 Symbolic Z-matrix:
 Charge =  0 Multiplicity = 2

                         Standard orientation:
 ---------------------------------------------------------------------
 Center     Atomic      Atomic             Coordinates (Angstroms)
 Number     Number       Type             X           Y           Z
 ---------------------------------------------------------------------
      1         11           0        0.534793   -3.026128   -0.324026
      2         11           0       -0.209202   -0.084039    1.921217
      3         11           0       -0.460738   -0.183850   -1.545070
      4         11           0       -1.655379    2.538736   -0.046061
      5         11           0        3.389238   -0.549737    0.187350
      6         11           0        1.590390    2.457093   -0.306453
      7         11           0       -3.189102   -1.152076    0.113043
 ---------------------------------------------------------------------

 SCF Done:  E(UB3LYP) =  -1136.13445518     A.U. after   20 cycles

 The electronic state is 2-A.
 Alpha  occ. eigenvalues --  -38.44519 -38.44243 -38.43970 -38.43647 -38.43404
 Alpha  occ. eigenvalues --  -38.43402 -38.42986  -2.20316  -2.20014  -2.19779
 Alpha  occ. eigenvalues --   -2.19509  -2.19289  -2.19255  -2.18961  -1.13996
 Alpha  occ. eigenvalues --   -1.13970  -1.13953  -1.13688  -1.13676  -1.13654
 Alpha  occ. eigenvalues --   -1.13481  -1.13440  -1.13393  -1.13205  -1.13177
 Alpha  occ. eigenvalues --   -1.13148  -1.12976  -1.12931  -1.12922  -1.12910
 Alpha  occ. eigenvalues --   -1.12895  -1.12888  -1.12647  -1.12598  -1.12582
 Alpha  occ. eigenvalues --   -0.18339  -0.12748  -0.12630  -0.10300
 Alpha virt. eigenvalues --   -0.06137  -0.05207  -0.04884  -0.02912  -0.02834
 Alpha virt. eigenvalues --   -0.02233  -0.01844  -0.01314  -0.00727  -0.00433
 Alpha virt. eigenvalues --   -0.00008   0.00317   0.00752   0.00792   0.00863

  Beta  occ. eigenvalues --  -38.44515 -38.44244 -38.43959 -38.43640 -38.43399
  Beta  occ. eigenvalues --  -38.43314 -38.42925  -2.20311  -2.20017  -2.19763
  Beta  occ. eigenvalues --   -2.19502  -2.19247  -2.19126  -2.18850  -1.13983
  Beta  occ. eigenvalues --   -1.13960  -1.13948  -1.13684  -1.13674  -1.13657
  Beta  occ. eigenvalues --   -1.13463  -1.13416  -1.13386  -1.13200  -1.13159
  Beta  occ. eigenvalues --   -1.13130  -1.12923  -1.12902  -1.12878  -1.12864
  Beta  occ. eigenvalues --   -1.12803  -1.12776  -1.12565  -1.12518  -1.12500
  Beta  occ. eigenvalues --   -0.17638  -0.12563  -0.12360
  Beta virt. eigenvalues --   -0.06466  -0.06074  -0.05181  -0.04831  -0.02232
  Beta virt. eigenvalues --   -0.02081  -0.01747  -0.01250  -0.01183  -0.00767
  Beta virt. eigenvalues --   -0.00473   0.00139   0.00356   0.00760   0.00837

 Mulliken charges and spin densities:
               1          2
     1  Na   0.022122  -0.105302
     2  Na  -0.379930   0.822813
     3  Na  -0.035181   0.426086
     4  Na   0.292406  -0.007357
     5  Na  -0.031812  -0.024954
     6  Na  -0.037133  -0.013454
     7  Na   0.169528  -0.097832
 Sum of Mulliken charges =  -0.00000   1.00000

 Dipole moment (field-independent basis, Debye):
    X=             -0.3072    Y=             -0.3276    Z=              0.1272  Tot=              0.4668
 Quadrupole moment (field-independent basis, Debye-Ang):
   XX=            -53.6781   YY=            -61.0769   ZZ=            -76.9961
   XY=              0.0354   XZ=             -0.3191   YZ=             -0.3076

 Normal termination of Gaussian 16 at Thu Dec  7 21:31:03 2023.
