 Gaussian 16, Revision B.01,
 Gaussian 16:  ES64L-G16RevB.01 20-Dec-2017

 -------------------------
 #P B3LYP/6-311+g(d) force
 -------------------------

 -----
 DPGEN
 -----
 Symbolic Z-matrix:
 Charge =  0 Multiplicity = 2

                         Standard orientation:
 ---------------------------------------------------------------------
 Center     Atomic      Atomic             Coordinates (Angstroms)
 Number     Number       Type             X           Y           Z
 ---------------------------------------------------------------------
      1         11           0       -0.173445   -2.084318   -0.916470
      2         11           0       -3.652498   -0.208054   -0.855903
      3         11           0        0.118616    1.590496    0.427453
      4         11           0        5.918886   -0.061108    0.679756
      5         11           0        3.030371    0.088833   -0.976280
      6         11           0       -2.528878    3.319780    0.285440
      7         11           0       -2.713052   -2.645629    1.356004
 ---------------------------------------------------------------------

 SCF Done:  E(UB3LYP) =  -1136.11935589     A.U. after   20 cycles

 The electronic state is 2-A.
 Alpha  occ. eigenvalues --  -38.45214 -38.44620 -38.44425 -38.44338 -38.43892
 Alpha  occ. eigenvalues --  -38.43260 -38.43218  -2.20997  -2.20415  -2.20230
 Alpha  occ. eigenvalues --   -2.20145  -2.19718  -2.19068  -2.19023  -1.14695
 Alpha  occ. eigenvalues --   -1.14656  -1.14595  -1.14083  -1.14079  -1.14047
 Alpha  occ. eigenvalues --   -1.13923  -1.13901  -1.13816  -1.13776  -1.13775
 Alpha  occ. eigenvalues --   -1.13766  -1.13407  -1.13385  -1.13351  -1.12756
 Alpha  occ. eigenvalues --   -1.12748  -1.12718  -1.12694  -1.12682  -1.12659
 Alpha  occ. eigenvalues --   -0.16582  -0.13749  -0.12212  -0.11012
 Alpha virt. eigenvalues --   -0.06518  -0.05485  -0.04602  -0.03672  -0.02708
 Alpha virt. eigenvalues --   -0.02308  -0.02012  -0.01627  -0.01139  -0.00749
 Alpha virt. eigenvalues --   -0.00496  -0.00225   0.00232   0.00417   0.00583

  Beta  occ. eigenvalues --  -38.45181 -38.44613 -38.44387 -38.44228 -38.43872
  Beta  occ. eigenvalues --  -38.43263 -38.43219  -2.20935  -2.20403  -2.20159
  Beta  occ. eigenvalues --   -2.19940  -2.19682  -2.19082  -2.19025  -1.14647
  Beta  occ. eigenvalues --   -1.14617  -1.14550  -1.14074  -1.14062  -1.14040
  Beta  occ. eigenvalues --   -1.13877  -1.13854  -1.13760  -1.13636  -1.13635
  Beta  occ. eigenvalues --   -1.13632  -1.13383  -1.13362  -1.13322  -1.12774
  Beta  occ. eigenvalues --   -1.12764  -1.12695  -1.12683  -1.12666  -1.12657
  Beta  occ. eigenvalues --   -0.16077  -0.12903  -0.12126
  Beta virt. eigenvalues --   -0.07556  -0.06299  -0.05024  -0.04244  -0.03498
  Beta virt. eigenvalues --   -0.02479  -0.02166  -0.01644  -0.01139  -0.00918
  Beta virt. eigenvalues --   -0.00464  -0.00325   0.00007   0.00370   0.00503

 Mulliken charges and spin densities:
               1          2
     1  Na  -0.347284   0.100530
     2  Na   0.074510   0.319421
     3  Na  -1.171206  -0.066890
     4  Na   0.181771   0.537946
     5  Na   0.100446  -0.038085
     6  Na   0.878080   0.072644
     7  Na   0.283684   0.074434
 Sum of Mulliken charges =  -0.00000   1.00000

 Dipole moment (field-independent basis, Debye):
    X=             -1.5219    Y=             -1.0538    Z=              0.3838  Tot=              1.8904
 Quadrupole moment (field-independent basis, Debye-Ang):
   XX=            -65.8487   YY=            -69.1437   ZZ=            -64.2940
   XY=              0.1964   XZ=              2.4883   YZ=             -1.5766

 Normal termination of Gaussian 16 at Mon Dec  4 00:49:56 2023.
