 Gaussian 16, Revision B.01,
 Gaussian 16:  ES64L-G16RevB.01 20-Dec-2017

 -------------------------
 #P B3LYP/6-311+g(d) force
 -------------------------

 -----
 DPGEN
 -----
 Symbolic Z-matrix:
 Charge =  0 Multiplicity = 2

                         Standard orientation:
 ---------------------------------------------------------------------
 Center     Atomic      Atomic             Coordinates (Angstroms)
 Number     Number       Type             X           Y           Z
 ---------------------------------------------------------------------
      1         11           0        0.072145    0.208719   -1.844157
      2         11           0       -1.248276   -2.392882   -0.479196
      3         11           0        2.819617    1.315744   -0.545077
      4         11           0       -0.079538   -0.096469    2.048761
      5         11           0        2.274327   -1.912091    0.501279
      6         11           0       -3.223308    0.230658   -0.111360
      7         11           0       -0.614967    2.646321    0.429749
 ---------------------------------------------------------------------

 SCF Done:  E(UB3LYP) =  -1136.13707209     A.U. after   19 cycles

 The electronic state is 2-A.
 Alpha  occ. eigenvalues --  -38.44200 -38.43920 -38.43891 -38.43712 -38.43485
 Alpha  occ. eigenvalues --  -38.43051 -38.43015  -2.20029  -2.19836  -2.19730
 Alpha  occ. eigenvalues --   -2.19664  -2.19331  -2.18935  -2.18885  -1.13701
 Alpha  occ. eigenvalues --   -1.13695  -1.13670  -1.13506  -1.13477  -1.13457
 Alpha  occ. eigenvalues --   -1.13453  -1.13382  -1.13362  -1.13337  -1.13301
 Alpha  occ. eigenvalues --   -1.13268  -1.13014  -1.12979  -1.12966  -1.12633
 Alpha  occ. eigenvalues --   -1.12594  -1.12584  -1.12552  -1.12551  -1.12494
 Alpha  occ. eigenvalues --   -0.18756  -0.13124  -0.12149  -0.11373
 Alpha virt. eigenvalues --   -0.05750  -0.04881  -0.04188  -0.03456  -0.03090
 Alpha virt. eigenvalues --   -0.02973  -0.01640  -0.00910  -0.00215  -0.00010
 Alpha virt. eigenvalues --    0.00042   0.00359   0.00806   0.00892   0.00921

  Beta  occ. eigenvalues --  -38.44200 -38.43879 -38.43828 -38.43640 -38.43475
  Beta  occ. eigenvalues --  -38.43041 -38.43005  -2.20031  -2.19710  -2.19668
  Beta  occ. eigenvalues --   -2.19532  -2.19314  -2.18919  -2.18869  -1.13703
  Beta  occ. eigenvalues --   -1.13687  -1.13665  -1.13419  -1.13395  -1.13362
  Beta  occ. eigenvalues --   -1.13352  -1.13349  -1.13338  -1.13251  -1.13213
  Beta  occ. eigenvalues --   -1.13178  -1.12990  -1.12962  -1.12955  -1.12615
  Beta  occ. eigenvalues --   -1.12577  -1.12567  -1.12533  -1.12526  -1.12483
  Beta  occ. eigenvalues --   -0.18009  -0.12869  -0.11864
  Beta virt. eigenvalues --   -0.07443  -0.05692  -0.04842  -0.04147  -0.02705
  Beta virt. eigenvalues --   -0.02296  -0.01929  -0.01547  -0.00828  -0.00161
  Beta virt. eigenvalues --   -0.00037   0.00096   0.00380   0.00887   0.00911

 Mulliken charges and spin densities:
               1          2
     1  Na  -0.196516   0.507450
     2  Na   0.161049   0.010300
     3  Na   0.119799  -0.018368
     4  Na  -0.287853   0.593342
     5  Na   0.065954   0.021463
     6  Na   0.030511  -0.097237
     7  Na   0.107056  -0.016951
 Sum of Mulliken charges =  -0.00000   1.00000

 Dipole moment (field-independent basis, Debye):
    X=             -0.1033    Y=              0.0953    Z=              0.0512  Tot=              0.1496
 Quadrupole moment (field-independent basis, Debye-Ang):
   XX=            -55.7308   YY=            -67.6188   ZZ=            -71.2405
   XY=             -0.2237   XZ=              0.0926   YZ=              0.0060

 Normal termination of Gaussian 16 at Tue Dec  5 14:03:00 2023.
