 Gaussian 16, Revision B.01,
 Gaussian 16:  ES64L-G16RevB.01 20-Dec-2017

 -------------------------
 #P B3LYP/6-311+g(d) force
 -------------------------

 -----
 DPGEN
 -----
 Symbolic Z-matrix:
 Charge =  0 Multiplicity = 2

                         Standard orientation:
 ---------------------------------------------------------------------
 Center     Atomic      Atomic             Coordinates (Angstroms)
 Number     Number       Type             X           Y           Z
 ---------------------------------------------------------------------
      1         11           0       -3.054469   -1.665043    0.016278
      2         11           0        1.800426    1.979378   -0.646658
      3         11           0       -0.060234   -0.338588    2.019341
      4         11           0        3.548680   -0.395270    0.283494
      5         11           0        0.445619   -2.923242   -0.643982
      6         11           0       -0.799969    0.296246   -1.219375
      7         11           0       -1.880052    3.046519    0.190902
 ---------------------------------------------------------------------

 SCF Done:  E(UB3LYP) =  -1136.12595653     A.U. after   20 cycles

 The electronic state is 2-A.
 Alpha  occ. eigenvalues --  -38.44850 -38.44330 -38.44100 -38.44089 -38.43667
 Alpha  occ. eigenvalues --  -38.43460 -38.42865  -2.20645  -2.20122  -2.19893
 Alpha  occ. eigenvalues --   -2.19880  -2.19543  -2.19320  -2.18868  -1.14337
 Alpha  occ. eigenvalues --   -1.14299  -1.14268  -1.13809  -1.13787  -1.13735
 Alpha  occ. eigenvalues --   -1.13613  -1.13560  -1.13547  -1.13534  -1.13523
 Alpha  occ. eigenvalues --   -1.13523  -1.13261  -1.13192  -1.13145  -1.13007
 Alpha  occ. eigenvalues --   -1.12940  -1.12925  -1.12566  -1.12541  -1.12468
 Alpha  occ. eigenvalues --   -0.18055  -0.12978  -0.12322  -0.10135
 Alpha virt. eigenvalues --   -0.06307  -0.05645  -0.04587  -0.02968  -0.02730
 Alpha virt. eigenvalues --   -0.02157  -0.01940  -0.01701  -0.00730  -0.00344
 Alpha virt. eigenvalues --   -0.00024   0.00270   0.00613   0.00711   0.00785

  Beta  occ. eigenvalues --  -38.44849 -38.44312 -38.44103 -38.44091 -38.43652
  Beta  occ. eigenvalues --  -38.43360 -38.42827  -2.20644  -2.20091  -2.19897
  Beta  occ. eigenvalues --   -2.19888  -2.19516  -2.19135  -2.18802  -1.14334
  Beta  occ. eigenvalues --   -1.14283  -1.14268  -1.13783  -1.13753  -1.13715
  Beta  occ. eigenvalues --   -1.13617  -1.13563  -1.13538  -1.13532  -1.13526
  Beta  occ. eigenvalues --   -1.13525  -1.13239  -1.13159  -1.13131  -1.12883
  Beta  occ. eigenvalues --   -1.12812  -1.12793  -1.12519  -1.12476  -1.12417
  Beta  occ. eigenvalues --   -0.17364  -0.12786  -0.12142
  Beta virt. eigenvalues --   -0.06293  -0.06257  -0.05542  -0.04516  -0.02310
  Beta virt. eigenvalues --   -0.02109  -0.01861  -0.01609  -0.01151  -0.00704
  Beta virt. eigenvalues --   -0.00340   0.00149   0.00333   0.00653   0.00773

 Mulliken charges and spin densities:
               1          2
     1  Na   0.217172   0.047692
     2  Na  -0.134308   0.041517
     3  Na  -0.382702   0.761020
     4  Na   0.108882   0.003052
     5  Na  -0.091326   0.063158
     6  Na   0.247402   0.077627
     7  Na   0.034880   0.005935
 Sum of Mulliken charges =  -0.00000   1.00000

 Dipole moment (field-independent basis, Debye):
    X=             -0.6123    Y=             -0.4219    Z=              0.2199  Tot=              0.7754
 Quadrupole moment (field-independent basis, Debye-Ang):
   XX=            -53.3402   YY=            -59.8869   ZZ=            -77.6177
   XY=             -1.2953   XZ=             -1.1844   YZ=              1.4310

 Normal termination of Gaussian 16 at Tue Dec  5 10:01:22 2023.
