 Gaussian 16, Revision B.01,
 Gaussian 16:  ES64L-G16RevB.01 20-Dec-2017

 -------------------------
 #P B3LYP/6-311+g(d) force
 -------------------------

 -----
 DPGEN
 -----
 Symbolic Z-matrix:
 Charge =  0 Multiplicity = 2

                         Standard orientation:
 ---------------------------------------------------------------------
 Center     Atomic      Atomic             Coordinates (Angstroms)
 Number     Number       Type             X           Y           Z
 ---------------------------------------------------------------------
      1         11           0        0.504136   -2.683763    0.372300
      2         11           0       -2.308205    2.079610    0.256694
      3         11           0        0.467506   -0.085512    2.119106
      4         11           0        2.919586   -0.824293   -0.824490
      5         11           0       -0.447260    0.320910   -1.440736
      6         11           0       -3.002552   -1.338186   -0.426818
      7         11           0        1.866788    2.531235   -0.056054
 ---------------------------------------------------------------------

 SCF Done:  E(UB3LYP) =  -1136.13359999     A.U. after   20 cycles

 The electronic state is 2-A.
 Alpha  occ. eigenvalues --  -38.44181 -38.44087 -38.43981 -38.43681 -38.43603
 Alpha  occ. eigenvalues --  -38.43223 -38.42973  -2.20012  -2.19910  -2.19829
 Alpha  occ. eigenvalues --   -2.19577  -2.19411  -2.19215  -2.18861  -1.13736
 Alpha  occ. eigenvalues --   -1.13674  -1.13628  -1.13605  -1.13558  -1.13532
 Alpha  occ. eigenvalues --   -1.13503  -1.13480  -1.13465  -1.13258  -1.13202
 Alpha  occ. eigenvalues --   -1.13192  -1.13090  -1.13075  -1.13049  -1.12905
 Alpha  occ. eigenvalues --   -1.12863  -1.12832  -1.12555  -1.12518  -1.12483
 Alpha  occ. eigenvalues --   -0.18480  -0.13240  -0.12165  -0.10818
 Alpha virt. eigenvalues --   -0.05659  -0.05450  -0.04385  -0.03348  -0.02853
 Alpha virt. eigenvalues --   -0.02571  -0.01627  -0.01231  -0.00374  -0.00288
 Alpha virt. eigenvalues --    0.00016   0.00330   0.00755   0.00807   0.00910

  Beta  occ. eigenvalues --  -38.44178 -38.44080 -38.43955 -38.43601 -38.43579
  Beta  occ. eigenvalues --  -38.43183 -38.42962  -2.20009  -2.19899  -2.19781
  Beta  occ. eigenvalues --   -2.19411  -2.19390  -2.19143  -2.18846  -1.13733
  Beta  occ. eigenvalues --   -1.13663  -1.13621  -1.13590  -1.13548  -1.13527
  Beta  occ. eigenvalues --   -1.13468  -1.13438  -1.13434  -1.13134  -1.13090
  Beta  occ. eigenvalues --   -1.13080  -1.13066  -1.13053  -1.13037  -1.12847
  Beta  occ. eigenvalues --   -1.12814  -1.12779  -1.12537  -1.12487  -1.12472
  Beta  occ. eigenvalues --   -0.17789  -0.12978  -0.11938
  Beta virt. eigenvalues --   -0.06941  -0.05633  -0.05314  -0.04333  -0.02662
  Beta virt. eigenvalues --   -0.02113  -0.01596  -0.01493  -0.01152  -0.00379
  Beta virt. eigenvalues --   -0.00238   0.00130   0.00382   0.00804   0.00855

 Mulliken charges and spin densities:
               1          2
     1  Na   0.247940   0.105222
     2  Na   0.056699   0.033508
     3  Na  -0.334642   0.604206
     4  Na   0.037807   0.109235
     5  Na  -0.160041   0.154463
     6  Na   0.127897  -0.019903
     7  Na   0.024340   0.013269
 Sum of Mulliken charges =  -0.00000   1.00000

 Dipole moment (field-independent basis, Debye):
    X=             -0.3303    Y=              0.2611    Z=              0.1045  Tot=              0.4338
 Quadrupole moment (field-independent basis, Debye-Ang):
   XX=            -55.9184   YY=            -63.8074   ZZ=            -73.6407
   XY=              0.4554   XZ=             -1.9939   YZ=              1.7237

 Normal termination of Gaussian 16 at Thu Dec  7 10:32:59 2023.
