 Gaussian 16, Revision B.01,
 Gaussian 16:  ES64L-G16RevB.01 20-Dec-2017

 -------------------------
 #P B3LYP/6-311+g(d) force
 -------------------------

 -----
 DPGEN
 -----
 Symbolic Z-matrix:
 Charge =  0 Multiplicity = 2

                         Standard orientation:
 ---------------------------------------------------------------------
 Center     Atomic      Atomic             Coordinates (Angstroms)
 Number     Number       Type             X           Y           Z
 ---------------------------------------------------------------------
      1         11           0        2.216586    1.497848   -0.141224
      2         11           0        5.495893    0.195995    0.290472
      3         11           0        3.555677   -1.831465   -0.095405
      4         11           0        0.232456   -1.159884   -0.356024
      5         11           0       -1.216428    2.275581   -0.116290
      6         11           0       -3.743979   -0.444990    0.620140
      7         11           0       -6.540205   -0.533085   -0.201669
 ---------------------------------------------------------------------

 SCF Done:  E(UB3LYP) =  -1136.11666381     A.U. after   21 cycles

 The electronic state is 2-A.
 Alpha  occ. eigenvalues --  -38.44585 -38.44419 -38.44308 -38.44253 -38.44072
 Alpha  occ. eigenvalues --  -38.43923 -38.43633  -2.20446  -2.20232  -2.20221
 Alpha  occ. eigenvalues --   -2.20129  -2.19943  -2.19733  -2.19475  -1.14154
 Alpha  occ. eigenvalues --   -1.14143  -1.14103  -1.14037  -1.13893  -1.13879
 Alpha  occ. eigenvalues --   -1.13877  -1.13870  -1.13839  -1.13751  -1.13746
 Alpha  occ. eigenvalues --   -1.13668  -1.13618  -1.13610  -1.13527  -1.13506
 Alpha  occ. eigenvalues --   -1.13376  -1.13375  -1.13136  -1.13127  -1.13067
 Alpha  occ. eigenvalues --   -0.17380  -0.14394  -0.12088  -0.11232
 Alpha virt. eigenvalues --   -0.06727  -0.05541  -0.04345  -0.03515  -0.03008
 Alpha virt. eigenvalues --   -0.02628  -0.02339  -0.01375  -0.01010  -0.00619
 Alpha virt. eigenvalues --   -0.00394   0.00027   0.00113   0.00347   0.00742

  Beta  occ. eigenvalues --  -38.44553 -38.44390 -38.44276 -38.44223 -38.43998
  Beta  occ. eigenvalues --  -38.43929 -38.43632  -2.20391  -2.20178  -2.20167
  Beta  occ. eigenvalues --   -2.20073  -2.19811  -2.19745  -2.19471  -1.14110
  Beta  occ. eigenvalues --   -1.14098  -1.14050  -1.13991  -1.13857  -1.13848
  Beta  occ. eigenvalues --   -1.13836  -1.13827  -1.13805  -1.13713  -1.13699
  Beta  occ. eigenvalues --   -1.13618  -1.13532  -1.13524  -1.13513  -1.13412
  Beta  occ. eigenvalues --   -1.13384  -1.13383  -1.13130  -1.13124  -1.13072
  Beta  occ. eigenvalues --   -0.16640  -0.14279  -0.11954
  Beta virt. eigenvalues --   -0.07270  -0.06602  -0.04904  -0.04129  -0.03360
  Beta virt. eigenvalues --   -0.02668  -0.02268  -0.01868  -0.01323  -0.00861
  Beta virt. eigenvalues --   -0.00295  -0.00006   0.00190   0.00241   0.00509

 Mulliken charges and spin densities:
               1          2
     1  Na  -0.327864   0.147657
     2  Na   0.518018   0.133308
     3  Na   1.049470  -0.105917
     4  Na  -1.061100   0.629739
     5  Na   0.097840   0.262353
     6  Na  -0.868817  -0.017277
     7  Na   0.592452  -0.049863
 Sum of Mulliken charges =  -0.00000   1.00000

 Dipole moment (field-independent basis, Debye):
    X=              0.9512    Y=              0.4604    Z=             -0.1743  Tot=              1.0710
 Quadrupole moment (field-independent basis, Debye-Ang):
   XX=            -56.9065   YY=            -68.0279   ZZ=            -72.5107
   XY=             -2.7427   XZ=              3.4601   YZ=             -0.2144

 Normal termination of Gaussian 16 at Wed Nov 29 00:59:52 2023.
