 Gaussian 16, Revision B.01,
 Gaussian 16:  ES64L-G16RevB.01 20-Dec-2017

 -------------------------
 #P B3LYP/6-311+g(d) force
 -------------------------

 -----
 DPGEN
 -----
 Symbolic Z-matrix:
 Charge =  0 Multiplicity = 2

                         Standard orientation:
 ---------------------------------------------------------------------
 Center     Atomic      Atomic             Coordinates (Angstroms)
 Number     Number       Type             X           Y           Z
 ---------------------------------------------------------------------
      1         11           0       -3.191704   -1.918952   -0.136022
      2         11           0        1.256533   -2.487305   -0.137531
      3         11           0        3.453142   -0.209447    0.130019
      4         11           0       -2.704328    1.840238    0.014805
      5         11           0        0.232026   -0.040460   -1.663123
      6         11           0       -0.016537    0.024301    2.049844
      7         11           0        0.970869    2.791625   -0.257993
 ---------------------------------------------------------------------

 SCF Done:  E(UB3LYP) =  -1136.12726912     A.U. after   20 cycles

 The electronic state is 2-A.
 Alpha  occ. eigenvalues --  -38.44906 -38.44537 -38.44448 -38.43769 -38.43490
 Alpha  occ. eigenvalues --  -38.43485 -38.43057  -2.20722  -2.20307  -2.20180
 Alpha  occ. eigenvalues --   -2.19621  -2.19434  -2.19375  -2.18888  -1.14399
 Alpha  occ. eigenvalues --   -1.14382  -1.14360  -1.13994  -1.13969  -1.13934
 Alpha  occ. eigenvalues --   -1.13860  -1.13839  -1.13820  -1.13301  -1.13250
 Alpha  occ. eigenvalues --   -1.13233  -1.13217  -1.13105  -1.13042  -1.13022
 Alpha  occ. eigenvalues --   -1.12994  -1.12988  -1.12579  -1.12547  -1.12513
 Alpha  occ. eigenvalues --   -0.18162  -0.13132  -0.11866  -0.10482
 Alpha virt. eigenvalues --   -0.06377  -0.05743  -0.04277  -0.03243  -0.02566
 Alpha virt. eigenvalues --   -0.02480  -0.02115  -0.01474  -0.00660  -0.00384
 Alpha virt. eigenvalues --   -0.00087   0.00266   0.00643   0.00764   0.00775

  Beta  occ. eigenvalues --  -38.44903 -38.44537 -38.44454 -38.43674 -38.43473
  Beta  occ. eigenvalues --  -38.43423 -38.43049  -2.20720  -2.20308  -2.20192
  Beta  occ. eigenvalues --   -2.19447  -2.19361  -2.19309  -2.18878  -1.14401
  Beta  occ. eigenvalues --   -1.14362  -1.14356  -1.13979  -1.13971  -1.13940
  Beta  occ. eigenvalues --   -1.13860  -1.13848  -1.13828  -1.13191  -1.13158
  Beta  occ. eigenvalues --   -1.13126  -1.13107  -1.13020  -1.12993  -1.12987
  Beta  occ. eigenvalues --   -1.12950  -1.12926  -1.12566  -1.12522  -1.12509
  Beta  occ. eigenvalues --   -0.17415  -0.12983  -0.11645
  Beta virt. eigenvalues --   -0.06568  -0.06268  -0.05759  -0.04252  -0.02513
  Beta virt. eigenvalues --   -0.02037  -0.01858  -0.01454  -0.01354  -0.00727
  Beta virt. eigenvalues --   -0.00394   0.00079   0.00297   0.00709   0.00759

 Mulliken charges and spin densities:
               1          2
     1  Na  -0.084532  -0.112515
     2  Na   0.167791  -0.078771
     3  Na   0.236360   0.031982
     4  Na   0.007676  -0.100560
     5  Na   0.031465   0.605745
     6  Na  -0.330403   0.753588
     7  Na  -0.028356  -0.099469
 Sum of Mulliken charges =  -0.00000   1.00000

 Dipole moment (field-independent basis, Debye):
    X=              0.0925    Y=              0.0733    Z=              0.1662  Tot=              0.2039
 Quadrupole moment (field-independent basis, Debye-Ang):
   XX=            -50.4546   YY=            -65.4809   ZZ=            -76.3980
   XY=             -0.1269   XZ=              0.6788   YZ=              0.0910

 Normal termination of Gaussian 16 at Thu Dec  7 23:41:38 2023.
