 Gaussian 16, Revision B.01,
 Gaussian 16:  ES64L-G16RevB.01 20-Dec-2017

 -------------------------
 #P B3LYP/6-311+g(d) force
 -------------------------

 -----
 DPGEN
 -----
 Symbolic Z-matrix:
 Charge =  0 Multiplicity = 2

                         Standard orientation:
 ---------------------------------------------------------------------
 Center     Atomic      Atomic             Coordinates (Angstroms)
 Number     Number       Type             X           Y           Z
 ---------------------------------------------------------------------
      1         11           0       -2.031795   -2.227298    0.128429
      2         11           0       -0.445932   -0.076885   -1.508411
      3         11           0        1.887041   -2.558579   -0.295117
      4         11           0        2.940016    0.374825    0.034141
      5         11           0        0.199132    0.421859    2.092806
      6         11           0        0.621677    3.157453   -0.475853
      7         11           0       -3.170140    0.908625    0.024006
 ---------------------------------------------------------------------

 SCF Done:  E(UB3LYP) =  -1136.13381534     A.U. after   21 cycles

 The electronic state is 2-A.
 Alpha  occ. eigenvalues --  -38.44531 -38.43958 -38.43915 -38.43583 -38.43554
 Alpha  occ. eigenvalues --  -38.43431 -38.43174  -2.20354  -2.19811  -2.19782
 Alpha  occ. eigenvalues --   -2.19446  -2.19352  -2.19263  -2.19144  -1.14038
 Alpha  occ. eigenvalues --   -1.14012  -1.13990  -1.13525  -1.13477  -1.13466
 Alpha  occ. eigenvalues --   -1.13455  -1.13430  -1.13420  -1.13111  -1.13072
 Alpha  occ. eigenvalues --   -1.13062  -1.13027  -1.13002  -1.12995  -1.12938
 Alpha  occ. eigenvalues --   -1.12918  -1.12904  -1.12835  -1.12777  -1.12767
 Alpha  occ. eigenvalues --   -0.18352  -0.13317  -0.12194  -0.10480
 Alpha virt. eigenvalues --   -0.05915  -0.05227  -0.04872  -0.03302  -0.02707
 Alpha virt. eigenvalues --   -0.02358  -0.01671  -0.01267  -0.00536  -0.00514
 Alpha virt. eigenvalues --   -0.00011   0.00350   0.00763   0.00810   0.00852

  Beta  occ. eigenvalues --  -38.44529 -38.43954 -38.43910 -38.43544 -38.43487
  Beta  occ. eigenvalues --  -38.43429 -38.43121  -2.20352  -2.19805  -2.19777
  Beta  occ. eigenvalues --   -2.19336  -2.19268  -2.19259  -2.19048  -1.14033
  Beta  occ. eigenvalues --   -1.13996  -1.13992  -1.13517  -1.13475  -1.13444
  Beta  occ. eigenvalues --   -1.13429  -1.13428  -1.13415  -1.13007  -1.12997
  Beta  occ. eigenvalues --   -1.12990  -1.12983  -1.12945  -1.12936  -1.12933
  Beta  occ. eigenvalues --   -1.12905  -1.12899  -1.12763  -1.12710  -1.12696
  Beta  occ. eigenvalues --   -0.17658  -0.13120  -0.11966
  Beta virt. eigenvalues --   -0.06609  -0.05885  -0.05152  -0.04807  -0.02517
  Beta virt. eigenvalues --   -0.02035  -0.01587  -0.01341  -0.01176  -0.00577
  Beta virt. eigenvalues --   -0.00540   0.00152   0.00388   0.00781   0.00847

 Mulliken charges and spin densities:
               1          2
     1  Na   0.115641   0.057518
     2  Na  -0.165162   0.370617
     3  Na  -0.027810  -0.036322
     4  Na   0.306179   0.073181
     5  Na  -0.422075   0.640939
     6  Na   0.007624  -0.043727
     7  Na   0.185602  -0.062207
 Sum of Mulliken charges =  -0.00000   1.00000

 Dipole moment (field-independent basis, Debye):
    X=             -0.5836    Y=              0.1188    Z=              0.1497  Tot=              0.6141
 Quadrupole moment (field-independent basis, Debye-Ang):
   XX=            -56.1523   YY=            -61.1873   ZZ=            -75.9129
   XY=             -0.4464   XZ=             -1.2256   YZ=             -1.0015

 Normal termination of Gaussian 16 at Thu Dec  7 12:31:27 2023.
