 Gaussian 16, Revision B.01,
 Gaussian 16:  ES64L-G16RevB.01 20-Dec-2017

 -------------------------
 #P B3LYP/6-311+g(d) force
 -------------------------

 -----
 DPGEN
 -----
 Symbolic Z-matrix:
 Charge =  0 Multiplicity = 2

                         Standard orientation:
 ---------------------------------------------------------------------
 Center     Atomic      Atomic             Coordinates (Angstroms)
 Number     Number       Type             X           Y           Z
 ---------------------------------------------------------------------
      1         11           0        1.430950   -1.698997   -0.649254
      2         11           0        0.013568   -0.293802    1.740411
      3         11           0        3.735890   -0.242478    0.512167
      4         11           0       -3.376959   -1.148089    0.552893
      5         11           0       -1.969773    2.189456    0.166531
      6         11           0        1.544074    1.855563   -0.688955
      7         11           0       -1.377750   -0.661653   -1.633792
 ---------------------------------------------------------------------

 SCF Done:  E(UB3LYP) =  -1136.11887662     A.U. after   25 cycles

 The electronic state is 2-A.
 Alpha  occ. eigenvalues --  -38.45325 -38.44837 -38.44640 -38.43401 -38.43353
 Alpha  occ. eigenvalues --  -38.43067 -38.43016  -2.21195  -2.20679  -2.20543
 Alpha  occ. eigenvalues --   -2.19383  -2.19329  -2.18916  -2.18892  -1.14898
 Alpha  occ. eigenvalues --   -1.14845  -1.14821  -1.14397  -1.14320  -1.14308
 Alpha  occ. eigenvalues --   -1.14277  -1.14175  -1.14142  -1.13142  -1.13058
 Alpha  occ. eigenvalues --   -1.12999  -1.12977  -1.12963  -1.12920  -1.12595
 Alpha  occ. eigenvalues --   -1.12591  -1.12574  -1.12559  -1.12548  -1.12508
 Alpha  occ. eigenvalues --   -0.19046  -0.14520  -0.11123  -0.10885
 Alpha virt. eigenvalues --   -0.07215  -0.05253  -0.04329  -0.03135  -0.02877
 Alpha virt. eigenvalues --   -0.02268  -0.02127  -0.01084  -0.00715  -0.00116
 Alpha virt. eigenvalues --    0.00112   0.00272   0.00368   0.00685   0.00808

  Beta  occ. eigenvalues --  -38.45318 -38.44833 -38.44584 -38.43367 -38.43289
  Beta  occ. eigenvalues --  -38.43062 -38.43000  -2.21182  -2.20674  -2.20442
  Beta  occ. eigenvalues --   -2.19328  -2.19214  -2.18910  -2.18865  -1.14892
  Beta  occ. eigenvalues --   -1.14833  -1.14803  -1.14392  -1.14311  -1.14297
  Beta  occ. eigenvalues --   -1.14200  -1.14106  -1.14065  -1.13084  -1.12995
  Beta  occ. eigenvalues --   -1.12958  -1.12898  -1.12880  -1.12838  -1.12588
  Beta  occ. eigenvalues --   -1.12579  -1.12560  -1.12538  -1.12514  -1.12498
  Beta  occ. eigenvalues --   -0.18297  -0.14339  -0.10879
  Beta virt. eigenvalues --   -0.07061  -0.06957  -0.05224  -0.03695  -0.03002
  Beta virt. eigenvalues --   -0.02642  -0.01609  -0.01326  -0.01019  -0.00391
  Beta virt. eigenvalues --   -0.00063   0.00145   0.00273   0.00540   0.00723

 Mulliken charges and spin densities:
               1          2
     1  Na  -0.475559   0.182266
     2  Na  -0.179062   0.319373
     3  Na   1.015398   0.139383
     4  Na   0.123032   0.106180
     5  Na  -0.277529   0.084862
     6  Na  -0.685342   0.059309
     7  Na   0.479062   0.108627
 Sum of Mulliken charges =  -0.00000   1.00000

 Dipole moment (field-independent basis, Debye):
    X=              0.3785    Y=             -0.0556    Z=              0.4893  Tot=              0.6211
 Quadrupole moment (field-independent basis, Debye-Ang):
   XX=            -43.9763   YY=            -77.3189   ZZ=            -71.4845
   XY=              0.6616   XZ=              0.0091   YZ=             -1.0427

 Normal termination of Gaussian 16 at Fri Dec  8 05:31:13 2023.
