 Gaussian 16, Revision B.01,
 Gaussian 16:  ES64L-G16RevB.01 20-Dec-2017

 -------------------------
 #P B3LYP/6-311+g(d) force
 -------------------------

 -----
 DPGEN
 -----
 Symbolic Z-matrix:
 Charge =  0 Multiplicity = 2

                         Standard orientation:
 ---------------------------------------------------------------------
 Center     Atomic      Atomic             Coordinates (Angstroms)
 Number     Number       Type             X           Y           Z
 ---------------------------------------------------------------------
      1         11           0        2.290788   -2.080401    0.104298
      2         11           0        2.383281    1.811680    0.424251
      3         11           0        0.908438    0.224456   -1.875244
      4         11           0       -1.006368    2.397285   -0.436966
      5         11           0       -1.044980   -2.022160   -0.669142
      6         11           0       -3.322753   -0.152389    0.055967
      7         11           0       -0.208405   -0.178472    2.396836
 ---------------------------------------------------------------------

 SCF Done:  E(UB3LYP) =  -1136.13309798     A.U. after   19 cycles

 The electronic state is 2-A.
 Alpha  occ. eigenvalues --  -38.44716 -38.43923 -38.43808 -38.43696 -38.43467
 Alpha  occ. eigenvalues --  -38.43206 -38.43072  -2.20544  -2.19769  -2.19674
 Alpha  occ. eigenvalues --   -2.19653  -2.19304  -2.19065  -2.19000  -1.14195
 Alpha  occ. eigenvalues --   -1.14174  -1.14162  -1.13486  -1.13419  -1.13412
 Alpha  occ. eigenvalues --   -1.13407  -1.13364  -1.13314  -1.13304  -1.13273
 Alpha  occ. eigenvalues --   -1.13251  -1.12972  -1.12965  -1.12949  -1.12766
 Alpha  occ. eigenvalues --   -1.12728  -1.12691  -1.12675  -1.12652  -1.12620
 Alpha  occ. eigenvalues --   -0.18672  -0.13027  -0.12088  -0.11646
 Alpha virt. eigenvalues --   -0.05607  -0.05069  -0.04054  -0.03602  -0.03342
 Alpha virt. eigenvalues --   -0.03123  -0.01411  -0.00942  -0.00245   0.00044
 Alpha virt. eigenvalues --    0.00192   0.00373   0.00730   0.00759   0.00915

  Beta  occ. eigenvalues --  -38.44613 -38.43925 -38.43802 -38.43634 -38.43466
  Beta  occ. eigenvalues --  -38.43197 -38.43055  -2.20353  -2.19775  -2.19645
  Beta  occ. eigenvalues --   -2.19560  -2.19305  -2.19052  -2.18974  -1.14069
  Beta  occ. eigenvalues --   -1.14040  -1.14023  -1.13491  -1.13414  -1.13402
  Beta  occ. eigenvalues --   -1.13385  -1.13302  -1.13279  -1.13273  -1.13220
  Beta  occ. eigenvalues --   -1.13192  -1.12970  -1.12959  -1.12941  -1.12748
  Beta  occ. eigenvalues --   -1.12706  -1.12670  -1.12667  -1.12614  -1.12606
  Beta  occ. eigenvalues --   -0.17892  -0.12879  -0.11869
  Beta virt. eigenvalues --   -0.07620  -0.05439  -0.05062  -0.03899  -0.02954
  Beta virt. eigenvalues --   -0.02360  -0.02274  -0.01333  -0.00884  -0.00091
  Beta virt. eigenvalues --    0.00074   0.00174   0.00407   0.00860   0.00893

 Mulliken charges and spin densities:
               1          2
     1  Na   0.155118  -0.014428
     2  Na   0.045250   0.038915
     3  Na   0.280562   0.204204
     4  Na  -0.079606   0.041789
     5  Na  -0.042931   0.110232
     6  Na   0.230664  -0.072507
     7  Na  -0.589057   0.691794
 Sum of Mulliken charges =  -0.00000   1.00000

 Dipole moment (field-independent basis, Debye):
    X=              0.1469    Y=              0.1235    Z=              0.5261  Tot=              0.5600
 Quadrupole moment (field-independent basis, Debye-Ang):
   XX=            -57.5892   YY=            -70.1104   ZZ=            -68.3093
   XY=             -0.7367   XZ=              1.3017   YZ=              0.2556

 Normal termination of Gaussian 16 at Thu Dec  7 14:56:16 2023.
