 Gaussian 16, Revision B.01,
 Gaussian 16:  ES64L-G16RevB.01 20-Dec-2017

 -------------------------
 #P B3LYP/6-311+g(d) force
 -------------------------

 -----
 DPGEN
 -----
 Symbolic Z-matrix:
 Charge =  0 Multiplicity = 2

                         Standard orientation:
 ---------------------------------------------------------------------
 Center     Atomic      Atomic             Coordinates (Angstroms)
 Number     Number       Type             X           Y           Z
 ---------------------------------------------------------------------
      1         11           0       -2.665831    2.926704    0.108176
      2         11           0       -4.832257   -0.447036   -0.707795
      3         11           0       -2.257900   -1.877688    0.687173
      4         11           0        0.634856   -2.305628   -0.597881
      5         11           0       -0.034567    1.321143    0.164238
      6         11           0        3.310606   -0.266684    1.269675
      7         11           0        5.845093    0.649189   -0.923587
 ---------------------------------------------------------------------

 SCF Done:  E(UB3LYP) =  -1136.11206544     A.U. after   23 cycles

 The electronic state is 2-A.
 Alpha  occ. eigenvalues --  -38.45284 -38.44941 -38.44628 -38.44316 -38.43903
 Alpha  occ. eigenvalues --  -38.43632 -38.43264  -2.21081  -2.20715  -2.20392
 Alpha  occ. eigenvalues --   -2.20166  -2.19743  -2.19453  -2.19076  -1.14745
 Alpha  occ. eigenvalues --   -1.14727  -1.14679  -1.14361  -1.14360  -1.14331
 Alpha  occ. eigenvalues --   -1.14086  -1.14065  -1.14025  -1.13850  -1.13819
 Alpha  occ. eigenvalues --   -1.13790  -1.13429  -1.13417  -1.13396  -1.13127
 Alpha  occ. eigenvalues --   -1.13104  -1.13081  -1.12767  -1.12732  -1.12693
 Alpha  occ. eigenvalues --   -0.16585  -0.13995  -0.11824  -0.11607
 Alpha virt. eigenvalues --   -0.06425  -0.05423  -0.04754  -0.03397  -0.03057
 Alpha virt. eigenvalues --   -0.02514  -0.02068  -0.01464  -0.00904  -0.00828
 Alpha virt. eigenvalues --   -0.00520  -0.00276   0.00249   0.00306   0.00620

  Beta  occ. eigenvalues --  -38.45198 -38.44864 -38.44644 -38.44256 -38.43897
  Beta  occ. eigenvalues --  -38.43631 -38.43247  -2.20924  -2.20571  -2.20426
  Beta  occ. eigenvalues --   -2.20057  -2.19736  -2.19450  -2.19048  -1.14630
  Beta  occ. eigenvalues --   -1.14622  -1.14574  -1.14263  -1.14262  -1.14239
  Beta  occ. eigenvalues --   -1.14112  -1.14091  -1.14019  -1.13777  -1.13756
  Beta  occ. eigenvalues --   -1.13697  -1.13431  -1.13401  -1.13378  -1.13124
  Beta  occ. eigenvalues --   -1.13105  -1.13080  -1.12734  -1.12715  -1.12672
  Beta  occ. eigenvalues --   -0.16067  -0.13221  -0.11327
  Beta virt. eigenvalues --   -0.08318  -0.05884  -0.05294  -0.04531  -0.03097
  Beta virt. eigenvalues --   -0.02762  -0.02084  -0.01684  -0.01400  -0.00683
  Beta virt. eigenvalues --   -0.00474  -0.00276  -0.00109   0.00271   0.00416

 Mulliken charges and spin densities:
               1          2
     1  Na   0.343043  -0.081053
     2  Na   0.059541   0.251042
     3  Na  -0.210935   0.238291
     4  Na   0.458950  -0.066742
     5  Na  -1.077532   0.265020
     6  Na   0.230964   0.015837
     7  Na   0.195969   0.377605
 Sum of Mulliken charges =  -0.00000   1.00000

 Dipole moment (field-independent basis, Debye):
    X=              0.0937    Y=             -0.4436    Z=             -0.5853  Tot=              0.7404
 Quadrupole moment (field-independent basis, Debye-Ang):
   XX=            -55.3985   YY=            -74.6579   ZZ=            -65.8846
   XY=             -0.6279   XZ=             -1.4719   YZ=             -0.5969

 Normal termination of Gaussian 16 at Tue Nov 28 20:57:17 2023.
