 Gaussian 16, Revision B.01,
 Gaussian 16:  ES64L-G16RevB.01 20-Dec-2017

 -------------------------
 #P B3LYP/6-311+g(d) force
 -------------------------

 -----
 DPGEN
 -----
 Symbolic Z-matrix:
 Charge =  0 Multiplicity = 2

                         Standard orientation:
 ---------------------------------------------------------------------
 Center     Atomic      Atomic             Coordinates (Angstroms)
 Number     Number       Type             X           Y           Z
 ---------------------------------------------------------------------
      1         11           0       -0.177136   -0.018661   -1.535543
      2         11           0        0.048761   -2.103732    0.171957
      3         11           0       -2.573337   -0.832858   -0.157943
      4         11           0       -1.457933    1.845341    0.235557
      5         11           0        0.277864    0.107038    1.752757
      6         11           0        1.423067    1.785436   -0.306143
      7         11           0        2.458713   -0.782565   -0.160643
 ---------------------------------------------------------------------

 SCF Done:  E(UB3LYP) =  -1136.07348835     A.U. after   19 cycles

 The electronic state is 2-A.
 Alpha  occ. eigenvalues --  -38.44105 -38.44082 -38.43981 -38.43897 -38.43666
 Alpha  occ. eigenvalues --  -38.43576 -38.43429  -2.20475  -2.20367  -2.20118
 Alpha  occ. eigenvalues --   -2.19947  -2.19850  -2.19784  -2.19559  -1.14410
 Alpha  occ. eigenvalues --   -1.14358  -1.14205  -1.14170  -1.14085  -1.14013
 Alpha  occ. eigenvalues --   -1.13947  -1.13836  -1.13686  -1.13656  -1.13643
 Alpha  occ. eigenvalues --   -1.13564  -1.13493  -1.13428  -1.13378  -1.13361
 Alpha  occ. eigenvalues --   -1.13343  -1.13255  -1.13208  -1.13176  -1.13099
 Alpha  occ. eigenvalues --   -0.21796  -0.14083  -0.13000  -0.12092
 Alpha virt. eigenvalues --   -0.05288  -0.04383  -0.04050  -0.03625  -0.03088
 Alpha virt. eigenvalues --   -0.02597  -0.01196  -0.00512  -0.00038   0.00343
 Alpha virt. eigenvalues --    0.00722   0.00807   0.01023   0.01141   0.01185

  Beta  occ. eigenvalues --  -38.44009 -38.43997 -38.43968 -38.43890 -38.43646
  Beta  occ. eigenvalues --  -38.43557 -38.43415  -2.20324  -2.20193  -2.20099
  Beta  occ. eigenvalues --   -2.19938  -2.19822  -2.19757  -2.19540  -1.14339
  Beta  occ. eigenvalues --   -1.14260  -1.14116  -1.14055  -1.13986  -1.13934
  Beta  occ. eigenvalues --   -1.13906  -1.13785  -1.13652  -1.13630  -1.13611
  Beta  occ. eigenvalues --   -1.13520  -1.13466  -1.13367  -1.13350  -1.13332
  Beta  occ. eigenvalues --   -1.13254  -1.13247  -1.13196  -1.13107  -1.13093
  Beta  occ. eigenvalues --   -0.20991  -0.13710  -0.12632
  Beta virt. eigenvalues --   -0.07862  -0.05309  -0.04364  -0.04023  -0.02674
  Beta virt. eigenvalues --   -0.02161  -0.01498  -0.01117  -0.00473   0.00103
  Beta virt. eigenvalues --    0.00377   0.00704   0.00787   0.01046   0.01148

 Mulliken charges and spin densities:
               1          2
     1  Na  -0.604023   0.345708
     2  Na   0.417067   0.113280
     3  Na  -0.016885  -0.033964
     4  Na   0.295142   0.072309
     5  Na  -0.409757   0.487622
     6  Na   0.262948   0.047152
     7  Na   0.055508  -0.032107
 Sum of Mulliken charges =  -0.00000   1.00000

 Dipole moment (field-independent basis, Debye):
    X=             -0.1843    Y=              0.0178    Z=              0.2235  Tot=              0.2902
 Quadrupole moment (field-independent basis, Debye-Ang):
   XX=            -58.1865   YY=            -68.9442   ZZ=            -70.0652
   XY=             -0.0065   XZ=             -0.7411   YZ=             -0.0113

 Normal termination of Gaussian 16 at Fri Dec  8 16:56:50 2023.
