 Gaussian 16, Revision B.01,
 Gaussian 16:  ES64L-G16RevB.01 20-Dec-2017

 -------------------------
 #P B3LYP/6-311+g(d) force
 -------------------------

 -----
 DPGEN
 -----
 Symbolic Z-matrix:
 Charge =  0 Multiplicity = 2

                         Standard orientation:
 ---------------------------------------------------------------------
 Center     Atomic      Atomic             Coordinates (Angstroms)
 Number     Number       Type             X           Y           Z
 ---------------------------------------------------------------------
      1         11           0       -2.557130    0.926258   -0.113899
      2         11           0        0.463993   -0.061071    2.113439
      3         11           0        3.374282    0.720130   -0.217572
      4         11           0       -0.523292    3.341182   -0.161242
      5         11           0        1.938080   -2.163420   -0.280403
      6         11           0       -2.508537   -2.322341    0.142097
      7         11           0       -0.187395   -0.440737   -1.482420
 ---------------------------------------------------------------------

 SCF Done:  E(UB3LYP) =  -1136.12597824     A.U. after   20 cycles

 The electronic state is 2-A.
 Alpha  occ. eigenvalues --  -38.44980 -38.44046 -38.43864 -38.43717 -38.43534
 Alpha  occ. eigenvalues --  -38.43437 -38.43308  -2.20772  -2.19946  -2.19687
 Alpha  occ. eigenvalues --   -2.19572  -2.19521  -2.19372  -2.19109  -1.14438
 Alpha  occ. eigenvalues --   -1.14434  -1.14417  -1.13711  -1.13591  -1.13554
 Alpha  occ. eigenvalues --   -1.13381  -1.13349  -1.13329  -1.13266  -1.13238
 Alpha  occ. eigenvalues --   -1.13198  -1.13188  -1.13184  -1.13100  -1.13039
 Alpha  occ. eigenvalues --   -1.13022  -1.13000  -1.12769  -1.12763  -1.12747
 Alpha  occ. eigenvalues --   -0.18386  -0.13549  -0.11996  -0.10516
 Alpha virt. eigenvalues --   -0.06237  -0.05113  -0.04756  -0.03394  -0.02646
 Alpha virt. eigenvalues --   -0.02320  -0.01965  -0.01204  -0.00601  -0.00343
 Alpha virt. eigenvalues --   -0.00043   0.00295   0.00652   0.00781   0.00857

  Beta  occ. eigenvalues --  -38.44978 -38.44031 -38.43864 -38.43614 -38.43482
  Beta  occ. eigenvalues --  -38.43430 -38.43310  -2.20770  -2.19923  -2.19689
  Beta  occ. eigenvalues --   -2.19429  -2.19380  -2.19362  -2.19115  -1.14440
  Beta  occ. eigenvalues --   -1.14421  -1.14411  -1.13688  -1.13550  -1.13537
  Beta  occ. eigenvalues --   -1.13383  -1.13341  -1.13322  -1.13213  -1.13136
  Beta  occ. eigenvalues --   -1.13099  -1.13063  -1.13048  -1.13039  -1.13024
  Beta  occ. eigenvalues --   -1.12989  -1.12985  -1.12772  -1.12758  -1.12751
  Beta  occ. eigenvalues --   -0.17674  -0.13319  -0.11844
  Beta virt. eigenvalues --   -0.06588  -0.06156  -0.05020  -0.04765  -0.02602
  Beta virt. eigenvalues --   -0.01957  -0.01803  -0.01387  -0.01120  -0.00647
  Beta virt. eigenvalues --   -0.00353   0.00133   0.00337   0.00691   0.00843

 Mulliken charges and spin densities:
               1          2
     1  Na   0.064952   0.071304
     2  Na  -0.547615   0.707726
     3  Na  -0.049830  -0.048335
     4  Na  -0.166719  -0.057400
     5  Na   0.404068   0.091387
     6  Na   0.292941   0.027220
     7  Na   0.002204   0.208097
 Sum of Mulliken charges =  -0.00000   1.00000

 Dipole moment (field-independent basis, Debye):
    X=              0.8169    Y=             -0.2754    Z=              0.1423  Tot=              0.8737
 Quadrupole moment (field-independent basis, Debye-Ang):
   XX=            -55.3818   YY=            -62.0803   ZZ=            -76.1209
   XY=              4.1818   XZ=             -1.5873   YZ=             -0.9254

 Normal termination of Gaussian 16 at Thu Dec  7 20:45:36 2023.
