 Gaussian 16, Revision B.01,
 Gaussian 16:  ES64L-G16RevB.01 20-Dec-2017

 -------------------------
 #P B3LYP/6-311+g(d) force
 -------------------------

 -----
 DPGEN
 -----
 Symbolic Z-matrix:
 Charge =  0 Multiplicity = 2

                         Standard orientation:
 ---------------------------------------------------------------------
 Center     Atomic      Atomic             Coordinates (Angstroms)
 Number     Number       Type             X           Y           Z
 ---------------------------------------------------------------------
      1         11           0       -3.583886   -2.269639   -0.530804
      2         11           0        1.627737    2.732703   -0.749646
      3         11           0       -0.406460   -3.354135    0.227470
      4         11           0       -3.867090    0.945826    0.706210
      5         11           0       -1.371908    3.586307   -0.082678
      6         11           0        3.471666   -2.141345   -0.386316
      7         11           0        4.129941    0.500284    0.815764
 ---------------------------------------------------------------------

 SCF Done:  E(UB3LYP) =  -1136.10788388     A.U. after   22 cycles

 The electronic state is 2-A.
 Alpha  occ. eigenvalues --  -38.45197 -38.44718 -38.44624 -38.44439 -38.44185
 Alpha  occ. eigenvalues --  -38.44142 -38.44137  -2.20999  -2.20552  -2.20393
 Alpha  occ. eigenvalues --   -2.20241  -2.19981  -2.19928  -2.19920  -1.14729
 Alpha  occ. eigenvalues --   -1.14653  -1.14638  -1.14199  -1.14192  -1.14183
 Alpha  occ. eigenvalues --   -1.14075  -1.14066  -1.14051  -1.13913  -1.13904
 Alpha  occ. eigenvalues --   -1.13876  -1.13636  -1.13622  -1.13609  -1.13598
 Alpha  occ. eigenvalues --   -1.13592  -1.13574  -1.13566  -1.13565  -1.13538
 Alpha  occ. eigenvalues --   -0.15657  -0.14102  -0.13282  -0.10622
 Alpha virt. eigenvalues --   -0.07624  -0.04918  -0.04608  -0.03387  -0.03280
 Alpha virt. eigenvalues --   -0.02647  -0.02343  -0.01862  -0.01318  -0.00672
 Alpha virt. eigenvalues --   -0.00170  -0.00105   0.00159   0.00220   0.00574

  Beta  occ. eigenvalues --  -38.45184 -38.44690 -38.44636 -38.44397 -38.44142
  Beta  occ. eigenvalues --  -38.44108 -38.44063  -2.20981  -2.20502  -2.20420
  Beta  occ. eigenvalues --   -2.20166  -2.19934  -2.19838  -2.19781  -1.14701
  Beta  occ. eigenvalues --   -1.14644  -1.14614  -1.14163  -1.14159  -1.14143
  Beta  occ. eigenvalues --   -1.14099  -1.14089  -1.14028  -1.13861  -1.13854
  Beta  occ. eigenvalues --   -1.13819  -1.13607  -1.13600  -1.13549  -1.13537
  Beta  occ. eigenvalues --   -1.13524  -1.13505  -1.13479  -1.13471  -1.13448
  Beta  occ. eigenvalues --   -0.15174  -0.13471  -0.12570
  Beta virt. eigenvalues --   -0.07678  -0.07431  -0.04584  -0.04201  -0.03031
  Beta virt. eigenvalues --   -0.02901  -0.02335  -0.02194  -0.01814  -0.01177
  Beta virt. eigenvalues --   -0.00317  -0.00056   0.00151   0.00233   0.00365

 Mulliken charges and spin densities:
               1          2
     1  Na   0.112264  -0.086311
     2  Na  -0.366046   0.176114
     3  Na  -0.228148   0.373169
     4  Na  -0.152355   0.383157
     5  Na   0.382048  -0.032482
     6  Na   0.093542   0.040868
     7  Na   0.158695   0.145485
 Sum of Mulliken charges =  -0.00000   1.00000

 Dipole moment (field-independent basis, Debye):
    X=              1.0286    Y=             -0.1494    Z=             -0.0229  Tot=              1.0396
 Quadrupole moment (field-independent basis, Debye-Ang):
   XX=            -62.4007   YY=            -68.3391   ZZ=            -70.5708
   XY=             -0.3302   XZ=              1.1598   YZ=              3.3716

 Normal termination of Gaussian 16 at Sun Dec  3 18:57:54 2023.
