 Gaussian 16, Revision B.01,
 Gaussian 16:  ES64L-G16RevB.01 20-Dec-2017

 -------------------------
 #P B3LYP/6-311+g(d) force
 -------------------------

 -----
 DPGEN
 -----
 Symbolic Z-matrix:
 Charge =  0 Multiplicity = 2

                         Standard orientation:
 ---------------------------------------------------------------------
 Center     Atomic      Atomic             Coordinates (Angstroms)
 Number     Number       Type             X           Y           Z
 ---------------------------------------------------------------------
      1         11           0       -2.406653    1.945232   -0.801187
      2         11           0        3.728134    0.903855    0.593454
      3         11           0        0.343055   -0.285802    1.723101
      4         11           0       -3.704696   -0.815915    0.455808
      5         11           0       -0.901420   -3.219580   -0.311185
      6         11           0        2.653493   -2.088089   -1.202935
      7         11           0        0.288086    3.560298   -0.457056
 ---------------------------------------------------------------------

 SCF Done:  E(UB3LYP) =  -1136.11499934     A.U. after   22 cycles

 The electronic state is 2-A.
 Alpha  occ. eigenvalues --  -38.45583 -38.44516 -38.44474 -38.44446 -38.44368
 Alpha  occ. eigenvalues --  -38.43878 -38.43657  -2.21335  -2.20311  -2.20246
 Alpha  occ. eigenvalues --   -2.20222  -2.20133  -2.19674  -2.19491  -1.15025
 Alpha  occ. eigenvalues --   -1.15001  -1.14941  -1.13990  -1.13970  -1.13933
 Alpha  occ. eigenvalues --   -1.13914  -1.13901  -1.13897  -1.13884  -1.13866
 Alpha  occ. eigenvalues --   -1.13841  -1.13823  -1.13806  -1.13750  -1.13376
 Alpha  occ. eigenvalues --   -1.13333  -1.13302  -1.13155  -1.13143  -1.13125
 Alpha  occ. eigenvalues --   -0.16559  -0.13499  -0.12721  -0.10068
 Alpha virt. eigenvalues --   -0.07275  -0.05972  -0.04055  -0.03822  -0.03072
 Alpha virt. eigenvalues --   -0.02633  -0.01729  -0.01556  -0.01286  -0.00841
 Alpha virt. eigenvalues --   -0.00396   0.00199   0.00262   0.00362   0.00627

  Beta  occ. eigenvalues --  -38.45549 -38.44495 -38.44446 -38.44397 -38.44355
  Beta  occ. eigenvalues --  -38.43845 -38.43642  -2.21272  -2.20271  -2.20194
  Beta  occ. eigenvalues --   -2.20133  -2.20112  -2.19616  -2.19467  -1.14980
  Beta  occ. eigenvalues --   -1.14963  -1.14890  -1.13966  -1.13942  -1.13907
  Beta  occ. eigenvalues --   -1.13873  -1.13867  -1.13845  -1.13838  -1.13813
  Beta  occ. eigenvalues --   -1.13808  -1.13794  -1.13768  -1.13710  -1.13334
  Beta  occ. eigenvalues --   -1.13296  -1.13254  -1.13141  -1.13130  -1.13083
  Beta  occ. eigenvalues --   -0.16164  -0.13123  -0.12076
  Beta virt. eigenvalues --   -0.07203  -0.06764  -0.05857  -0.03663  -0.03478
  Beta virt. eigenvalues --   -0.02516  -0.02397  -0.01538  -0.01320  -0.01167
  Beta virt. eigenvalues --   -0.00646  -0.00072   0.00254   0.00404   0.00490

 Mulliken charges and spin densities:
               1          2
     1  Na  -0.238645   0.077361
     2  Na   0.302707   0.125113
     3  Na  -0.124716   0.248141
     4  Na   0.430818   0.039161
     5  Na  -0.079776   0.117539
     6  Na  -0.167932   0.244861
     7  Na  -0.122456   0.147823
 Sum of Mulliken charges =  -0.00000   1.00000

 Dipole moment (field-independent basis, Debye):
    X=              0.2083    Y=             -0.3264    Z=              0.2772  Tot=              0.4762
 Quadrupole moment (field-independent basis, Debye-Ang):
   XX=            -54.9120   YY=            -72.4911   ZZ=            -72.5037
   XY=              6.8852   XZ=             -1.8599   YZ=              0.3120

 Normal termination of Gaussian 16 at Sun Dec  3 12:37:46 2023.
