 Gaussian 16, Revision B.01,
 Gaussian 16:  ES64L-G16RevB.01 20-Dec-2017

 -------------------------
 #P B3LYP/6-311+g(d) force
 -------------------------

 -----
 DPGEN
 -----
 Symbolic Z-matrix:
 Charge =  0 Multiplicity = 2

                         Standard orientation:
 ---------------------------------------------------------------------
 Center     Atomic      Atomic             Coordinates (Angstroms)
 Number     Number       Type             X           Y           Z
 ---------------------------------------------------------------------
      1         11           0        1.774113   -2.761300   -0.436737
      2         11           0        2.944955    0.413149    0.095543
      3         11           0       -0.151830   -0.752076   -1.199446
      4         11           0        1.009438    3.135190   -0.387210
      5         11           0       -2.676404   -1.806107    0.156132
      6         11           0       -0.206331    0.136948    2.368934
      7         11           0       -2.693941    1.634196   -0.597215
 ---------------------------------------------------------------------

 SCF Done:  E(UB3LYP) =  -1136.12791601     A.U. after   21 cycles

 The electronic state is 2-A.
 Alpha  occ. eigenvalues --  -38.44376 -38.44265 -38.44024 -38.43874 -38.43751
 Alpha  occ. eigenvalues --  -38.43600 -38.43206  -2.20214  -2.20063  -2.19851
 Alpha  occ. eigenvalues --   -2.19715  -2.19616  -2.19382  -2.19223  -1.13934
 Alpha  occ. eigenvalues --   -1.13861  -1.13840  -1.13744  -1.13718  -1.13684
 Alpha  occ. eigenvalues --   -1.13502  -1.13478  -1.13461  -1.13421  -1.13396
 Alpha  occ. eigenvalues --   -1.13384  -1.13355  -1.13243  -1.13224  -1.13056
 Alpha  occ. eigenvalues --   -1.13037  -1.13027  -1.12896  -1.12859  -1.12833
 Alpha  occ. eigenvalues --   -0.18108  -0.13171  -0.12277  -0.10681
 Alpha virt. eigenvalues --   -0.05843  -0.05415  -0.04896  -0.03196  -0.02851
 Alpha virt. eigenvalues --   -0.02478  -0.01592  -0.01319  -0.00670  -0.00614
 Alpha virt. eigenvalues --   -0.00051   0.00306   0.00725   0.00775   0.00849

  Beta  occ. eigenvalues --  -38.44372 -38.44248 -38.43906 -38.43872 -38.43745
  Beta  occ. eigenvalues --  -38.43598 -38.43176  -2.20209  -2.20033  -2.19714
  Beta  occ. eigenvalues --   -2.19632  -2.19606  -2.19379  -2.19171  -1.13931
  Beta  occ. eigenvalues --   -1.13842  -1.13834  -1.13714  -1.13696  -1.13666
  Beta  occ. eigenvalues --   -1.13413  -1.13391  -1.13374  -1.13355  -1.13350
  Beta  occ. eigenvalues --   -1.13328  -1.13303  -1.13227  -1.13219  -1.13051
  Beta  occ. eigenvalues --   -1.13031  -1.13026  -1.12846  -1.12823  -1.12799
  Beta  occ. eigenvalues --   -0.17458  -0.12989  -0.12070
  Beta virt. eigenvalues --   -0.06741  -0.05745  -0.05348  -0.04776  -0.02488
  Beta virt. eigenvalues --   -0.02124  -0.01575  -0.01459  -0.01232  -0.00681
  Beta virt. eigenvalues --   -0.00596   0.00151   0.00372   0.00761   0.00843

 Mulliken charges and spin densities:
               1          2
     1  Na   0.486750   0.127778
     2  Na   0.166529   0.040638
     3  Na  -0.286231  -0.050934
     4  Na  -0.190853   0.028664
     5  Na   0.160632   0.126056
     6  Na  -0.476832   0.663597
     7  Na   0.140006   0.064199
 Sum of Mulliken charges =  -0.00000   1.00000

 Dipole moment (field-independent basis, Debye):
    X=             -0.4412    Y=             -0.2432    Z=              0.2374  Tot=              0.5569
 Quadrupole moment (field-independent basis, Debye-Ang):
   XX=            -57.1942   YY=            -61.4848   ZZ=            -75.4962
   XY=             -0.1995   XZ=              0.3899   YZ=             -1.5920

 Normal termination of Gaussian 16 at Thu Dec  7 10:50:47 2023.
