 Gaussian 16, Revision B.01,
 Gaussian 16:  ES64L-G16RevB.01 20-Dec-2017

 -------------------------
 #P B3LYP/6-311+g(d) force
 -------------------------

 -----
 DPGEN
 -----
 Symbolic Z-matrix:
 Charge =  0 Multiplicity = 2

                         Standard orientation:
 ---------------------------------------------------------------------
 Center     Atomic      Atomic             Coordinates (Angstroms)
 Number     Number       Type             X           Y           Z
 ---------------------------------------------------------------------
      1         11           0        0.023220   -0.157448    0.638246
      2         11           0        2.036571    2.233960   -0.577772
      3         11           0       -1.369415    2.764706   -0.604947
      4         11           0       -3.758542    0.239391    0.572952
      5         11           0       -2.179169   -2.384667   -0.044313
      6         11           0        3.536466   -0.243408    1.294500
      7         11           0        1.710868   -2.452533   -1.278666
 ---------------------------------------------------------------------

 SCF Done:  E(UB3LYP) =  -1136.12684457     A.U. after   20 cycles

 The electronic state is 2-A.
 Alpha  occ. eigenvalues --  -38.44148 -38.44120 -38.44109 -38.43966 -38.43752
 Alpha  occ. eigenvalues --  -38.43631 -38.43330  -2.19986  -2.19969  -2.19909
 Alpha  occ. eigenvalues --   -2.19815  -2.19703  -2.19478  -2.19157  -1.13700
 Alpha  occ. eigenvalues --   -1.13678  -1.13662  -1.13650  -1.13621  -1.13614
 Alpha  occ. eigenvalues --   -1.13578  -1.13556  -1.13533  -1.13472  -1.13441
 Alpha  occ. eigenvalues --   -1.13432  -1.13422  -1.13353  -1.13324  -1.13138
 Alpha  occ. eigenvalues --   -1.13116  -1.13087  -1.12823  -1.12821  -1.12789
 Alpha  occ. eigenvalues --   -0.17572  -0.14063  -0.12558  -0.09980
 Alpha virt. eigenvalues --   -0.06243  -0.05839  -0.04380  -0.03580  -0.02648
 Alpha virt. eigenvalues --   -0.02402  -0.01763  -0.01197  -0.00796  -0.00490
 Alpha virt. eigenvalues --   -0.00369   0.00146   0.00482   0.00570   0.00687

  Beta  occ. eigenvalues --  -38.44139 -38.44116 -38.44061 -38.43928 -38.43753
  Beta  occ. eigenvalues --  -38.43555 -38.43311  -2.19975  -2.19967  -2.19820
  Beta  occ. eigenvalues --   -2.19745  -2.19706  -2.19336  -2.19124  -1.13702
  Beta  occ. eigenvalues --   -1.13676  -1.13655  -1.13648  -1.13585  -1.13568
  Beta  occ. eigenvalues --   -1.13516  -1.13501  -1.13464  -1.13424  -1.13399
  Beta  occ. eigenvalues --   -1.13393  -1.13388  -1.13362  -1.13332  -1.13041
  Beta  occ. eigenvalues --   -1.13017  -1.12994  -1.12802  -1.12798  -1.12758
  Beta  occ. eigenvalues --   -0.17200  -0.13465  -0.12046
  Beta virt. eigenvalues --   -0.06655  -0.06227  -0.05631  -0.03997  -0.03156
  Beta virt. eigenvalues --   -0.02202  -0.02137  -0.01493  -0.00925  -0.00588
  Beta virt. eigenvalues --   -0.00358  -0.00045   0.00306   0.00584   0.00706

 Mulliken charges and spin densities:
               1          2
     1  Na  -2.800775   0.034600
     2  Na   0.436712   0.057346
     3  Na   0.135790   0.015086
     4  Na   0.469880   0.208662
     5  Na   0.469064   0.117132
     6  Na   1.098855   0.424353
     7  Na   0.190475   0.142821
 Sum of Mulliken charges =  -0.00000   1.00000

 Dipole moment (field-independent basis, Debye):
    X=             -0.1630    Y=             -0.1583    Z=             -0.7088  Tot=              0.7444
 Quadrupole moment (field-independent basis, Debye-Ang):
   XX=            -60.7105   YY=            -66.1300   ZZ=            -70.4067
   XY=             -2.3453   XZ=             -2.7734   YZ=             -0.3736

 Normal termination of Gaussian 16 at Wed Nov 29 16:41:53 2023.
