 Gaussian 16, Revision B.01,
 Gaussian 16:  ES64L-G16RevB.01 20-Dec-2017

 -------------------------
 #P B3LYP/6-311+g(d) force
 -------------------------

 -----
 DPGEN
 -----
 Symbolic Z-matrix:
 Charge =  0 Multiplicity = 2

                         Standard orientation:
 ---------------------------------------------------------------------
 Center     Atomic      Atomic             Coordinates (Angstroms)
 Number     Number       Type             X           Y           Z
 ---------------------------------------------------------------------
      1         11           0       -3.310471    1.437978    0.091742
      2         11           0       -3.380679   -1.521137   -0.848477
      3         11           0        0.019885    3.136892    0.062679
      4         11           0        1.137933   -0.134448    1.951511
      5         11           0       -0.323462   -2.916238    0.354756
      6         11           0        3.233420   -2.010956   -0.725308
      7         11           0        2.623375    2.007908   -0.886904
 ---------------------------------------------------------------------

 SCF Done:  E(UB3LYP) =  -1136.11527816     A.U. after   22 cycles

 The electronic state is 2-A.
 Alpha  occ. eigenvalues --  -38.44737 -38.44570 -38.44527 -38.44376 -38.44313
 Alpha  occ. eigenvalues --  -38.44195 -38.44019  -2.20524  -2.20394  -2.20297
 Alpha  occ. eigenvalues --   -2.20157  -2.20124  -2.20009  -2.19845  -1.14218
 Alpha  occ. eigenvalues --   -1.14189  -1.14169  -1.14110  -1.14052  -1.14025
 Alpha  occ. eigenvalues --   -1.13973  -1.13942  -1.13921  -1.13842  -1.13835
 Alpha  occ. eigenvalues --   -1.13798  -1.13786  -1.13770  -1.13729  -1.13665
 Alpha  occ. eigenvalues --   -1.13661  -1.13644  -1.13522  -1.13486  -1.13481
 Alpha  occ. eigenvalues --   -0.16766  -0.13619  -0.12945  -0.10152
 Alpha virt. eigenvalues --   -0.07203  -0.06195  -0.03949  -0.03788  -0.03268
 Alpha virt. eigenvalues --   -0.02150  -0.01869  -0.01613  -0.01357  -0.01064
 Alpha virt. eigenvalues --   -0.00036   0.00148   0.00271   0.00464   0.00610

  Beta  occ. eigenvalues --  -38.44733 -38.44545 -38.44476 -38.44368 -38.44245
  Beta  occ. eigenvalues --  -38.44176 -38.44014  -2.20520  -2.20348  -2.20203
  Beta  occ. eigenvalues --   -2.20143  -2.19999  -2.19974  -2.19837  -1.14211
  Beta  occ. eigenvalues --   -1.14188  -1.14156  -1.14074  -1.14016  -1.13992
  Beta  occ. eigenvalues --   -1.13909  -1.13878  -1.13847  -1.13827  -1.13809
  Beta  occ. eigenvalues --   -1.13783  -1.13709  -1.13681  -1.13643  -1.13642
  Beta  occ. eigenvalues --   -1.13638  -1.13618  -1.13514  -1.13483  -1.13467
  Beta  occ. eigenvalues --   -0.16250  -0.13225  -0.12750
  Beta virt. eigenvalues --   -0.07107  -0.06637  -0.05937  -0.03755  -0.03234
  Beta virt. eigenvalues --   -0.02752  -0.01904  -0.01633  -0.01278  -0.01107
  Beta virt. eigenvalues --   -0.01041   0.00229   0.00236   0.00490   0.00593

 Mulliken charges and spin densities:
               1          2
     1  Na  -0.275378   0.023130
     2  Na   0.273753   0.084779
     3  Na   0.119830  -0.047822
     4  Na   0.469904   0.275836
     5  Na  -0.519962   0.080556
     6  Na   0.050073   0.310359
     7  Na  -0.118219   0.273162
 Sum of Mulliken charges =  -0.00000   1.00000

 Dipole moment (field-independent basis, Debye):
    X=             -0.2618    Y=             -0.0496    Z=              0.0932  Tot=              0.2822
 Quadrupole moment (field-independent basis, Debye-Ang):
   XX=            -67.5570   YY=            -60.8679   ZZ=            -73.1710
   XY=             -0.6427   XZ=              0.5725   YZ=              2.1184

 Normal termination of Gaussian 16 at Mon Dec  4 01:11:25 2023.
