 Gaussian 16, Revision B.01,
 Gaussian 16:  ES64L-G16RevB.01 20-Dec-2017

 -------------------------
 #P B3LYP/6-311+g(d) force
 -------------------------

 -----
 DPGEN
 -----
 Symbolic Z-matrix:
 Charge =  0 Multiplicity = 2

                         Standard orientation:
 ---------------------------------------------------------------------
 Center     Atomic      Atomic             Coordinates (Angstroms)
 Number     Number       Type             X           Y           Z
 ---------------------------------------------------------------------
      1         11           0       -1.148138    3.482613    0.316020
      2         11           0       -3.502207    1.425783   -1.088295
      3         11           0       -1.960108   -2.765603    2.101339
      4         11           0       -1.984970   -2.114136   -0.996333
      5         11           0        0.845622    0.165101    0.000815
      6         11           0        3.880111   -1.468160   -1.670381
      7         11           0        3.869690    1.274402    1.336834
 ---------------------------------------------------------------------

 SCF Done:  E(UB3LYP) =  -1136.10892244     A.U. after   21 cycles

 The electronic state is 2-A.
 Alpha  occ. eigenvalues --  -38.44839 -38.44539 -38.44490 -38.44301 -38.44223
 Alpha  occ. eigenvalues --  -38.44222 -38.44166  -2.20594  -2.20330  -2.20276
 Alpha  occ. eigenvalues --   -2.20077  -2.20001  -2.19979  -2.19978  -1.14268
 Alpha  occ. eigenvalues --   -1.14254  -1.14218  -1.13994  -1.13993  -1.13981
 Alpha  occ. eigenvalues --   -1.13972  -1.13948  -1.13888  -1.13751  -1.13726
 Alpha  occ. eigenvalues --   -1.13720  -1.13660  -1.13656  -1.13653  -1.13651
 Alpha  occ. eigenvalues --   -1.13645  -1.13629  -1.13618  -1.13603  -1.13597
 Alpha  occ. eigenvalues --   -0.16093  -0.13478  -0.12211  -0.10088
 Alpha virt. eigenvalues --   -0.06885  -0.06410  -0.04533  -0.03185  -0.03115
 Alpha virt. eigenvalues --   -0.02373  -0.02238  -0.01574  -0.01071  -0.00952
 Alpha virt. eigenvalues --   -0.00457  -0.00187   0.00017   0.00307   0.00493

  Beta  occ. eigenvalues --  -38.44819 -38.44503 -38.44482 -38.44275 -38.44232
  Beta  occ. eigenvalues --  -38.44168 -38.44132  -2.20558  -2.20264  -2.20263
  Beta  occ. eigenvalues --   -2.20028  -2.19997  -2.19985  -2.19830  -1.14244
  Beta  occ. eigenvalues --   -1.14222  -1.14191  -1.13969  -1.13952  -1.13935
  Beta  occ. eigenvalues --   -1.13926  -1.13922  -1.13890  -1.13716  -1.13699
  Beta  occ. eigenvalues --   -1.13693  -1.13673  -1.13660  -1.13652  -1.13634
  Beta  occ. eigenvalues --   -1.13605  -1.13603  -1.13539  -1.13533  -1.13485
  Beta  occ. eigenvalues --   -0.15761  -0.12981  -0.12081
  Beta virt. eigenvalues --   -0.07047  -0.06251  -0.05795  -0.04384  -0.03039
  Beta virt. eigenvalues --   -0.02841  -0.02231  -0.01746  -0.01307  -0.00843
  Beta virt. eigenvalues --   -0.00750  -0.00189   0.00020   0.00114   0.00539

 Mulliken charges and spin densities:
               1          2
     1  Na   0.350792  -0.071458
     2  Na   0.008767   0.132310
     3  Na   0.311090   0.162975
     4  Na   0.516004   0.040342
     5  Na  -2.185049   0.139045
     6  Na   0.346684   0.460408
     7  Na   0.651711   0.136379
 Sum of Mulliken charges =  -0.00000   1.00000

 Dipole moment (field-independent basis, Debye):
    X=             -0.2489    Y=              0.0898    Z=              0.9318  Tot=              0.9687
 Quadrupole moment (field-independent basis, Debye-Ang):
   XX=            -60.0376   YY=            -69.7021   ZZ=            -66.8768
   XY=              4.2907   XZ=              3.7863   YZ=              1.7209

 Normal termination of Gaussian 16 at Fri Dec  8 19:12:32 2023.
