 Gaussian 16, Revision B.01,
 Gaussian 16:  ES64L-G16RevB.01 20-Dec-2017

 -------------------------
 #P B3LYP/6-311+g(d) force
 -------------------------

 -----
 DPGEN
 -----
 Symbolic Z-matrix:
 Charge =  0 Multiplicity = 2

                         Standard orientation:
 ---------------------------------------------------------------------
 Center     Atomic      Atomic             Coordinates (Angstroms)
 Number     Number       Type             X           Y           Z
 ---------------------------------------------------------------------
      1         11           0        2.501124    1.829594    0.069998
      2         11           0       -3.206746   -0.395056   -0.156937
      3         11           0       -0.127688    0.182550    1.930805
      4         11           0       -1.068998    2.763866   -0.068977
      5         11           0        2.721323   -1.996054    0.033068
      6         11           0        0.250047    0.013108   -1.916698
      7         11           0       -1.069063   -2.398008    0.108741
 ---------------------------------------------------------------------

 SCF Done:  E(UB3LYP) =  -1136.13532053     A.U. after   19 cycles

 The electronic state is 2-A.
 Alpha  occ. eigenvalues --  -38.44178 -38.44119 -38.43929 -38.43578 -38.43556
 Alpha  occ. eigenvalues --  -38.43408 -38.43239  -2.19987  -2.19976  -2.19705
 Alpha  occ. eigenvalues --   -2.19479  -2.19467  -2.19239  -2.19162  -1.13717
 Alpha  occ. eigenvalues --   -1.13671  -1.13658  -1.13620  -1.13610  -1.13602
 Alpha  occ. eigenvalues --   -1.13379  -1.13360  -1.13352  -1.13169  -1.13143
 Alpha  occ. eigenvalues --   -1.13119  -1.13112  -1.13091  -1.13082  -1.12913
 Alpha  occ. eigenvalues --   -1.12906  -1.12866  -1.12839  -1.12816  -1.12784
 Alpha  occ. eigenvalues --   -0.18531  -0.13032  -0.12260  -0.10786
 Alpha virt. eigenvalues --   -0.05708  -0.05488  -0.04416  -0.03282  -0.02870
 Alpha virt. eigenvalues --   -0.02635  -0.01622  -0.01293  -0.00426  -0.00172
 Alpha virt. eigenvalues --   -0.00042   0.00356   0.00736   0.00844   0.00920

  Beta  occ. eigenvalues --  -38.44174 -38.44117 -38.43931 -38.43498 -38.43471
  Beta  occ. eigenvalues --  -38.43403 -38.43229  -2.19984  -2.19975  -2.19710
  Beta  occ. eigenvalues --   -2.19332  -2.19312  -2.19233  -2.19149  -1.13720
  Beta  occ. eigenvalues --   -1.13658  -1.13645  -1.13612  -1.13604  -1.13596
  Beta  occ. eigenvalues --   -1.13369  -1.13365  -1.13357  -1.13073  -1.13041
  Beta  occ. eigenvalues --   -1.13016  -1.13005  -1.12985  -1.12972  -1.12899
  Beta  occ. eigenvalues --   -1.12878  -1.12865  -1.12830  -1.12783  -1.12765
  Beta  occ. eigenvalues --   -0.17768  -0.12821  -0.12040
  Beta virt. eigenvalues --   -0.06874  -0.05677  -0.05452  -0.04392  -0.02477
  Beta virt. eigenvalues --   -0.02105  -0.01613  -0.01504  -0.01237  -0.00497
  Beta virt. eigenvalues --   -0.00206   0.00098   0.00368   0.00785   0.00844

 Mulliken charges and spin densities:
               1          2
     1  Na   0.091949  -0.155157
     2  Na   0.118633  -0.042291
     3  Na  -0.267504   0.718684
     4  Na   0.127528  -0.117389
     5  Na   0.022655  -0.120698
     6  Na  -0.317905   0.746473
     7  Na   0.224645  -0.029622
 Sum of Mulliken charges =  -0.00000   1.00000

 Dipole moment (field-independent basis, Debye):
    X=              0.2391    Y=              0.2634    Z=             -0.0212  Tot=              0.3563
 Quadrupole moment (field-independent basis, Debye-Ang):
   XX=            -55.1304   YY=            -64.4301   ZZ=            -74.0406
   XY=             -0.6495   XZ=              1.0413   YZ=             -0.4126

 Normal termination of Gaussian 16 at Sun Dec  3 15:58:56 2023.
