 Gaussian 16, Revision B.01,
 Gaussian 16:  ES64L-G16RevB.01 20-Dec-2017

 -------------------------
 #P B3LYP/6-311+g(d) force
 -------------------------

 -----
 DPGEN
 -----
 Symbolic Z-matrix:
 Charge =  0 Multiplicity = 2

                         Standard orientation:
 ---------------------------------------------------------------------
 Center     Atomic      Atomic             Coordinates (Angstroms)
 Number     Number       Type             X           Y           Z
 ---------------------------------------------------------------------
      1         11           0       -2.683221    2.149759    0.143462
      2         11           0       -0.185028    0.148804   -1.441078
      3         11           0       -3.256065   -1.510733   -0.843355
      4         11           0        2.658845   -1.960899    0.031484
      5         11           0       -0.896180   -1.467464    1.679143
      6         11           0        0.843480    1.687843    1.017179
      7         11           0        3.518169    0.952689   -0.586835
 ---------------------------------------------------------------------

 SCF Done:  E(UB3LYP) =  -1136.12152131     A.U. after   24 cycles

 The electronic state is 2-A.
 Alpha  occ. eigenvalues --  -38.44620 -38.44495 -38.44430 -38.44360 -38.43976
 Alpha  occ. eigenvalues --  -38.43193 -38.42962  -2.20522  -2.20368  -2.20211
 Alpha  occ. eigenvalues --   -2.20176  -2.19793  -2.19050  -2.18887  -1.14270
 Alpha  occ. eigenvalues --   -1.14161  -1.14138  -1.14071  -1.14035  -1.14002
 Alpha  occ. eigenvalues --   -1.13893  -1.13859  -1.13854  -1.13845  -1.13815
 Alpha  occ. eigenvalues --   -1.13808  -1.13465  -1.13436  -1.13429  -1.12727
 Alpha  occ. eigenvalues --   -1.12682  -1.12678  -1.12607  -1.12532  -1.12485
 Alpha  occ. eigenvalues --   -0.18281  -0.14167  -0.11227  -0.10559
 Alpha virt. eigenvalues --   -0.06599  -0.06181  -0.04071  -0.03176  -0.02703
 Alpha virt. eigenvalues --   -0.02555  -0.01988  -0.01561  -0.00584  -0.00502
 Alpha virt. eigenvalues --    0.00107   0.00150   0.00379   0.00575   0.00687

  Beta  occ. eigenvalues --  -38.44600 -38.44474 -38.44429 -38.44355 -38.43945
  Beta  occ. eigenvalues --  -38.43127 -38.42928  -2.20488  -2.20328  -2.20212
  Beta  occ. eigenvalues --   -2.20170  -2.19736  -2.18929  -2.18827  -1.14223
  Beta  occ. eigenvalues --   -1.14142  -1.14113  -1.14049  -1.14003  -1.13974
  Beta  occ. eigenvalues --   -1.13889  -1.13862  -1.13843  -1.13841  -1.13811
  Beta  occ. eigenvalues --   -1.13781  -1.13421  -1.13402  -1.13383  -1.12644
  Beta  occ. eigenvalues --   -1.12596  -1.12587  -1.12570  -1.12467  -1.12444
  Beta  occ. eigenvalues --   -0.17647  -0.13794  -0.11051
  Beta virt. eigenvalues --   -0.06848  -0.06371  -0.06165  -0.03449  -0.03029
  Beta virt. eigenvalues --   -0.02431  -0.02045  -0.01539  -0.01201  -0.00520
  Beta virt. eigenvalues --   -0.00150   0.00135   0.00196   0.00483   0.00656

 Mulliken charges and spin densities:
               1          2
     1  Na   0.063483   0.013534
     2  Na  -0.489658   0.047871
     3  Na   0.156801   0.188924
     4  Na  -0.283134   0.087544
     5  Na  -0.149359   0.256063
     6  Na  -0.198755   0.203820
     7  Na   0.900623   0.202242
 Sum of Mulliken charges =  -0.00000   1.00000

 Dipole moment (field-independent basis, Debye):
    X=              0.0671    Y=              0.2223    Z=             -0.0300  Tot=              0.2342
 Quadrupole moment (field-independent basis, Debye-Ang):
   XX=            -50.9595   YY=            -71.9664   ZZ=            -71.5606
   XY=             -1.2548   XZ=             -1.1649   YZ=              0.7891

 Normal termination of Gaussian 16 at Thu Dec  7 15:25:32 2023.
