 Gaussian 16, Revision B.01,
 Gaussian 16:  ES64L-G16RevB.01 20-Dec-2017

 -------------------------
 #P B3LYP/6-311+g(d) force
 -------------------------

 -----
 DPGEN
 -----
 Symbolic Z-matrix:
 Charge =  0 Multiplicity = 2

                         Standard orientation:
 ---------------------------------------------------------------------
 Center     Atomic      Atomic             Coordinates (Angstroms)
 Number     Number       Type             X           Y           Z
 ---------------------------------------------------------------------
      1         11           0       -2.260557   -0.306612   -0.408963
      2         11           0        0.997933   -0.309276   -1.887738
      3         11           0       -4.994323   -0.527366   -0.083148
      4         11           0        1.329481   -2.056818    0.915222
      5         11           0        0.629540    2.695324   -0.510687
      6         11           0        4.022262   -0.565785   -0.239073
      7         11           0        0.275664    1.070533    2.214387
 ---------------------------------------------------------------------

 SCF Done:  E(UB3LYP) =  -1136.11010615     A.U. after   25 cycles

 The electronic state is 2-A.
 Alpha  occ. eigenvalues --  -38.45220 -38.44673 -38.44359 -38.44328 -38.43781
 Alpha  occ. eigenvalues --  -38.43317 -38.43118  -2.21018  -2.20579  -2.20232
 Alpha  occ. eigenvalues --   -2.20157  -2.19641  -2.19206  -2.18971  -1.14688
 Alpha  occ. eigenvalues --   -1.14676  -1.14656  -1.14274  -1.14225  -1.14181
 Alpha  occ. eigenvalues --   -1.13963  -1.13909  -1.13887  -1.13838  -1.13781
 Alpha  occ. eigenvalues --   -1.13780  -1.13297  -1.13289  -1.13272  -1.12899
 Alpha  occ. eigenvalues --   -1.12850  -1.12803  -1.12638  -1.12631  -1.12609
 Alpha  occ. eigenvalues --   -0.18216  -0.13291  -0.11681  -0.11517
 Alpha virt. eigenvalues --   -0.07737  -0.04212  -0.04017  -0.03412  -0.03128
 Alpha virt. eigenvalues --   -0.02988  -0.02744  -0.01085  -0.00813  -0.00633
 Alpha virt. eigenvalues --   -0.00132   0.00047   0.00335   0.00674   0.00952

  Beta  occ. eigenvalues --  -38.45216 -38.44608 -38.44337 -38.44314 -38.43714
  Beta  occ. eigenvalues --  -38.43311 -38.43103  -2.21014  -2.20460  -2.20174
  Beta  occ. eigenvalues --   -2.20150  -2.19519  -2.19196  -2.18946  -1.14677
  Beta  occ. eigenvalues --   -1.14666  -1.14655  -1.14185  -1.14148  -1.14090
  Beta  occ. eigenvalues --   -1.13974  -1.13855  -1.13826  -1.13792  -1.13791
  Beta  occ. eigenvalues --   -1.13764  -1.13216  -1.13206  -1.13180  -1.12896
  Beta  occ. eigenvalues --   -1.12827  -1.12800  -1.12621  -1.12600  -1.12586
  Beta  occ. eigenvalues --   -0.17402  -0.13244  -0.11458
  Beta virt. eigenvalues --   -0.07561  -0.07509  -0.03986  -0.03628  -0.03064
  Beta virt. eigenvalues --   -0.02808  -0.02504  -0.01959  -0.01018  -0.00637
  Beta virt. eigenvalues --   -0.00561  -0.00062   0.00208   0.00377   0.00752

 Mulliken charges and spin densities:
               1          2
     1  Na  -0.933108   0.013572
     2  Na  -0.059488   0.499956
     3  Na   0.280960  -0.023958
     4  Na   0.260006   0.343049
     5  Na   0.281856  -0.082383
     6  Na   0.281565  -0.099290
     7  Na  -0.111792   0.349055
 Sum of Mulliken charges =  -0.00000   1.00000

 Dipole moment (field-independent basis, Debye):
    X=              1.4078    Y=              0.2938    Z=              0.3159  Tot=              1.4724
 Quadrupole moment (field-independent basis, Debye-Ang):
   XX=            -54.1044   YY=            -72.4960   ZZ=            -70.0478
   XY=              2.8359   XZ=             -1.1718   YZ=             -1.2691

 Normal termination of Gaussian 16 at Thu Dec  7 12:18:39 2023.
