 Gaussian 16, Revision B.01,
 Gaussian 16:  ES64L-G16RevB.01 20-Dec-2017

 -------------------------
 #P B3LYP/6-311+g(d) force
 -------------------------

 -----
 DPGEN
 -----
 Symbolic Z-matrix:
 Charge =  0 Multiplicity = 2

                         Standard orientation:
 ---------------------------------------------------------------------
 Center     Atomic      Atomic             Coordinates (Angstroms)
 Number     Number       Type             X           Y           Z
 ---------------------------------------------------------------------
      1         11           0       -1.903090   -2.433916   -0.248057
      2         11           0       -0.137302   -0.076311   -1.585120
      3         11           0        2.932766    1.062800   -0.379066
      4         11           0        2.183875   -2.057114    0.068003
      5         11           0       -0.413954    2.874502   -0.042894
      6         11           0       -2.950667    0.697329    0.115769
      7         11           0        0.288372   -0.067290    2.071365
 ---------------------------------------------------------------------

 SCF Done:  E(UB3LYP) =  -1136.13798059     A.U. after   19 cycles

 The electronic state is 2-A.
 Alpha  occ. eigenvalues --  -38.44077 -38.43968 -38.43747 -38.43627 -38.43437
 Alpha  occ. eigenvalues --  -38.43131 -38.43016  -2.19921  -2.19838  -2.19607
 Alpha  occ. eigenvalues --   -2.19513  -2.19282  -2.19126  -2.18873  -1.13604
 Alpha  occ. eigenvalues --   -1.13584  -1.13562  -1.13521  -1.13501  -1.13482
 Alpha  occ. eigenvalues --   -1.13292  -1.13275  -1.13237  -1.13175  -1.13134
 Alpha  occ. eigenvalues --   -1.13128  -1.12989  -1.12938  -1.12914  -1.12812
 Alpha  occ. eigenvalues --   -1.12765  -1.12745  -1.12548  -1.12532  -1.12509
 Alpha  occ. eigenvalues --   -0.18734  -0.13379  -0.12211  -0.10750
 Alpha virt. eigenvalues --   -0.05644  -0.05336  -0.04501  -0.03360  -0.02705
 Alpha virt. eigenvalues --   -0.02562  -0.01583  -0.01109  -0.00393  -0.00284
 Alpha virt. eigenvalues --   -0.00013   0.00357   0.00773   0.00873   0.00900

  Beta  occ. eigenvalues --  -38.44067 -38.43965 -38.43741 -38.43529 -38.43433
  Beta  occ. eigenvalues --  -38.43071 -38.43013  -2.19906  -2.19835  -2.19600
  Beta  occ. eigenvalues --   -2.19332  -2.19277  -2.19019  -2.18870  -1.13594
  Beta  occ. eigenvalues --   -1.13556  -1.13551  -1.13517  -1.13492  -1.13471
  Beta  occ. eigenvalues --   -1.13282  -1.13241  -1.13237  -1.13057  -1.13008
  Beta  occ. eigenvalues --   -1.13000  -1.12975  -1.12929  -1.12906  -1.12738
  Beta  occ. eigenvalues --   -1.12694  -1.12666  -1.12543  -1.12515  -1.12503
  Beta  occ. eigenvalues --   -0.18010  -0.13143  -0.11974
  Beta virt. eigenvalues --   -0.06829  -0.05580  -0.05325  -0.04486  -0.02552
  Beta virt. eigenvalues --   -0.01967  -0.01505  -0.01465  -0.01034  -0.00446
  Beta virt. eigenvalues --   -0.00326   0.00135   0.00387   0.00852   0.00867

 Mulliken charges and spin densities:
               1          2
     1  Na   0.199708  -0.047682
     2  Na  -0.312090   0.390142
     3  Na   0.147254  -0.011766
     4  Na   0.250055  -0.016836
     5  Na   0.063914  -0.043644
     6  Na   0.162174   0.009525
     7  Na  -0.511016   0.720260
 Sum of Mulliken charges =  -0.00000   1.00000

 Dipole moment (field-independent basis, Debye):
    X=              0.1631    Y=             -0.0745    Z=              0.1542  Tot=              0.2365
 Quadrupole moment (field-independent basis, Debye-Ang):
   XX=            -55.7714   YY=            -63.3464   ZZ=            -74.4928
   XY=              0.2417   XZ=             -1.2182   YZ=             -0.0758

 Normal termination of Gaussian 16 at Thu Dec  7 09:22:21 2023.
