 Gaussian 16, Revision B.01,
 Gaussian 16:  ES64L-G16RevB.01 20-Dec-2017

 -------------------------
 #P B3LYP/6-311+g(d) force
 -------------------------

 -----
 DPGEN
 -----
 Symbolic Z-matrix:
 Charge =  0 Multiplicity = 2

                         Standard orientation:
 ---------------------------------------------------------------------
 Center     Atomic      Atomic             Coordinates (Angstroms)
 Number     Number       Type             X           Y           Z
 ---------------------------------------------------------------------
      1         11           0        3.645401   -1.560716   -0.211178
      2         11           0       -4.173173   -0.416608   -0.603428
      3         11           0        0.471674   -0.929279   -1.430889
      4         11           0        1.087188    0.315157    1.970615
      5         11           0       -2.077019   -1.422343    0.930877
      6         11           0       -1.561655    2.248368   -0.102686
      7         11           0        2.607583    1.765421   -0.553312
 ---------------------------------------------------------------------

 SCF Done:  E(UB3LYP) =  -1136.11297142     A.U. after   30 cycles

 The electronic state is 2-A.
 Alpha  occ. eigenvalues --  -38.45502 -38.44874 -38.44326 -38.43999 -38.43923
 Alpha  occ. eigenvalues --  -38.43636 -38.43436  -2.21322  -2.20738  -2.20174
 Alpha  occ. eigenvalues --   -2.19842  -2.19811  -2.19518  -2.19224  -1.15028
 Alpha  occ. eigenvalues --   -1.14987  -1.14943  -1.14534  -1.14356  -1.14341
 Alpha  occ. eigenvalues --   -1.13875  -1.13848  -1.13770  -1.13514  -1.13488
 Alpha  occ. eigenvalues --   -1.13480  -1.13471  -1.13450  -1.13450  -1.13186
 Alpha  occ. eigenvalues --   -1.13174  -1.13121  -1.12921  -1.12893  -1.12835
 Alpha  occ. eigenvalues --   -0.18179  -0.14598  -0.10774  -0.10693
 Alpha virt. eigenvalues --   -0.07364  -0.05854  -0.04412  -0.03180  -0.02945
 Alpha virt. eigenvalues --   -0.02301  -0.02142  -0.01471  -0.01008  -0.00556
 Alpha virt. eigenvalues --   -0.00090   0.00118   0.00287   0.00535   0.00642

  Beta  occ. eigenvalues --  -38.45499 -38.44844 -38.44307 -38.43994 -38.43890
  Beta  occ. eigenvalues --  -38.43566 -38.43420  -2.21320  -2.20681  -2.20139
  Beta  occ. eigenvalues --   -2.19804  -2.19787  -2.19391  -2.19196  -1.15002
  Beta  occ. eigenvalues --   -1.14983  -1.14946  -1.14497  -1.14318  -1.14297
  Beta  occ. eigenvalues --   -1.13847  -1.13825  -1.13738  -1.13477  -1.13470
  Beta  occ. eigenvalues --   -1.13454  -1.13445  -1.13439  -1.13399  -1.13097
  Beta  occ. eigenvalues --   -1.13078  -1.13031  -1.12900  -1.12869  -1.12811
  Beta  occ. eigenvalues --   -0.17535  -0.14260  -0.10671
  Beta virt. eigenvalues --   -0.07169  -0.06903  -0.05634  -0.03875  -0.03041
  Beta virt. eigenvalues --   -0.02819  -0.01855  -0.01505  -0.01222  -0.00604
  Beta virt. eigenvalues --   -0.00362  -0.00013   0.00156   0.00413   0.00596

 Mulliken charges and spin densities:
               1          2
     1  Na   0.173564  -0.022463
     2  Na   0.344305   0.254095
     3  Na  -0.144506   0.156809
     4  Na   0.148870   0.320433
     5  Na  -0.070276  -0.014844
     6  Na  -0.403330   0.113279
     7  Na  -0.048626   0.192691
 Sum of Mulliken charges =  -0.00000   1.00000

 Dipole moment (field-independent basis, Debye):
    X=              0.1622    Y=              0.1703    Z=             -0.0935  Tot=              0.2531
 Quadrupole moment (field-independent basis, Debye-Ang):
   XX=            -52.0920   YY=            -76.2153   ZZ=            -69.5363
   XY=              0.3772   XZ=              3.6835   YZ=             -1.9960

 Normal termination of Gaussian 16 at Tue Dec  5 10:02:34 2023.
