 Gaussian 16, Revision B.01,
 Gaussian 16:  ES64L-G16RevB.01 20-Dec-2017

 -------------------------
 #P B3LYP/6-311+g(d) force
 -------------------------

 -----
 DPGEN
 -----
 Symbolic Z-matrix:
 Charge =  0 Multiplicity = 2

                         Standard orientation:
 ---------------------------------------------------------------------
 Center     Atomic      Atomic             Coordinates (Angstroms)
 Number     Number       Type             X           Y           Z
 ---------------------------------------------------------------------
      1         11           0        1.742445   -2.523971    0.038793
      2         11           0       -3.293521    0.723721    0.070316
      3         11           0        0.535136    3.081334    0.209889
      4         11           0       -1.285564   -2.395506   -0.340150
      5         11           0        0.052966   -0.122196    2.259801
      6         11           0        2.779052    0.820493   -0.511528
      7         11           0       -0.530513    0.416127   -1.727122
 ---------------------------------------------------------------------

 SCF Done:  E(UB3LYP) =  -1136.13469315     A.U. after   19 cycles

 The electronic state is 2-A.
 Alpha  occ. eigenvalues --  -38.44107 -38.43977 -38.43932 -38.43670 -38.43625
 Alpha  occ. eigenvalues --  -38.43455 -38.43338  -2.19947  -2.19771  -2.19756
 Alpha  occ. eigenvalues --   -2.19522  -2.19515  -2.19388  -2.19197  -1.13601
 Alpha  occ. eigenvalues --   -1.13576  -1.13568  -1.13454  -1.13437  -1.13426
 Alpha  occ. eigenvalues --   -1.13420  -1.13417  -1.13402  -1.13257  -1.13197
 Alpha  occ. eigenvalues --   -1.13194  -1.13170  -1.13163  -1.13148  -1.13055
 Alpha  occ. eigenvalues --   -1.13027  -1.12998  -1.12854  -1.12844  -1.12839
 Alpha  occ. eigenvalues --   -0.18380  -0.12853  -0.12475  -0.11031
 Alpha virt. eigenvalues --   -0.05648  -0.05107  -0.04698  -0.03283  -0.03131
 Alpha virt. eigenvalues --   -0.02898  -0.01420  -0.01183  -0.00359  -0.00193
 Alpha virt. eigenvalues --   -0.00036   0.00361   0.00815   0.00841   0.00898

  Beta  occ. eigenvalues --  -38.44003 -38.43979 -38.43930 -38.43660 -38.43616
  Beta  occ. eigenvalues --  -38.43399 -38.43336  -2.19776  -2.19756  -2.19751
  Beta  occ. eigenvalues --   -2.19508  -2.19499  -2.19287  -2.19197  -1.13474
  Beta  occ. eigenvalues --   -1.13450  -1.13445  -1.13436  -1.13428  -1.13424
  Beta  occ. eigenvalues --   -1.13417  -1.13410  -1.13391  -1.13244  -1.13177
  Beta  occ. eigenvalues --   -1.13176  -1.13148  -1.13142  -1.13141  -1.12992
  Beta  occ. eigenvalues --   -1.12954  -1.12925  -1.12856  -1.12843  -1.12821
  Beta  occ. eigenvalues --   -0.17639  -0.12645  -0.12305
  Beta virt. eigenvalues --   -0.07077  -0.05641  -0.04932  -0.04703  -0.02501
  Beta virt. eigenvalues --   -0.02400  -0.01846  -0.01334  -0.01099  -0.00390
  Beta virt. eigenvalues --   -0.00211   0.00108   0.00397   0.00837   0.00874

 Mulliken charges and spin densities:
               1          2
     1  Na   0.043889   0.018202
     2  Na   0.073194  -0.066494
     3  Na   0.058333  -0.024453
     4  Na   0.194686   0.010105
     5  Na  -0.524633   0.740805
     6  Na   0.108219   0.031700
     7  Na   0.046312   0.290135
 Sum of Mulliken charges =  -0.00000   1.00000

 Dipole moment (field-independent basis, Debye):
    X=             -0.2291    Y=              0.3954    Z=              0.2125  Tot=              0.5039
 Quadrupole moment (field-independent basis, Debye-Ang):
   XX=            -60.3157   YY=            -62.2626   ZZ=            -72.6510
   XY=             -1.1879   XZ=             -1.5256   YZ=              1.2301

 Normal termination of Gaussian 16 at Fri Dec  8 07:14:02 2023.
