 Gaussian 16, Revision B.01,
 Gaussian 16:  ES64L-G16RevB.01 20-Dec-2017

 -------------------------
 #P B3LYP/6-311+g(d) force
 -------------------------

 -----
 DPGEN
 -----
 Symbolic Z-matrix:
 Charge =  0 Multiplicity = 2

                         Standard orientation:
 ---------------------------------------------------------------------
 Center     Atomic      Atomic             Coordinates (Angstroms)
 Number     Number       Type             X           Y           Z
 ---------------------------------------------------------------------
      1         11           0       -3.099653    0.487798    0.327501
      2         11           0        0.018492   -0.684263    1.915263
      3         11           0       -0.562564    3.105292   -0.115886
      4         11           0        2.172526   -1.994658   -0.276310
      5         11           0       -0.291763    0.576525   -1.334458
      6         11           0        3.192794    1.220475    0.083832
      7         11           0       -1.429832   -2.711169   -0.599941
 ---------------------------------------------------------------------

 SCF Done:  E(UB3LYP) =  -1136.13126780     A.U. after   20 cycles

 The electronic state is 2-A.
 Alpha  occ. eigenvalues --  -38.44344 -38.44294 -38.43982 -38.43766 -38.43516
 Alpha  occ. eigenvalues --  -38.43276 -38.43018  -2.20128  -2.20122  -2.19837
 Alpha  occ. eigenvalues --   -2.19618  -2.19351  -2.19174  -2.19038  -1.13815
 Alpha  occ. eigenvalues --   -1.13800  -1.13792  -1.13779  -1.13766  -1.13753
 Alpha  occ. eigenvalues --   -1.13649  -1.13470  -1.13431  -1.13306  -1.13287
 Alpha  occ. eigenvalues --   -1.13243  -1.13022  -1.13009  -1.12991  -1.12858
 Alpha  occ. eigenvalues --   -1.12806  -1.12780  -1.12714  -1.12679  -1.12640
 Alpha  occ. eigenvalues --   -0.18418  -0.13099  -0.12555  -0.10141
 Alpha virt. eigenvalues --   -0.05953  -0.05300  -0.04991  -0.03053  -0.02766
 Alpha virt. eigenvalues --   -0.01994  -0.01713  -0.01298  -0.00744  -0.00523
 Alpha virt. eigenvalues --    0.00015   0.00328   0.00779   0.00806   0.00839

  Beta  occ. eigenvalues --  -38.44345 -38.44283 -38.43979 -38.43759 -38.43495
  Beta  occ. eigenvalues --  -38.43193 -38.42972  -2.20127  -2.20112  -2.19834
  Beta  occ. eigenvalues --   -2.19607  -2.19316  -2.19021  -2.18957  -1.13804
  Beta  occ. eigenvalues --   -1.13799  -1.13777  -1.13769  -1.13759  -1.13746
  Beta  occ. eigenvalues --   -1.13639  -1.13454  -1.13431  -1.13296  -1.13266
  Beta  occ. eigenvalues --   -1.13230  -1.12994  -1.12976  -1.12961  -1.12756
  Beta  occ. eigenvalues --   -1.12697  -1.12669  -1.12642  -1.12621  -1.12585
  Beta  occ. eigenvalues --   -0.17746  -0.12898  -0.12313
  Beta virt. eigenvalues --   -0.06330  -0.05893  -0.05278  -0.04866  -0.02327
  Beta virt. eigenvalues --   -0.02107  -0.01629  -0.01226  -0.00995  -0.00741
  Beta virt. eigenvalues --   -0.00561   0.00177   0.00384   0.00790   0.00841

 Mulliken charges and spin densities:
               1          2
     1  Na   0.150572   0.050019
     2  Na  -0.339627   0.648329
     3  Na   0.181366  -0.075192
     4  Na   0.157197   0.044726
     5  Na  -0.163554   0.312054
     6  Na  -0.074898  -0.070837
     7  Na   0.088945   0.090901
 Sum of Mulliken charges =  -0.00000   1.00000

 Dipole moment (field-independent basis, Debye):
    X=             -0.0049    Y=              0.2189    Z=              0.2121  Tot=              0.3049
 Quadrupole moment (field-independent basis, Debye-Ang):
   XX=            -54.4738   YY=            -60.1167   ZZ=            -77.1810
   XY=              0.9015   XZ=             -0.5758   YZ=              2.6679

 Normal termination of Gaussian 16 at Tue Dec  5 23:12:36 2023.
