 Gaussian 16, Revision B.01,
 Gaussian 16:  ES64L-G16RevB.01 20-Dec-2017

 -------------------------
 #P B3LYP/6-311+g(d) force
 -------------------------

 -----
 DPGEN
 -----
 Symbolic Z-matrix:
 Charge =  0 Multiplicity = 2

                         Standard orientation:
 ---------------------------------------------------------------------
 Center     Atomic      Atomic             Coordinates (Angstroms)
 Number     Number       Type             X           Y           Z
 ---------------------------------------------------------------------
      1         11           0       -1.657013    2.632577   -0.065724
      2         11           0        0.221198   -0.492939    2.000711
      3         11           0        2.232368    2.148392   -0.115465
      4         11           0        3.316749   -1.211633   -0.116559
      5         11           0       -0.109612    0.343648   -1.235857
      6         11           0       -3.308311   -0.517954    0.140600
      7         11           0       -0.695378   -2.902090   -0.607705
 ---------------------------------------------------------------------

 SCF Done:  E(UB3LYP) =  -1136.13005005     A.U. after   20 cycles

 The electronic state is 2-A.
 Alpha  occ. eigenvalues --  -38.44807 -38.44655 -38.43992 -38.43540 -38.43421
 Alpha  occ. eigenvalues --  -38.43260 -38.42887  -2.20574  -2.20456  -2.19825
 Alpha  occ. eigenvalues --   -2.19388  -2.19245  -2.19131  -2.18923  -1.14248
 Alpha  occ. eigenvalues --   -1.14231  -1.14216  -1.14129  -1.14113  -1.14097
 Alpha  occ. eigenvalues --   -1.13537  -1.13485  -1.13440  -1.13142  -1.13034
 Alpha  occ. eigenvalues --   -1.13006  -1.12939  -1.12902  -1.12871  -1.12826
 Alpha  occ. eigenvalues --   -1.12751  -1.12733  -1.12614  -1.12554  -1.12542
 Alpha  occ. eigenvalues --   -0.18275  -0.13205  -0.12231  -0.10013
 Alpha virt. eigenvalues --   -0.06343  -0.05505  -0.04614  -0.03008  -0.02586
 Alpha virt. eigenvalues --   -0.02083  -0.01960  -0.01403  -0.00693  -0.00611
 Alpha virt. eigenvalues --   -0.00013   0.00288   0.00691   0.00785   0.00795

  Beta  occ. eigenvalues --  -38.44807 -38.44653 -38.43986 -38.43537 -38.43402
  Beta  occ. eigenvalues --  -38.43164 -38.42845  -2.20577  -2.20455  -2.19818
  Beta  occ. eigenvalues --   -2.19387  -2.19212  -2.18953  -2.18849  -1.14236
  Beta  occ. eigenvalues --   -1.14233  -1.14219  -1.14118  -1.14105  -1.14099
  Beta  occ. eigenvalues --   -1.13528  -1.13463  -1.13439  -1.13136  -1.13018
  Beta  occ. eigenvalues --   -1.13006  -1.12913  -1.12864  -1.12852  -1.12709
  Beta  occ. eigenvalues --   -1.12627  -1.12606  -1.12540  -1.12501  -1.12490
  Beta  occ. eigenvalues --   -0.17602  -0.13021  -0.11984
  Beta virt. eigenvalues --   -0.06307  -0.06146  -0.05500  -0.04533  -0.02318
  Beta virt. eigenvalues --   -0.01983  -0.01887  -0.01359  -0.00986  -0.00698
  Beta virt. eigenvalues --   -0.00610   0.00165   0.00341   0.00729   0.00806

 Mulliken charges and spin densities:
               1          2
     1  Na   0.213364  -0.010890
     2  Na  -0.456740   0.730145
     3  Na   0.159979  -0.016154
     4  Na   0.137037  -0.031530
     5  Na  -0.351430   0.231673
     6  Na   0.283244   0.055849
     7  Na   0.014546   0.040906
 Sum of Mulliken charges =  -0.00000   1.00000

 Dipole moment (field-independent basis, Debye):
    X=              0.1693    Y=             -0.1108    Z=              0.1826  Tot=              0.2725
 Quadrupole moment (field-independent basis, Debye-Ang):
   XX=            -49.5098   YY=            -62.4226   ZZ=            -78.3527
   XY=             -0.9054   XZ=             -1.1650   YZ=              1.6635

 Normal termination of Gaussian 16 at Thu Dec  7 15:38:23 2023.
