 Gaussian 16, Revision B.01,
 Gaussian 16:  ES64L-G16RevB.01 20-Dec-2017

 -------------------------
 #P B3LYP/6-311+g(d) force
 -------------------------

 -----
 DPGEN
 -----
 Symbolic Z-matrix:
 Charge =  0 Multiplicity = 2

                         Standard orientation:
 ---------------------------------------------------------------------
 Center     Atomic      Atomic             Coordinates (Angstroms)
 Number     Number       Type             X           Y           Z
 ---------------------------------------------------------------------
      1         11           0       -2.508767    0.479636   -0.729380
      2         11           0       -3.072229   -2.426044   -0.066919
      3         11           0        1.051841    0.715664    1.775668
      4         11           0        0.374376   -1.772474    0.758136
      5         11           0        3.598056   -1.656985   -0.603487
      6         11           0       -0.586497    3.298214    0.415774
      7         11           0        1.143222    1.361989   -1.549791
 ---------------------------------------------------------------------

 SCF Done:  E(UB3LYP) =  -1136.12356659     A.U. after   19 cycles

 The electronic state is 2-A.
 Alpha  occ. eigenvalues --  -38.44413 -38.44282 -38.43926 -38.43845 -38.43802
 Alpha  occ. eigenvalues --  -38.43651 -38.43629  -2.20188  -2.20145  -2.19890
 Alpha  occ. eigenvalues --   -2.19703  -2.19659  -2.19551  -2.19479  -1.13861
 Alpha  occ. eigenvalues --   -1.13844  -1.13835  -1.13827  -1.13807  -1.13786
 Alpha  occ. eigenvalues --   -1.13744  -1.13506  -1.13474  -1.13382  -1.13364
 Alpha  occ. eigenvalues --   -1.13353  -1.13343  -1.13341  -1.13308  -1.13208
 Alpha  occ. eigenvalues --   -1.13193  -1.13131  -1.13125  -1.13100  -1.13078
 Alpha  occ. eigenvalues --   -0.18160  -0.13046  -0.12839  -0.10696
 Alpha virt. eigenvalues --   -0.06057  -0.05477  -0.04712  -0.03391  -0.02831
 Alpha virt. eigenvalues --   -0.02267  -0.01951  -0.01395  -0.00620  -0.00215
 Alpha virt. eigenvalues --    0.00030   0.00251   0.00609   0.00706   0.00771

  Beta  occ. eigenvalues --  -38.44387 -38.44236 -38.43842 -38.43841 -38.43789
  Beta  occ. eigenvalues --  -38.43655 -38.43600  -2.20140  -2.20060  -2.19739
  Beta  occ. eigenvalues --   -2.19699  -2.19635  -2.19502  -2.19486  -1.13830
  Beta  occ. eigenvalues --   -1.13801  -1.13781  -1.13774  -1.13764  -1.13690
  Beta  occ. eigenvalues --   -1.13680  -1.13412  -1.13378  -1.13370  -1.13358
  Beta  occ. eigenvalues --   -1.13332  -1.13320  -1.13315  -1.13292  -1.13170
  Beta  occ. eigenvalues --   -1.13135  -1.13125  -1.13118  -1.13097  -1.13060
  Beta  occ. eigenvalues --   -0.17519  -0.12815  -0.12640
  Beta virt. eigenvalues --   -0.06963  -0.05735  -0.05313  -0.04549  -0.02803
  Beta virt. eigenvalues --   -0.02350  -0.01737  -0.01626  -0.01224  -0.00584
  Beta virt. eigenvalues --    0.00046   0.00149   0.00329   0.00698   0.00753

 Mulliken charges and spin densities:
               1          2
     1  Na  -0.663191   0.054214
     2  Na   0.575951  -0.072928
     3  Na   0.347655   0.250037
     4  Na  -0.571871   0.232643
     5  Na   0.011306   0.114995
     6  Na   0.647785   0.065056
     7  Na  -0.347634   0.355983
 Sum of Mulliken charges =  -0.00000   1.00000

 Dipole moment (field-independent basis, Debye):
    X=              0.3169    Y=              0.2795    Z=             -0.0917  Tot=              0.4324
 Quadrupole moment (field-independent basis, Debye-Ang):
   XX=            -60.6078   YY=            -59.5085   ZZ=            -73.7852
   XY=             -1.9313   XZ=             -1.3219   YZ=              1.2538

 Normal termination of Gaussian 16 at Tue Dec  5 11:23:55 2023.
