 Gaussian 16, Revision B.01,
 Gaussian 16:  ES64L-G16RevB.01 20-Dec-2017

 -------------------------
 #P B3LYP/6-311+g(d) force
 -------------------------

 -----
 DPGEN
 -----
 Symbolic Z-matrix:
 Charge =  0 Multiplicity = 2

                         Standard orientation:
 ---------------------------------------------------------------------
 Center     Atomic      Atomic             Coordinates (Angstroms)
 Number     Number       Type             X           Y           Z
 ---------------------------------------------------------------------
      1         11           0       -2.752721   -0.426576   -0.213466
      2         11           0       -2.642909    3.627017    0.395569
      3         11           0        2.454235   -0.133075   -1.089866
      4         11           0       -2.412573   -3.118722    1.061582
      5         11           0        4.933766    0.434882    1.225272
      6         11           0        0.033615    2.219028   -0.514781
      7         11           0        0.386586   -2.602554   -0.864310
 ---------------------------------------------------------------------

 SCF Done:  E(UB3LYP) =  -1136.11939169     A.U. after   19 cycles

 The electronic state is 2-A.
 Alpha  occ. eigenvalues --  -38.44767 -38.44475 -38.44444 -38.44331 -38.44089
 Alpha  occ. eigenvalues --  -38.44010 -38.42849  -2.20598  -2.20281  -2.20267
 Alpha  occ. eigenvalues --   -2.20157  -2.19896  -2.19868  -2.18711  -1.14313
 Alpha  occ. eigenvalues --   -1.14273  -1.14222  -1.13974  -1.13955  -1.13946
 Alpha  occ. eigenvalues --   -1.13928  -1.13906  -1.13903  -1.13836  -1.13831
 Alpha  occ. eigenvalues --   -1.13747  -1.13541  -1.13527  -1.13526  -1.13507
 Alpha  occ. eigenvalues --   -1.13507  -1.13487  -1.12397  -1.12384  -1.12361
 Alpha  occ. eigenvalues --   -0.16773  -0.13601  -0.13225  -0.10629
 Alpha virt. eigenvalues --   -0.06432  -0.05668  -0.04417  -0.04003  -0.02547
 Alpha virt. eigenvalues --   -0.01967  -0.01839  -0.01673  -0.01590  -0.00968
 Alpha virt. eigenvalues --   -0.00192   0.00009   0.00236   0.00429   0.00586

  Beta  occ. eigenvalues --  -38.44752 -38.44479 -38.44404 -38.44327 -38.43990
  Beta  occ. eigenvalues --  -38.43966 -38.42841  -2.20573  -2.20274  -2.20207
  Beta  occ. eigenvalues --   -2.20148  -2.19832  -2.19666  -2.18705  -1.14290
  Beta  occ. eigenvalues --   -1.14246  -1.14206  -1.13977  -1.13933  -1.13910
  Beta  occ. eigenvalues --   -1.13907  -1.13889  -1.13850  -1.13829  -1.13820
  Beta  occ. eigenvalues --   -1.13750  -1.13509  -1.13482  -1.13465  -1.13371
  Beta  occ. eigenvalues --   -1.13370  -1.13356  -1.12400  -1.12384  -1.12300
  Beta  occ. eigenvalues --   -0.16386  -0.13243  -0.12702
  Beta virt. eigenvalues --   -0.06932  -0.06248  -0.05505  -0.03972  -0.03782
  Beta virt. eigenvalues --   -0.02470  -0.01863  -0.01506  -0.01337  -0.01058
  Beta virt. eigenvalues --   -0.00695   0.00102   0.00267   0.00393   0.00596

 Mulliken charges and spin densities:
               1          2
     1  Na  -0.579608   0.117919
     2  Na   0.706719  -0.016613
     3  Na   0.147988  -0.347631
     4  Na   0.673008   0.148398
     5  Na   0.169290   0.682233
     6  Na  -0.680151   0.093738
     7  Na  -0.437245   0.321956
 Sum of Mulliken charges =  -0.00000   1.00000

 Dipole moment (field-independent basis, Debye):
    X=             -1.8896    Y=             -0.1323    Z=              0.4290  Tot=              1.9422
 Quadrupole moment (field-independent basis, Debye-Ang):
   XX=            -71.4880   YY=            -57.3053   ZZ=            -70.2487
   XY=             -4.6749   XZ=             -1.3351   YZ=             -0.4397

 Normal termination of Gaussian 16 at Wed Nov 29 01:32:02 2023.
