 Gaussian 16, Revision B.01,
 Gaussian 16:  ES64L-G16RevB.01 20-Dec-2017

 -------------------------
 #P B3LYP/6-311+g(d) force
 -------------------------

 -----
 DPGEN
 -----
 Symbolic Z-matrix:
 Charge =  0 Multiplicity = 2

                         Standard orientation:
 ---------------------------------------------------------------------
 Center     Atomic      Atomic             Coordinates (Angstroms)
 Number     Number       Type             X           Y           Z
 ---------------------------------------------------------------------
      1         11           0        0.471962   -1.981815   -0.818910
      2         11           0        2.561922    0.744320   -0.105785
      3         11           0       -1.450314    1.197119   -0.848593
      4         11           0       -3.218996   -1.688976   -0.792542
      5         11           0       -2.694520   -0.056052    1.991396
      6         11           0        0.782509    4.035113   -0.073666
      7         11           0        3.547436   -2.249709    0.648100
 ---------------------------------------------------------------------

 SCF Done:  E(UB3LYP) =  -1136.12690456     A.U. after   19 cycles

 The electronic state is 2-A.
 Alpha  occ. eigenvalues --  -38.44496 -38.44129 -38.44040 -38.43890 -38.43890
 Alpha  occ. eigenvalues --  -38.43814 -38.43522  -2.20344  -2.19960  -2.19898
 Alpha  occ. eigenvalues --   -2.19754  -2.19739  -2.19650  -2.19286  -1.14027
 Alpha  occ. eigenvalues --   -1.14004  -1.13985  -1.13670  -1.13660  -1.13622
 Alpha  occ. eigenvalues --   -1.13597  -1.13566  -1.13488  -1.13441  -1.13425
 Alpha  occ. eigenvalues --   -1.13393  -1.13385  -1.13361  -1.13344  -1.13304
 Alpha  occ. eigenvalues --   -1.13299  -1.13253  -1.12959  -1.12955  -1.12916
 Alpha  occ. eigenvalues --   -0.17382  -0.14125  -0.12200  -0.10228
 Alpha virt. eigenvalues --   -0.06025  -0.05531  -0.05296  -0.03585  -0.02328
 Alpha virt. eigenvalues --   -0.02195  -0.02006  -0.01521  -0.01119  -0.00557
 Alpha virt. eigenvalues --   -0.00142   0.00142   0.00363   0.00590   0.00623

  Beta  occ. eigenvalues --  -38.44485 -38.44125 -38.44026 -38.43851 -38.43794
  Beta  occ. eigenvalues --  -38.43792 -38.43528  -2.20329  -2.19953  -2.19876
  Beta  occ. eigenvalues --   -2.19671  -2.19610  -2.19575  -2.19296  -1.14022
  Beta  occ. eigenvalues --   -1.13996  -1.13930  -1.13662  -1.13654  -1.13604
  Beta  occ. eigenvalues --   -1.13555  -1.13547  -1.13477  -1.13395  -1.13380
  Beta  occ. eigenvalues --   -1.13297  -1.13271  -1.13271  -1.13269  -1.13260
  Beta  occ. eigenvalues --   -1.13248  -1.13215  -1.12965  -1.12962  -1.12922
  Beta  occ. eigenvalues --   -0.16775  -0.13745  -0.12098
  Beta virt. eigenvalues --   -0.06478  -0.05784  -0.05272  -0.05180  -0.03135
  Beta virt. eigenvalues --   -0.02064  -0.01958  -0.01615  -0.01189  -0.01047
  Beta virt. eigenvalues --   -0.00320   0.00179   0.00256   0.00608   0.00679

 Mulliken charges and spin densities:
               1          2
     1  Na  -0.680839   0.050911
     2  Na  -0.673092   0.050770
     3  Na  -0.920248   0.338117
     4  Na   1.210466   0.180302
     5  Na  -0.225665   0.351137
     6  Na   0.344282  -0.088630
     7  Na   0.945096   0.117393
 Sum of Mulliken charges =  -0.00000   1.00000

 Dipole moment (field-independent basis, Debye):
    X=              0.0443    Y=             -0.8219    Z=             -0.0490  Tot=              0.8245
 Quadrupole moment (field-independent basis, Debye-Ang):
   XX=            -61.0228   YY=            -61.7503   ZZ=            -72.9029
   XY=              1.9833   XZ=              6.0817   YZ=             -0.4411

 Normal termination of Gaussian 16 at Wed Nov 29 00:43:58 2023.
