 Gaussian 16, Revision B.01,
 Gaussian 16:  ES64L-G16RevB.01 20-Dec-2017

 -------------------------
 #P B3LYP/6-311+g(d) force
 -------------------------

 -----
 DPGEN
 -----
 Symbolic Z-matrix:
 Charge =  0 Multiplicity = 2

                         Standard orientation:
 ---------------------------------------------------------------------
 Center     Atomic      Atomic             Coordinates (Angstroms)
 Number     Number       Type             X           Y           Z
 ---------------------------------------------------------------------
      1         11           0       -0.027183    0.139231    1.539500
      2         11           0        2.496596   -0.828251   -0.000900
      3         11           0       -2.470418   -0.961790   -0.000600
      4         11           0       -0.023383    0.139231   -1.538500
      5         11           0       -1.574934    1.656391   -0.002200
      6         11           0        0.126052   -1.871174    0.000700
      7         11           0        1.473269    1.726362    0.002000
 ---------------------------------------------------------------------

 SCF Done:  E(UB3LYP) =  -1136.03509186     A.U. after   21 cycles

 The electronic state is 2-A.
 Alpha  occ. eigenvalues --  -38.44603 -38.44602 -38.44452 -38.44440 -38.44154
 Alpha  occ. eigenvalues --  -38.43988 -38.43892  -2.21121  -2.21059  -2.20799
 Alpha  occ. eigenvalues --   -2.20596  -2.20290  -2.20206  -2.20120  -1.15408
 Alpha  occ. eigenvalues --   -1.15098  -1.15059  -1.14973  -1.14750  -1.14718
 Alpha  occ. eigenvalues --   -1.14712  -1.14361  -1.14203  -1.14186  -1.14132
 Alpha  occ. eigenvalues --   -1.14117  -1.14042  -1.13864  -1.13827  -1.13805
 Alpha  occ. eigenvalues --   -1.13771  -1.13740  -1.13690  -1.13646  -1.13568
 Alpha  occ. eigenvalues --   -0.22350  -0.14595  -0.12926  -0.12118
 Alpha virt. eigenvalues --   -0.05511  -0.04400  -0.03900  -0.03759  -0.02851
 Alpha virt. eigenvalues --   -0.02267  -0.01421  -0.00480   0.00001   0.00317
 Alpha virt. eigenvalues --    0.00739   0.00822   0.01000   0.01153   0.01195

  Beta  occ. eigenvalues --  -38.44511 -38.44509 -38.44441 -38.44415 -38.44144
  Beta  occ. eigenvalues --  -38.43972 -38.43875  -2.20978  -2.20893  -2.20746
  Beta  occ. eigenvalues --   -2.20580  -2.20276  -2.20184  -2.20097  -1.15342
  Beta  occ. eigenvalues --   -1.14973  -1.14969  -1.14927  -1.14654  -1.14641
  Beta  occ. eigenvalues --   -1.14587  -1.14348  -1.14177  -1.14117  -1.14109
  Beta  occ. eigenvalues --   -1.14017  -1.14014  -1.13812  -1.13805  -1.13788
  Beta  occ. eigenvalues --   -1.13721  -1.13686  -1.13640  -1.13605  -1.13563
  Beta  occ. eigenvalues --   -0.21542  -0.14177  -0.12544
  Beta virt. eigenvalues --   -0.07832  -0.05558  -0.04372  -0.03845  -0.02734
  Beta virt. eigenvalues --   -0.01927  -0.01340  -0.01221  -0.00448   0.00141
  Beta virt. eigenvalues --    0.00353   0.00736   0.00813   0.01001   0.01171

 Mulliken charges and spin densities:
               1          2
     1  Na  -0.539238   0.449078
     2  Na  -0.066926  -0.066804
     3  Na  -0.008114  -0.056860
     4  Na  -0.541436   0.448304
     5  Na   0.282887   0.036775
     6  Na   0.509832   0.153782
     7  Na   0.362995   0.035726
 Sum of Mulliken charges =  -0.00000   1.00000

 Dipole moment (field-independent basis, Debye):
    X=             -0.0706    Y=              0.0954    Z=              0.0010  Tot=              0.1186
 Quadrupole moment (field-independent basis, Debye-Ang):
   XX=            -55.6689   YY=            -70.4576   ZZ=            -71.1302
   XY=              0.3303   XZ=              0.0063   YZ=              0.0010

 Normal termination of Gaussian 16 at Fri Dec  8 18:16:08 2023.
