 Gaussian 16, Revision B.01,
 Gaussian 16:  ES64L-G16RevB.01 20-Dec-2017

 -------------------------
 #P B3LYP/6-311+g(d) force
 -------------------------

 -----
 DPGEN
 -----
 Symbolic Z-matrix:
 Charge =  0 Multiplicity = 2

                         Standard orientation:
 ---------------------------------------------------------------------
 Center     Atomic      Atomic             Coordinates (Angstroms)
 Number     Number       Type             X           Y           Z
 ---------------------------------------------------------------------
      1         11           0        3.152515   -1.179559   -0.390384
      2         11           0       -2.559375   -2.266723    0.244091
      3         11           0        1.850167    2.925052   -0.481268
      4         11           0        5.728938   -2.593066    0.389131
      5         11           0       -5.350969   -2.625295    0.072498
      6         11           0       -2.011322    1.696570   -0.864732
      7         11           0       -0.809953    4.043021    1.030663
 ---------------------------------------------------------------------

 SCF Done:  E(UB3LYP) =  -1136.10207579     A.U. after   19 cycles

 The electronic state is 2-A.
 Alpha  occ. eigenvalues --  -38.45174 -38.44693 -38.44479 -38.44404 -38.44089
 Alpha  occ. eigenvalues --  -38.43925 -38.43753  -2.20990  -2.20526  -2.20296
 Alpha  occ. eigenvalues --   -2.20234  -2.19888  -2.19753  -2.19545  -1.14663
 Alpha  occ. eigenvalues --   -1.14656  -1.14648  -1.14354  -1.14155  -1.14149
 Alpha  occ. eigenvalues --   -1.13959  -1.13949  -1.13894  -1.13873  -1.13856
 Alpha  occ. eigenvalues --   -1.13838  -1.13587  -1.13534  -1.13533  -1.13411
 Alpha  occ. eigenvalues --   -1.13393  -1.13362  -1.13207  -1.13203  -1.13176
 Alpha  occ. eigenvalues --   -0.15850  -0.13820  -0.13015  -0.10123
 Alpha virt. eigenvalues --   -0.07242  -0.05293  -0.04603  -0.03573  -0.03019
 Alpha virt. eigenvalues --   -0.02725  -0.02122  -0.02088  -0.01152  -0.00918
 Alpha virt. eigenvalues --   -0.00707  -0.00284  -0.00059   0.00229   0.00337

  Beta  occ. eigenvalues --  -38.45176 -38.44672 -38.44406 -38.44403 -38.44071
  Beta  occ. eigenvalues --  -38.43837 -38.43756  -2.20999  -2.20486  -2.20241
  Beta  occ. eigenvalues --   -2.20156  -2.19853  -2.19588  -2.19553  -1.14668
  Beta  occ. eigenvalues --   -1.14660  -1.14621  -1.14334  -1.14128  -1.14120
  Beta  occ. eigenvalues --   -1.13879  -1.13857  -1.13856  -1.13851  -1.13828
  Beta  occ. eigenvalues --   -1.13804  -1.13567  -1.13510  -1.13508  -1.13297
  Beta  occ. eigenvalues --   -1.13280  -1.13255  -1.13215  -1.13210  -1.13164
  Beta  occ. eigenvalues --   -0.15174  -0.13500  -0.12826
  Beta virt. eigenvalues --   -0.06893  -0.06632  -0.05093  -0.04207  -0.03354
  Beta virt. eigenvalues --   -0.02829  -0.02492  -0.01989  -0.01886  -0.01057
  Beta virt. eigenvalues --   -0.00449  -0.00349  -0.00124   0.00293   0.00373

 Mulliken charges and spin densities:
               1          2
     1  Na  -0.783693  -0.006264
     2  Na  -0.574014   0.100396
     3  Na   0.016990   0.527328
     4  Na   0.579683   0.066137
     5  Na   0.777298  -0.030611
     6  Na  -0.416337   0.377571
     7  Na   0.400074  -0.034556
 Sum of Mulliken charges =  -0.00000   1.00000

 Dipole moment (field-independent basis, Debye):
    X=             -1.5018    Y=              0.6323    Z=              0.5344  Tot=              1.7148
 Quadrupole moment (field-independent basis, Debye-Ang):
   XX=            -59.5296   YY=            -65.4097   ZZ=            -70.3592
   XY=             -3.9246   XZ=              1.7313   YZ=              3.3858

 Normal termination of Gaussian 16 at Sun Dec  3 23:36:43 2023.
