 Gaussian 16, Revision B.01,
 Gaussian 16:  ES64L-G16RevB.01 20-Dec-2017

 -------------------------
 #P B3LYP/6-311+g(d) force
 -------------------------

 -----
 DPGEN
 -----
 Symbolic Z-matrix:
 Charge =  0 Multiplicity = 2

                         Standard orientation:
 ---------------------------------------------------------------------
 Center     Atomic      Atomic             Coordinates (Angstroms)
 Number     Number       Type             X           Y           Z
 ---------------------------------------------------------------------
      1         11           0       -0.185335   -0.599975   -1.322793
      2         11           0       -3.047788   -2.050539   -0.035532
      3         11           0        0.572550    2.745655   -0.688929
      4         11           0        2.768325   -2.299322   -0.401535
      5         11           0       -2.602503    1.508351   -0.144385
      6         11           0       -0.525417   -0.072317    1.989802
      7         11           0        3.020167    0.768147    0.603372
 ---------------------------------------------------------------------

 SCF Done:  E(UB3LYP) =  -1136.12884418     A.U. after   21 cycles

 The electronic state is 2-A.
 Alpha  occ. eigenvalues --  -38.44403 -38.44352 -38.44342 -38.43966 -38.43845
 Alpha  occ. eigenvalues --  -38.43367 -38.42788  -2.20221  -2.20199  -2.20177
 Alpha  occ. eigenvalues --   -2.19769  -2.19721  -2.19305  -2.18641  -1.13913
 Alpha  occ. eigenvalues --   -1.13901  -1.13870  -1.13869  -1.13849  -1.13847
 Alpha  occ. eigenvalues --   -1.13839  -1.13833  -1.13813  -1.13432  -1.13425
 Alpha  occ. eigenvalues --   -1.13415  -1.13409  -1.13360  -1.13310  -1.13017
 Alpha  occ. eigenvalues --   -1.12946  -1.12921  -1.12318  -1.12299  -1.12283
 Alpha  occ. eigenvalues --   -0.18324  -0.13675  -0.11825  -0.10389
 Alpha virt. eigenvalues --   -0.06267  -0.06035  -0.04229  -0.03360  -0.02456
 Alpha virt. eigenvalues --   -0.02256  -0.02091  -0.01508  -0.00786  -0.00236
 Alpha virt. eigenvalues --   -0.00017   0.00269   0.00580   0.00658   0.00736

  Beta  occ. eigenvalues --  -38.44404 -38.44341 -38.44333 -38.43964 -38.43753
  Beta  occ. eigenvalues --  -38.43317 -38.42777  -2.20206  -2.20202  -2.20164
  Beta  occ. eigenvalues --   -2.19766  -2.19551  -2.19216  -2.18623  -1.13903
  Beta  occ. eigenvalues --   -1.13875  -1.13867  -1.13854  -1.13842  -1.13839
  Beta  occ. eigenvalues --   -1.13829  -1.13813  -1.13808  -1.13426  -1.13420
  Beta  occ. eigenvalues --   -1.13412  -1.13294  -1.13243  -1.13186  -1.12945
  Beta  occ. eigenvalues --   -1.12877  -1.12858  -1.12305  -1.12281  -1.12260
  Beta  occ. eigenvalues --   -0.17625  -0.13509  -0.11590
  Beta virt. eigenvalues --   -0.06587  -0.06155  -0.05935  -0.04058  -0.02742
  Beta virt. eigenvalues --   -0.01996  -0.01853  -0.01537  -0.01130  -0.00799
  Beta virt. eigenvalues --   -0.00172   0.00129   0.00306   0.00669   0.00700

 Mulliken charges and spin densities:
               1          2
     1  Na  -0.267713   0.282820
     2  Na   0.034688  -0.009864
     3  Na  -0.181113  -0.005259
     4  Na   0.016052  -0.011361
     5  Na   0.538929   0.100886
     6  Na  -0.337670   0.543539
     7  Na   0.196827   0.099239
 Sum of Mulliken charges =  -0.00000   1.00000

 Dipole moment (field-independent basis, Debye):
    X=             -0.4988    Y=             -0.3302    Z=              0.1751  Tot=              0.6232
 Quadrupole moment (field-independent basis, Debye-Ang):
   XX=            -51.5952   YY=            -64.8067   ZZ=            -76.2023
   XY=              1.3137   XZ=              0.9359   YZ=             -0.0215

 Normal termination of Gaussian 16 at Tue Dec  5 14:17:31 2023.
