 Gaussian 16, Revision B.01,
 Gaussian 16:  ES64L-G16RevB.01 20-Dec-2017

 -------------------------
 #P B3LYP/6-311+g(d) force
 -------------------------

 -----
 DPGEN
 -----
 Symbolic Z-matrix:
 Charge =  0 Multiplicity = 2

                         Standard orientation:
 ---------------------------------------------------------------------
 Center     Atomic      Atomic             Coordinates (Angstroms)
 Number     Number       Type             X           Y           Z
 ---------------------------------------------------------------------
      1         11           0        1.525419   -1.781033    0.185303
      2         11           0        4.786286   -1.137069   -0.396233
      3         11           0        2.327877    1.198842   -1.164603
      4         11           0       -0.833400    2.479856   -0.535823
      5         11           0       -2.290408   -0.929040    0.635889
      6         11           0        0.118495    1.087526    2.176534
      7         11           0       -5.634269   -0.919083   -0.901067
 ---------------------------------------------------------------------

 SCF Done:  E(UB3LYP) =  -1136.11827903     A.U. after   21 cycles

 The electronic state is 2-A.
 Alpha  occ. eigenvalues --  -38.44917 -38.44691 -38.44653 -38.44285 -38.44042
 Alpha  occ. eigenvalues --  -38.43688 -38.43134  -2.20770  -2.20495  -2.20493
 Alpha  occ. eigenvalues --   -2.20142  -2.19889  -2.19455  -2.18929  -1.14451
 Alpha  occ. eigenvalues --   -1.14420  -1.14401  -1.14199  -1.14179  -1.14164
 Alpha  occ. eigenvalues --   -1.14155  -1.14141  -1.14059  -1.13850  -1.13815
 Alpha  occ. eigenvalues --   -1.13726  -1.13558  -1.13535  -1.13508  -1.13106
 Alpha  occ. eigenvalues --   -1.13105  -1.13066  -1.12639  -1.12619  -1.12552
 Alpha  occ. eigenvalues --   -0.17689  -0.13742  -0.11787  -0.11057
 Alpha virt. eigenvalues --   -0.06691  -0.05771  -0.04887  -0.03217  -0.03012
 Alpha virt. eigenvalues --   -0.02200  -0.02133  -0.01640  -0.01302  -0.00607
 Alpha virt. eigenvalues --   -0.00309  -0.00048   0.00295   0.00375   0.00478

  Beta  occ. eigenvalues --  -38.44893 -38.44686 -38.44620 -38.44248 -38.44014
  Beta  occ. eigenvalues --  -38.43618 -38.43143  -2.20727  -2.20485  -2.20435
  Beta  occ. eigenvalues --   -2.20074  -2.19837  -2.19322  -2.18951  -1.14425
  Beta  occ. eigenvalues --   -1.14392  -1.14352  -1.14162  -1.14157  -1.14153
  Beta  occ. eigenvalues --   -1.14137  -1.14118  -1.14012  -1.13805  -1.13769
  Beta  occ. eigenvalues --   -1.13670  -1.13521  -1.13503  -1.13470  -1.13016
  Beta  occ. eigenvalues --   -1.13015  -1.12980  -1.12661  -1.12640  -1.12523
  Beta  occ. eigenvalues --   -0.17146  -0.13567  -0.11079
  Beta virt. eigenvalues --   -0.07684  -0.06469  -0.05425  -0.04431  -0.02954
  Beta virt. eigenvalues --   -0.02830  -0.02054  -0.01666  -0.01421  -0.00899
  Beta virt. eigenvalues --   -0.00361  -0.00180   0.00119   0.00405   0.00488

 Mulliken charges and spin densities:
               1          2
     1  Na  -0.079275   0.131407
     2  Na   0.473166   0.037697
     3  Na  -0.242622   0.223581
     4  Na   0.188689   0.166040
     5  Na  -0.682445  -0.116941
     6  Na   0.283196   0.180699
     7  Na   0.059292   0.377518
 Sum of Mulliken charges =  -0.00000   1.00000

 Dipole moment (field-independent basis, Debye):
    X=              2.8552    Y=              0.6977    Z=              0.6002  Tot=              2.9999
 Quadrupole moment (field-independent basis, Debye-Ang):
   XX=            -60.7317   YY=            -72.4930   ZZ=            -66.8065
   XY=             -6.8587   XZ=              2.6777   YZ=              2.0012

 Normal termination of Gaussian 16 at Tue Nov 28 22:01:44 2023.
