 Gaussian 16, Revision B.01,
 Gaussian 16:  ES64L-G16RevB.01 20-Dec-2017

 -------------------------
 #P B3LYP/6-311+g(d) force
 -------------------------

 -----
 DPGEN
 -----
 Symbolic Z-matrix:
 Charge =  0 Multiplicity = 2

                         Standard orientation:
 ---------------------------------------------------------------------
 Center     Atomic      Atomic             Coordinates (Angstroms)
 Number     Number       Type             X           Y           Z
 ---------------------------------------------------------------------
      1         11           0       -0.361739    0.447174   -1.695338
      2         11           0        0.938668   -2.630639   -0.383903
      3         11           0       -3.026199   -1.465786   -0.141047
      4         11           0        1.411621    2.321778    0.327275
      5         11           0       -1.975593    2.187627    0.041614
      6         11           0        0.089409   -0.619043    2.283606
      7         11           0        2.923833   -0.241110   -0.432207
 ---------------------------------------------------------------------

 SCF Done:  E(UB3LYP) =  -1136.13152886     A.U. after   20 cycles

 The electronic state is 2-A.
 Alpha  occ. eigenvalues --  -38.44283 -38.44108 -38.43800 -38.43690 -38.43518
 Alpha  occ. eigenvalues --  -38.43475 -38.43169  -2.20050  -2.19950  -2.19674
 Alpha  occ. eigenvalues --   -2.19597  -2.19498  -2.19340  -2.19080  -1.13731
 Alpha  occ. eigenvalues --   -1.13702  -1.13695  -1.13603  -1.13585  -1.13566
 Alpha  occ. eigenvalues --   -1.13492  -1.13326  -1.13315  -1.13287  -1.13278
 Alpha  occ. eigenvalues --   -1.13233  -1.13162  -1.13115  -1.13099  -1.13002
 Alpha  occ. eigenvalues --   -1.12999  -1.12962  -1.12755  -1.12728  -1.12714
 Alpha  occ. eigenvalues --   -0.18673  -0.13040  -0.12368  -0.11147
 Alpha virt. eigenvalues --   -0.05782  -0.05081  -0.04350  -0.03384  -0.03242
 Alpha virt. eigenvalues --   -0.02806  -0.01502  -0.01007  -0.00214  -0.00135
 Alpha virt. eigenvalues --   -0.00041   0.00357   0.00772   0.00871   0.00919

  Beta  occ. eigenvalues --  -38.44285 -38.44007 -38.43797 -38.43680 -38.43466
  Beta  occ. eigenvalues --  -38.43464 -38.43159  -2.20055  -2.19763  -2.19671
  Beta  occ. eigenvalues --   -2.19582  -2.19399  -2.19327  -2.19066  -1.13722
  Beta  occ. eigenvalues --   -1.13706  -1.13698  -1.13480  -1.13471  -1.13452
  Beta  occ. eigenvalues --   -1.13434  -1.13308  -1.13305  -1.13279  -1.13277
  Beta  occ. eigenvalues --   -1.13200  -1.13101  -1.13052  -1.13029  -1.12994
  Beta  occ. eigenvalues --   -1.12965  -1.12953  -1.12746  -1.12714  -1.12683
  Beta  occ. eigenvalues --   -0.17933  -0.12824  -0.12165
  Beta virt. eigenvalues --   -0.07173  -0.05785  -0.04985  -0.04282  -0.02613
  Beta virt. eigenvalues --   -0.02441  -0.01802  -0.01409  -0.00937  -0.00253
  Beta virt. eigenvalues --   -0.00140   0.00100   0.00390   0.00835   0.00928

 Mulliken charges and spin densities:
               1          2
     1  Na  -0.184290   0.219253
     2  Na   0.199642  -0.006102
     3  Na   0.012424  -0.102517
     4  Na   0.221518   0.180132
     5  Na   0.292412   0.026791
     6  Na  -0.713365   0.640019
     7  Na   0.171658   0.042425
 Sum of Mulliken charges =  -0.00000   1.00000

 Dipole moment (field-independent basis, Debye):
    X=             -0.4917    Y=             -0.1926    Z=              0.2089  Tot=              0.5679
 Quadrupole moment (field-independent basis, Debye-Ang):
   XX=            -58.4821   YY=            -65.2423   ZZ=            -71.6406
   XY=              0.5965   XZ=             -0.9802   YZ=              1.8938

 Normal termination of Gaussian 16 at Thu Dec  7 20:09:40 2023.
