 Gaussian 16, Revision B.01,
 Gaussian 16:  ES64L-G16RevB.01 20-Dec-2017

 -------------------------
 #P B3LYP/6-311+g(d) force
 -------------------------

 -----
 DPGEN
 -----
 Symbolic Z-matrix:
 Charge =  0 Multiplicity = 2

                         Standard orientation:
 ---------------------------------------------------------------------
 Center     Atomic      Atomic             Coordinates (Angstroms)
 Number     Number       Type             X           Y           Z
 ---------------------------------------------------------------------
      1         11           0        2.389922   -1.678227    0.042210
      2         11           0        0.191331    0.059146   -1.856801
      3         11           0        2.475259    1.746750   -0.108823
      4         11           0       -1.263223    2.575907    0.063113
      5         11           0       -0.837675   -2.543447   -0.014466
      6         11           0        0.237290    0.083943    1.917473
      7         11           0       -3.192904   -0.244072   -0.042707
 ---------------------------------------------------------------------

 SCF Done:  E(UB3LYP) =  -1136.13993250     A.U. after   18 cycles

 The electronic state is 2-A.
 Alpha  occ. eigenvalues --  -38.44021 -38.43743 -38.43546 -38.43465 -38.43416
 Alpha  occ. eigenvalues --  -38.43371 -38.42937  -2.19852  -2.19604  -2.19445
 Alpha  occ. eigenvalues --   -2.19410  -2.19375  -2.19219  -2.18844  -1.13521
 Alpha  occ. eigenvalues --   -1.13515  -1.13503  -1.13297  -1.13279  -1.13239
 Alpha  occ. eigenvalues --   -1.13152  -1.13124  -1.13078  -1.13076  -1.13043
 Alpha  occ. eigenvalues --   -1.13035  -1.13021  -1.13008  -1.12989  -1.12891
 Alpha  occ. eigenvalues --   -1.12887  -1.12843  -1.12525  -1.12506  -1.12476
 Alpha  occ. eigenvalues --   -0.19010  -0.13173  -0.12432  -0.10956
 Alpha virt. eigenvalues --   -0.05616  -0.05179  -0.04374  -0.03263  -0.02922
 Alpha virt. eigenvalues --   -0.02682  -0.01494  -0.01033  -0.00252  -0.00073
 Alpha virt. eigenvalues --   -0.00026   0.00367   0.00815   0.00910   0.00946

  Beta  occ. eigenvalues --  -38.44022 -38.43737 -38.43539 -38.43379 -38.43367
  Beta  occ. eigenvalues --  -38.43335 -38.42931  -2.19855  -2.19596  -2.19436
  Beta  occ. eigenvalues --   -2.19252  -2.19226  -2.19215  -2.18836  -1.13527
  Beta  occ. eigenvalues --   -1.13508  -1.13499  -1.13290  -1.13244  -1.13236
  Beta  occ. eigenvalues --   -1.13135  -1.13079  -1.13073  -1.12984  -1.12946
  Beta  occ. eigenvalues --   -1.12933  -1.12916  -1.12911  -1.12888  -1.12867
  Beta  occ. eigenvalues --   -1.12853  -1.12843  -1.12522  -1.12478  -1.12466
  Beta  occ. eigenvalues --   -0.18247  -0.12943  -0.12167
  Beta virt. eigenvalues --   -0.07006  -0.05581  -0.05180  -0.04364  -0.02457
  Beta virt. eigenvalues --   -0.02097  -0.01604  -0.01415  -0.00971  -0.00312
  Beta virt. eigenvalues --   -0.00130   0.00109   0.00384   0.00874   0.00902

 Mulliken charges and spin densities:
               1          2
     1  Na   0.383115  -0.029441
     2  Na  -0.417227   0.705949
     3  Na   0.260051  -0.117582
     4  Na   0.107614  -0.137680
     5  Na   0.166352  -0.068082
     6  Na  -0.446776   0.731693
     7  Na  -0.053130  -0.084857
 Sum of Mulliken charges =  -0.00000   1.00000

 Dipole moment (field-independent basis, Debye):
    X=              0.0399    Y=              0.1979    Z=              0.0186  Tot=              0.2028
 Quadrupole moment (field-independent basis, Debye-Ang):
   XX=            -55.9207   YY=            -64.8382   ZZ=            -73.2134
   XY=              0.1306   XZ=             -0.0413   YZ=             -0.0835

 Normal termination of Gaussian 16 at Thu Dec  7 02:25:32 2023.
