 Gaussian 16, Revision B.01,
 Gaussian 16:  ES64L-G16RevB.01 20-Dec-2017

 -------------------------
 #P B3LYP/6-311+g(d) force
 -------------------------

 -----
 DPGEN
 -----
 Symbolic Z-matrix:
 Charge =  0 Multiplicity = 2

                         Standard orientation:
 ---------------------------------------------------------------------
 Center     Atomic      Atomic             Coordinates (Angstroms)
 Number     Number       Type             X           Y           Z
 ---------------------------------------------------------------------
      1         11           0        1.330357    1.944011    0.276542
      2         11           0        2.449604   -1.132127    1.336046
      3         11           0       -0.333545   -1.399246   -0.902250
      4         11           0        4.232807   -0.094326   -1.003665
      5         11           0       -2.628104    1.194546   -1.395271
      6         11           0       -3.244608   -1.621930    0.215389
      7         11           0       -1.806512    1.109071    1.473210
 ---------------------------------------------------------------------

 SCF Done:  E(UB3LYP) =  -1136.11192415     A.U. after   29 cycles

 The electronic state is 2-A.
 Alpha  occ. eigenvalues --  -38.44547 -38.44447 -38.44264 -38.44218 -38.43995
 Alpha  occ. eigenvalues --  -38.43856 -38.43258  -2.20406  -2.20363  -2.20142
 Alpha  occ. eigenvalues --   -2.20060  -2.19887  -2.19776  -2.19094  -1.14094
 Alpha  occ. eigenvalues --   -1.14089  -1.14068  -1.14059  -1.14036  -1.13948
 Alpha  occ. eigenvalues --   -1.13843  -1.13809  -1.13778  -1.13713  -1.13692
 Alpha  occ. eigenvalues --   -1.13672  -1.13575  -1.13522  -1.13519  -1.13450
 Alpha  occ. eigenvalues --   -1.13421  -1.13396  -1.12794  -1.12781  -1.12694
 Alpha  occ. eigenvalues --   -0.18389  -0.14995  -0.10892  -0.10281
 Alpha virt. eigenvalues --   -0.07239  -0.05765  -0.04909  -0.03085  -0.02965
 Alpha virt. eigenvalues --   -0.02050  -0.01930  -0.01254  -0.01025  -0.00582
 Alpha virt. eigenvalues --   -0.00016   0.00077   0.00241   0.00448   0.00587

  Beta  occ. eigenvalues --  -38.44530 -38.44396 -38.44244 -38.44149 -38.43991
  Beta  occ. eigenvalues --  -38.43846 -38.43249  -2.20381  -2.20268  -2.20111
  Beta  occ. eigenvalues --   -2.19931  -2.19883  -2.19762  -2.19082  -1.14073
  Beta  occ. eigenvalues --   -1.14047  -1.14031  -1.14015  -1.13972  -1.13880
  Beta  occ. eigenvalues --   -1.13813  -1.13790  -1.13742  -1.13626  -1.13602
  Beta  occ. eigenvalues --   -1.13589  -1.13576  -1.13521  -1.13490  -1.13436
  Beta  occ. eigenvalues --   -1.13391  -1.13381  -1.12789  -1.12753  -1.12685
  Beta  occ. eigenvalues --   -0.17808  -0.14501  -0.10706
  Beta virt. eigenvalues --   -0.07111  -0.06730  -0.05366  -0.04489  -0.02956
  Beta virt. eigenvalues --   -0.02713  -0.01813  -0.01403  -0.00924  -0.00596
  Beta virt. eigenvalues --   -0.00317   0.00112   0.00184   0.00345   0.00538

 Mulliken charges and spin densities:
               1          2
     1  Na  -0.412680   0.012242
     2  Na   0.283988  -0.009378
     3  Na  -0.610738   0.139970
     4  Na   0.060354   0.372160
     5  Na  -0.168413   0.141611
     6  Na   0.547171   0.020221
     7  Na   0.300319   0.323173
 Sum of Mulliken charges =  -0.00000   1.00000

 Dipole moment (field-independent basis, Debye):
    X=             -0.2923    Y=             -0.2422    Z=              0.4110  Tot=              0.5595
 Quadrupole moment (field-independent basis, Debye-Ang):
   XX=            -60.1366   YY=            -79.3642   ZZ=            -62.4023
   XY=              0.3274   XZ=             -2.1342   YZ=             -4.5678

 Normal termination of Gaussian 16 at Wed Nov 29 16:01:35 2023.
