 Gaussian 16, Revision B.01,
 Gaussian 16:  ES64L-G16RevB.01 20-Dec-2017

 -------------------------
 #P B3LYP/6-311+g(d) force
 -------------------------

 -----
 DPGEN
 -----
 Symbolic Z-matrix:
 Charge =  0 Multiplicity = 2

                         Standard orientation:
 ---------------------------------------------------------------------
 Center     Atomic      Atomic             Coordinates (Angstroms)
 Number     Number       Type             X           Y           Z
 ---------------------------------------------------------------------
      1         11           0       -1.416365   -1.201389   -1.279767
      2         11           0       -2.376203    0.595550    1.307014
      3         11           0        4.017590    1.963725    0.426088
      4         11           0        0.630656    0.373742    0.261421
      5         11           0        1.458131   -2.070869   -1.785159
      6         11           0       -0.088088   -2.169196    2.059201
      7         11           0       -2.225721    2.508437   -0.988797
 ---------------------------------------------------------------------

 SCF Done:  E(UB3LYP) =  -1136.11239083     A.U. after   24 cycles

 The electronic state is 2-A.
 Alpha  occ. eigenvalues --  -38.44569 -38.44392 -38.44054 -38.43982 -38.43815
 Alpha  occ. eigenvalues --  -38.43788 -38.43003  -2.20432  -2.20382  -2.19901
 Alpha  occ. eigenvalues --   -2.19834  -2.19773  -2.19535  -2.19032  -1.14226
 Alpha  occ. eigenvalues --   -1.14108  -1.14058  -1.14047  -1.13995  -1.13936
 Alpha  occ. eigenvalues --   -1.13660  -1.13548  -1.13542  -1.13536  -1.13474
 Alpha  occ. eigenvalues --   -1.13454  -1.13447  -1.13427  -1.13328  -1.13194
 Alpha  occ. eigenvalues --   -1.13190  -1.13155  -1.12765  -1.12667  -1.12657
 Alpha  occ. eigenvalues --   -0.18768  -0.13231  -0.11916  -0.11343
 Alpha virt. eigenvalues --   -0.05836  -0.05447  -0.04731  -0.03232  -0.02799
 Alpha virt. eigenvalues --   -0.02274  -0.01602  -0.01359  -0.01022  -0.00084
 Alpha virt. eigenvalues --   -0.00028   0.00147   0.00439   0.00651   0.00749

  Beta  occ. eigenvalues --  -38.44524 -38.44343 -38.44049 -38.43934 -38.43803
  Beta  occ. eigenvalues --  -38.43743 -38.42987  -2.20351  -2.20295  -2.19893
  Beta  occ. eigenvalues --   -2.19754  -2.19746  -2.19452  -2.19009  -1.14155
  Beta  occ. eigenvalues --   -1.14045  -1.14007  -1.13995  -1.13919  -1.13872
  Beta  occ. eigenvalues --   -1.13653  -1.13538  -1.13533  -1.13471  -1.13448
  Beta  occ. eigenvalues --   -1.13421  -1.13400  -1.13385  -1.13302  -1.13136
  Beta  occ. eigenvalues --   -1.13133  -1.13100  -1.12705  -1.12661  -1.12642
  Beta  occ. eigenvalues --   -0.18152  -0.12955  -0.10845
  Beta virt. eigenvalues --   -0.08109  -0.05545  -0.05265  -0.04379  -0.02730
  Beta virt. eigenvalues --   -0.02489  -0.01716  -0.01514  -0.01115  -0.00659
  Beta virt. eigenvalues --    0.00070   0.00125   0.00216   0.00490   0.00685

 Mulliken charges and spin densities:
               1          2
     1  Na   0.841055   0.360457
     2  Na   1.084222  -0.085663
     3  Na   0.179732   0.129534
     4  Na  -2.396072   0.611539
     5  Na   0.087020   0.014109
     6  Na   0.084372  -0.015159
     7  Na   0.119671  -0.014817
 Sum of Mulliken charges =  -0.00000   1.00000

 Dipole moment (field-independent basis, Debye):
    X=             -1.1274    Y=             -0.9812    Z=             -0.2532  Tot=              1.5158
 Quadrupole moment (field-independent basis, Debye-Ang):
   XX=            -64.7177   YY=            -63.7453   ZZ=            -65.6857
   XY=             -5.7374   XZ=              0.6214   YZ=             -0.2034

 Normal termination of Gaussian 16 at Tue Dec  5 21:58:46 2023.
