 Gaussian 16, Revision B.01,
 Gaussian 16:  ES64L-G16RevB.01 20-Dec-2017

 -------------------------
 #P B3LYP/6-311+g(d) force
 -------------------------

 -----
 DPGEN
 -----
 Symbolic Z-matrix:
 Charge =  0 Multiplicity = 2

                         Standard orientation:
 ---------------------------------------------------------------------
 Center     Atomic      Atomic             Coordinates (Angstroms)
 Number     Number       Type             X           Y           Z
 ---------------------------------------------------------------------
      1         11           0        1.459080   -1.536952   -0.800607
      2         11           0        4.325316   -0.454316   -0.798493
      3         11           0        2.313324    2.110498   -0.004561
      4         11           0       -0.961855    2.011328    0.587247
      5         11           0       -1.723377   -0.539925   -0.912319
      6         11           0        0.487572   -1.417644    2.349018
      7         11           0       -5.900060   -0.172989   -0.420284
 ---------------------------------------------------------------------

 SCF Done:  E(UB3LYP) =  -1136.10284659     A.U. after   32 cycles

 The electronic state is 2-A.
 Alpha  occ. eigenvalues --  -38.45954 -38.45813 -38.44638 -38.43928 -38.43596
 Alpha  occ. eigenvalues --  -38.43308 -38.42932  -2.21728  -2.21618  -2.20464
 Alpha  occ. eigenvalues --   -2.19783  -2.19492  -2.19124  -2.18795  -1.15355
 Alpha  occ. eigenvalues --   -1.15353  -1.15325  -1.15265  -1.15244  -1.15225
 Alpha  occ. eigenvalues --   -1.14170  -1.14149  -1.14107  -1.13495  -1.13421
 Alpha  occ. eigenvalues --   -1.13417  -1.13191  -1.13170  -1.13114  -1.12817
 Alpha  occ. eigenvalues --   -1.12813  -1.12762  -1.12482  -1.12450  -1.12421
 Alpha  occ. eigenvalues --   -0.17501  -0.13847  -0.12087  -0.11167
 Alpha virt. eigenvalues --   -0.07538  -0.05124  -0.04315  -0.03304  -0.03081
 Alpha virt. eigenvalues --   -0.02566  -0.02168  -0.01783  -0.01457  -0.01132
 Alpha virt. eigenvalues --   -0.00333   0.00107   0.00304   0.00597   0.00641

  Beta  occ. eigenvalues --  -38.45803 -38.45709 -38.44669 -38.43898 -38.43627
  Beta  occ. eigenvalues --  -38.43331 -38.42929  -2.21446  -2.21424  -2.20524
  Beta  occ. eigenvalues --   -2.19726  -2.19553  -2.19170  -2.18789  -1.15163
  Beta  occ. eigenvalues --   -1.15162  -1.15134  -1.15133  -1.15119  -1.15089
  Beta  occ. eigenvalues --   -1.14219  -1.14175  -1.14138  -1.13472  -1.13387
  Beta  occ. eigenvalues --   -1.13373  -1.13218  -1.13207  -1.13143  -1.12850
  Beta  occ. eigenvalues --   -1.12839  -1.12788  -1.12481  -1.12439  -1.12425
  Beta  occ. eigenvalues --   -0.17301  -0.12849  -0.11234
  Beta virt. eigenvalues --   -0.08187  -0.06927  -0.04844  -0.04228  -0.03125
  Beta virt. eigenvalues --   -0.02638  -0.02226  -0.01731  -0.01214  -0.01098
  Beta virt. eigenvalues --   -0.00554  -0.00128   0.00218   0.00466   0.00626

 Mulliken charges and spin densities:
               1          2
     1  Na  -0.233196   0.495901
     2  Na   0.480494  -0.008961
     3  Na  -0.113845   0.035212
     4  Na  -0.274363  -0.255788
     5  Na  -0.154042  -0.084370
     6  Na   0.127784   0.312402
     7  Na   0.167168   0.505605
 Sum of Mulliken charges =  -0.00000   1.00000

 Dipole moment (field-independent basis, Debye):
    X=             -0.4789    Y=             -0.4204    Z=              0.8654  Tot=              1.0747
 Quadrupole moment (field-independent basis, Debye-Ang):
   XX=            -57.1859   YY=            -78.8402   ZZ=            -64.0408
   XY=             -1.1343   XZ=             -0.4263   YZ=              0.8495

 Normal termination of Gaussian 16 at Wed Nov 29 00:54:04 2023.
