 Gaussian 16, Revision B.01,
 Gaussian 16:  ES64L-G16RevB.01 20-Dec-2017

 -------------------------
 #P B3LYP/6-311+g(d) force
 -------------------------

 -----
 DPGEN
 -----
 Symbolic Z-matrix:
 Charge =  0 Multiplicity = 2

                         Standard orientation:
 ---------------------------------------------------------------------
 Center     Atomic      Atomic             Coordinates (Angstroms)
 Number     Number       Type             X           Y           Z
 ---------------------------------------------------------------------
      1         11           0       -5.947231    1.206181    0.396149
      2         11           0       -3.078910    2.345706   -0.507943
      3         11           0       -4.417750   -1.502388    0.321168
      4         11           0       -1.166007   -2.030050   -1.186141
      5         11           0        1.257227   -0.945304    1.248081
      6         11           0        5.167393    0.330853   -0.490249
      7         11           0        8.185278    0.595001    0.218936
 ---------------------------------------------------------------------

 SCF Done:  E(UB3LYP) =  -1136.10367196     A.U. after   20 cycles

 The electronic state is 2-A.
 Alpha  occ. eigenvalues --  -38.45349 -38.44867 -38.44664 -38.44445 -38.44361
 Alpha  occ. eigenvalues --  -38.44000 -38.43888  -2.21153  -2.20610  -2.20504
 Alpha  occ. eigenvalues --   -2.20210  -2.20204  -2.19787  -2.19665  -1.14807
 Alpha  occ. eigenvalues --   -1.14789  -1.14777  -1.14278  -1.14272  -1.14228
 Alpha  occ. eigenvalues --   -1.14213  -1.14160  -1.14155  -1.13889  -1.13886
 Alpha  occ. eigenvalues --   -1.13863  -1.13842  -1.13831  -1.13818  -1.13492
 Alpha  occ. eigenvalues --   -1.13440  -1.13440  -1.13332  -1.13330  -1.13267
 Alpha  occ. eigenvalues --   -0.16191  -0.13515  -0.12376  -0.10887
 Alpha virt. eigenvalues --   -0.07454  -0.05115  -0.04864  -0.03432  -0.03247
 Alpha virt. eigenvalues --   -0.02719  -0.02327  -0.02050  -0.01278  -0.01147
 Alpha virt. eigenvalues --   -0.00809  -0.00340   0.00078   0.00187   0.00306

  Beta  occ. eigenvalues --  -38.45265 -38.44836 -38.44670 -38.44444 -38.44286
  Beta  occ. eigenvalues --  -38.43987 -38.43892  -2.20997  -2.20552  -2.20522
  Beta  occ. eigenvalues --   -2.20207  -2.20068  -2.19764  -2.19673  -1.14700
  Beta  occ. eigenvalues --   -1.14682  -1.14669  -1.14237  -1.14231  -1.14213
  Beta  occ. eigenvalues --   -1.14194  -1.14177  -1.14140  -1.13893  -1.13876
  Beta  occ. eigenvalues --   -1.13823  -1.13765  -1.13743  -1.13734  -1.13480
  Beta  occ. eigenvalues --   -1.13424  -1.13424  -1.13339  -1.13335  -1.13261
  Beta  occ. eigenvalues --   -0.15517  -0.13300  -0.12159
  Beta virt. eigenvalues --   -0.07502  -0.06738  -0.04956  -0.04647  -0.03211
  Beta virt. eigenvalues --   -0.02676  -0.02359  -0.02046  -0.01977  -0.01190
  Beta virt. eigenvalues --   -0.00881  -0.00534  -0.00093   0.00256   0.00317

 Mulliken charges and spin densities:
               1          2
     1  Na   0.821389  -0.087028
     2  Na  -0.356457   0.469756
     3  Na  -0.466961   0.383285
     4  Na   0.039200   0.002503
     5  Na   0.033919   0.187004
     6  Na  -0.264852  -0.014944
     7  Na   0.193761   0.059424
 Sum of Mulliken charges =  -0.00000   1.00000

 Dipole moment (field-independent basis, Debye):
    X=             -1.5374    Y=              0.4701    Z=              0.2196  Tot=              1.6226
 Quadrupole moment (field-independent basis, Debye-Ang):
   XX=            -56.2726   YY=            -74.5924   ZZ=            -68.1875
   XY=             -1.5317   XZ=              1.4154   YZ=              0.2734

 Normal termination of Gaussian 16 at Sun Dec  3 17:02:37 2023.
