 Gaussian 16, Revision B.01,
 Gaussian 16:  ES64L-G16RevB.01 20-Dec-2017

 -------------------------
 #P B3LYP/6-311+g(d) force
 -------------------------

 -----
 DPGEN
 -----
 Symbolic Z-matrix:
 Charge =  0 Multiplicity = 2

                         Standard orientation:
 ---------------------------------------------------------------------
 Center     Atomic      Atomic             Coordinates (Angstroms)
 Number     Number       Type             X           Y           Z
 ---------------------------------------------------------------------
      1         11           0       -1.026877    0.901412    1.558821
      2         11           0        1.777261    1.490455    0.318910
      3         11           0        1.125212   -2.111062    1.264795
      4         11           0       -3.451451   -0.573908   -0.969092
      5         11           0       -1.333944   -3.094529   -0.544423
      6         11           0        4.335566   -0.108772   -1.177301
      7         11           0       -1.425766    3.496403   -0.451710
 ---------------------------------------------------------------------

 SCF Done:  E(UB3LYP) =  -1136.12122143     A.U. after   20 cycles

 The electronic state is 2-A.
 Alpha  occ. eigenvalues --  -38.44803 -38.44282 -38.44139 -38.43982 -38.43933
 Alpha  occ. eigenvalues --  -38.43913 -38.43634  -2.20579  -2.20173  -2.19939
 Alpha  occ. eigenvalues --   -2.19797  -2.19742  -2.19734  -2.19490  -1.14255
 Alpha  occ. eigenvalues --   -1.14232  -1.14223  -1.13898  -1.13823  -1.13773
 Alpha  occ. eigenvalues --   -1.13606  -1.13599  -1.13566  -1.13515  -1.13464
 Alpha  occ. eigenvalues --   -1.13434  -1.13401  -1.13387  -1.13385  -1.13376
 Alpha  occ. eigenvalues --   -1.13351  -1.13341  -1.13198  -1.13178  -1.13088
 Alpha  occ. eigenvalues --   -0.17156  -0.13224  -0.12838  -0.10730
 Alpha virt. eigenvalues --   -0.06516  -0.05479  -0.04437  -0.03819  -0.02910
 Alpha virt. eigenvalues --   -0.02003  -0.01675  -0.01447  -0.01190  -0.00713
 Alpha virt. eigenvalues --   -0.00338   0.00075   0.00471   0.00541   0.00611

  Beta  occ. eigenvalues --  -38.44807 -38.44248 -38.44083 -38.43983 -38.43876
  Beta  occ. eigenvalues --  -38.43849 -38.43632  -2.20586  -2.20114  -2.19835
  Beta  occ. eigenvalues --   -2.19803  -2.19674  -2.19576  -2.19492  -1.14260
  Beta  occ. eigenvalues --   -1.14237  -1.14225  -1.13857  -1.13779  -1.13724
  Beta  occ. eigenvalues --   -1.13542  -1.13532  -1.13503  -1.13490  -1.13467
  Beta  occ. eigenvalues --   -1.13421  -1.13349  -1.13343  -1.13304  -1.13277
  Beta  occ. eigenvalues --   -1.13269  -1.13249  -1.13187  -1.13163  -1.13080
  Beta  occ. eigenvalues --   -0.16662  -0.12813  -0.12274
  Beta virt. eigenvalues --   -0.07357  -0.06313  -0.05230  -0.04025  -0.03513
  Beta virt. eigenvalues --   -0.02610  -0.01634  -0.01409  -0.01106  -0.00925
  Beta virt. eigenvalues --   -0.00646  -0.00071   0.00224   0.00509   0.00642

 Mulliken charges and spin densities:
               1          2
     1  Na   0.886146   0.209823
     2  Na  -1.106153  -0.007249
     3  Na  -0.144918   0.155448
     4  Na  -0.301706   0.359123
     5  Na   0.123751  -0.059462
     6  Na   0.331026   0.395112
     7  Na   0.211853  -0.052794
 Sum of Mulliken charges =  -0.00000   1.00000

 Dipole moment (field-independent basis, Debye):
    X=             -0.6128    Y=              0.5422    Z=             -0.1916  Tot=              0.8403
 Quadrupole moment (field-independent basis, Debye-Ang):
   XX=            -69.8843   YY=            -59.4132   ZZ=            -69.1757
   XY=             -6.6583   XZ=             -0.3975   YZ=             -1.7500

 Normal termination of Gaussian 16 at Wed Nov 29 00:43:39 2023.
