 Gaussian 16, Revision B.01,
 Gaussian 16:  ES64L-G16RevB.01 20-Dec-2017

 -------------------------
 #P B3LYP/6-311+g(d) force
 -------------------------

 -----
 DPGEN
 -----
 Symbolic Z-matrix:
 Charge =  0 Multiplicity = 2

                         Standard orientation:
 ---------------------------------------------------------------------
 Center     Atomic      Atomic             Coordinates (Angstroms)
 Number     Number       Type             X           Y           Z
 ---------------------------------------------------------------------
      1         11           0       -1.844767    2.482805   -0.700350
      2         11           0        0.871882   -1.272394    1.730806
      3         11           0        0.743995    0.250623   -1.710750
      4         11           0       -2.001867   -2.501411   -0.729254
      5         11           0       -2.572957   -0.394723    0.903432
      6         11           0        3.613459   -0.919495   -0.522465
      7         11           0        1.190256    2.354594    1.028581
 ---------------------------------------------------------------------

 SCF Done:  E(UB3LYP) =  -1136.12541972     A.U. after   19 cycles

 The electronic state is 2-A.
 Alpha  occ. eigenvalues --  -38.44325 -38.44180 -38.44148 -38.44029 -38.43790
 Alpha  occ. eigenvalues --  -38.43655 -38.43335  -2.20125  -2.20024  -2.19996
 Alpha  occ. eigenvalues --   -2.19939  -2.19632  -2.19544  -2.19166  -1.14027
 Alpha  occ. eigenvalues --   -1.13803  -1.13782  -1.13760  -1.13672  -1.13665
 Alpha  occ. eigenvalues --   -1.13650  -1.13641  -1.13611  -1.13559  -1.13552
 Alpha  occ. eigenvalues --   -1.13444  -1.13317  -1.13283  -1.13240  -1.13218
 Alpha  occ. eigenvalues --   -1.13195  -1.13163  -1.12840  -1.12828  -1.12798
 Alpha  occ. eigenvalues --   -0.18073  -0.13300  -0.12126  -0.10841
 Alpha virt. eigenvalues --   -0.06041  -0.05402  -0.04367  -0.03587  -0.03039
 Alpha virt. eigenvalues --   -0.02535  -0.01818  -0.01067  -0.00683  -0.00052
 Alpha virt. eigenvalues --    0.00150   0.00296   0.00537   0.00660   0.00750

  Beta  occ. eigenvalues --  -38.44316 -38.44151 -38.44142 -38.44022 -38.43731
  Beta  occ. eigenvalues --  -38.43595 -38.43331  -2.20109  -2.20016  -2.19943
  Beta  occ. eigenvalues --   -2.19929  -2.19525  -2.19434  -2.19160  -1.14023
  Beta  occ. eigenvalues --   -1.13777  -1.13773  -1.13748  -1.13642  -1.13639
  Beta  occ. eigenvalues --   -1.13624  -1.13612  -1.13574  -1.13549  -1.13532
  Beta  occ. eigenvalues --   -1.13438  -1.13246  -1.13194  -1.13167  -1.13140
  Beta  occ. eigenvalues --   -1.13117  -1.13080  -1.12836  -1.12814  -1.12792
  Beta  occ. eigenvalues --   -0.17375  -0.13093  -0.11973
  Beta virt. eigenvalues --   -0.07040  -0.05916  -0.05176  -0.04180  -0.03021
  Beta virt. eigenvalues --   -0.02516  -0.01727  -0.01617  -0.00965  -0.00494
  Beta virt. eigenvalues --    0.00041   0.00208   0.00366   0.00648   0.00786

 Mulliken charges and spin densities:
               1          2
     1  Na   0.243713  -0.155939
     2  Na  -0.160313   0.324882
     3  Na  -0.189075   0.490718
     4  Na  -0.168200  -0.096881
     5  Na   0.336912   0.290348
     6  Na   0.168346  -0.034655
     7  Na  -0.231382   0.181527
 Sum of Mulliken charges =  -0.00000   1.00000

 Dipole moment (field-independent basis, Debye):
    X=              0.6037    Y=             -0.0699    Z=              0.0293  Tot=              0.6085
 Quadrupole moment (field-independent basis, Debye-Ang):
   XX=            -57.5013   YY=            -66.6851   ZZ=            -71.1000
   XY=             -1.0462   XZ=              1.1499   YZ=              2.5060

 Normal termination of Gaussian 16 at Tue Dec  5 15:38:43 2023.
