 Gaussian 16, Revision B.01,
 Gaussian 16:  ES64L-G16RevB.01 20-Dec-2017

 -------------------------
 #P B3LYP/6-311+g(d) force
 -------------------------

 -----
 DPGEN
 -----
 Symbolic Z-matrix:
 Charge =  0 Multiplicity = 2

                         Standard orientation:
 ---------------------------------------------------------------------
 Center     Atomic      Atomic             Coordinates (Angstroms)
 Number     Number       Type             X           Y           Z
 ---------------------------------------------------------------------
      1         11           0        2.598080   -1.564716   -0.091924
      2         11           0        2.280627    1.734825    0.163094
      3         11           0       -3.589664   -0.836292   -0.215212
      4         11           0       -1.517232    2.419833   -0.310625
      5         11           0       -0.305545   -2.282028    0.237150
      6         11           0        0.011738    0.381895    2.779070
      7         11           0        0.521996    0.146483   -2.561553
 ---------------------------------------------------------------------

 SCF Done:  E(UB3LYP) =  -1136.12392797     A.U. after   22 cycles

 The electronic state is 2-A.
 Alpha  occ. eigenvalues --  -38.45693 -38.45396 -38.44197 -38.43625 -38.43515
 Alpha  occ. eigenvalues --  -38.43440 -38.42648  -2.21485  -2.21210  -2.19944
 Alpha  occ. eigenvalues --   -2.19451  -2.19322  -2.19282  -2.18518  -1.15127
 Alpha  occ. eigenvalues --   -1.15110  -1.15104  -1.14865  -1.14841  -1.14828
 Alpha  occ. eigenvalues --   -1.13619  -1.13601  -1.13588  -1.13143  -1.13120
 Alpha  occ. eigenvalues --   -1.13097  -1.13041  -1.12969  -1.12964  -1.12956
 Alpha  occ. eigenvalues --   -1.12954  -1.12911  -1.12200  -1.12190  -1.12149
 Alpha  occ. eigenvalues --   -0.17912  -0.12506  -0.12205  -0.11579
 Alpha virt. eigenvalues --   -0.06103  -0.05147  -0.04433  -0.03549  -0.03384
 Alpha virt. eigenvalues --   -0.03316  -0.01486  -0.00793  -0.00754  -0.00081
 Alpha virt. eigenvalues --    0.00054   0.00174   0.00384   0.00497   0.00809

  Beta  occ. eigenvalues --  -38.45586 -38.45316 -38.44200 -38.43622 -38.43516
  Beta  occ. eigenvalues --  -38.43440 -38.42641  -2.21286  -2.21061  -2.19951
  Beta  occ. eigenvalues --   -2.19450  -2.19323  -2.19286  -2.18509  -1.14993
  Beta  occ. eigenvalues --   -1.14969  -1.14965  -1.14767  -1.14738  -1.14720
  Beta  occ. eigenvalues --   -1.13619  -1.13606  -1.13593  -1.13147  -1.13101
  Beta  occ. eigenvalues --   -1.13089  -1.13044  -1.12963  -1.12961  -1.12952
  Beta  occ. eigenvalues --   -1.12940  -1.12917  -1.12197  -1.12158  -1.12147
  Beta  occ. eigenvalues --   -0.17076  -0.12391  -0.11403
  Beta virt. eigenvalues --   -0.08243  -0.05810  -0.04912  -0.03862  -0.03258
  Beta virt. eigenvalues --   -0.02794  -0.02525  -0.01431  -0.00745  -0.00283
  Beta virt. eigenvalues --   -0.00131   0.00142   0.00276   0.00439   0.00713

 Mulliken charges and spin densities:
               1          2
     1  Na   0.459473   0.067813
     2  Na   0.156887  -0.011841
     3  Na   0.134746  -0.046797
     4  Na  -0.109937  -0.079464
     5  Na  -0.208534  -0.055198
     6  Na  -0.206458   0.562913
     7  Na  -0.226176   0.562573
 Sum of Mulliken charges =  -0.00000   1.00000

 Dipole moment (field-independent basis, Debye):
    X=              0.0067    Y=              0.3526    Z=             -0.0023  Tot=              0.3527
 Quadrupole moment (field-independent basis, Debye-Ang):
   XX=            -61.0150   YY=            -75.6133   ZZ=            -60.9730
   XY=             -0.2322   XZ=              0.4400   YZ=              1.1052

 Normal termination of Gaussian 16 at Sun Dec  3 17:59:10 2023.
