 Gaussian 16, Revision B.01,
 Gaussian 16:  ES64L-G16RevB.01 20-Dec-2017

 -------------------------
 #P B3LYP/6-311+g(d) force
 -------------------------

 -----
 DPGEN
 -----
 Symbolic Z-matrix:
 Charge =  0 Multiplicity = 2

                         Standard orientation:
 ---------------------------------------------------------------------
 Center     Atomic      Atomic             Coordinates (Angstroms)
 Number     Number       Type             X           Y           Z
 ---------------------------------------------------------------------
      1         11           0       -1.901713   -2.617169   -0.488773
      2         11           0       -1.513643   -0.825896    2.391646
      3         11           0        2.603478   -2.709237   -0.484482
      4         11           0        3.930885    0.206157   -0.024874
      5         11           0        1.947677    2.892298   -0.434904
      6         11           0       -1.420108    2.478664    0.629293
      7         11           0       -3.646577    0.575183   -1.587906
 ---------------------------------------------------------------------

 SCF Done:  E(UB3LYP) =  -1136.10925055     A.U. after   21 cycles

 The electronic state is 2-A.
 Alpha  occ. eigenvalues --  -38.45047 -38.44766 -38.44637 -38.44535 -38.44492
 Alpha  occ. eigenvalues --  -38.44271 -38.44212  -2.20797  -2.20518  -2.20438
 Alpha  occ. eigenvalues --   -2.20331  -2.20259  -2.20043  -2.20013  -1.14481
 Alpha  occ. eigenvalues --   -1.14470  -1.14439  -1.14196  -1.14190  -1.14159
 Alpha  occ. eigenvalues --   -1.14084  -1.14067  -1.14064  -1.13980  -1.13964
 Alpha  occ. eigenvalues --   -1.13944  -1.13934  -1.13931  -1.13908  -1.13722
 Alpha  occ. eigenvalues --   -1.13717  -1.13681  -1.13680  -1.13673  -1.13652
 Alpha  occ. eigenvalues --   -0.16232  -0.13752  -0.12237  -0.10941
 Alpha virt. eigenvalues --   -0.07315  -0.06405  -0.03742  -0.03531  -0.03172
 Alpha virt. eigenvalues --   -0.02767  -0.02015  -0.01920  -0.01575  -0.00822
 Alpha virt. eigenvalues --   -0.00388  -0.00083   0.00342   0.00417   0.00530

  Beta  occ. eigenvalues --  -38.45049 -38.44765 -38.44549 -38.44494 -38.44431
  Beta  occ. eigenvalues --  -38.44266 -38.44211  -2.20805  -2.20517  -2.20274
  Beta  occ. eigenvalues --   -2.20263  -2.20138  -2.20037  -2.20011  -1.14481
  Beta  occ. eigenvalues --   -1.14472  -1.14432  -1.14196  -1.14189  -1.14157
  Beta  occ. eigenvalues --   -1.13972  -1.13959  -1.13950  -1.13937  -1.13934
  Beta  occ. eigenvalues --   -1.13910  -1.13848  -1.13831  -1.13817  -1.13716
  Beta  occ. eigenvalues --   -1.13695  -1.13679  -1.13673  -1.13672  -1.13651
  Beta  occ. eigenvalues --   -0.15670  -0.13393  -0.12153
  Beta virt. eigenvalues --   -0.07252  -0.07012  -0.06180  -0.03481  -0.03059
  Beta virt. eigenvalues --   -0.02847  -0.02159  -0.01896  -0.01676  -0.01332
  Beta virt. eigenvalues --   -0.00823  -0.00066   0.00117   0.00492   0.00535

 Mulliken charges and spin densities:
               1          2
     1  Na  -0.146209   0.107425
     2  Na   0.183820   0.329972
     3  Na   0.095626  -0.027521
     4  Na  -0.181630   0.021869
     5  Na   0.221158  -0.078562
     6  Na  -0.281990   0.229925
     7  Na   0.109226   0.416892
 Sum of Mulliken charges =  -0.00000   1.00000

 Dipole moment (field-independent basis, Debye):
    X=              0.1672    Y=             -0.4215    Z=              0.0511  Tot=              0.4563
 Quadrupole moment (field-independent basis, Debye-Ang):
   XX=            -66.0009   YY=            -64.8281   ZZ=            -71.7539
   XY=              1.5562   XZ=             -0.5092   YZ=              1.3570

 Normal termination of Gaussian 16 at Sun Dec  3 14:40:47 2023.
