 Gaussian 16, Revision B.01,
 Gaussian 16:  ES64L-G16RevB.01 20-Dec-2017

 -------------------------
 #P B3LYP/6-311+g(d) force
 -------------------------

 -----
 DPGEN
 -----
 Symbolic Z-matrix:
 Charge =  0 Multiplicity = 2

                         Standard orientation:
 ---------------------------------------------------------------------
 Center     Atomic      Atomic             Coordinates (Angstroms)
 Number     Number       Type             X           Y           Z
 ---------------------------------------------------------------------
      1         11           0        4.302420    0.108634    0.138918
      2         11           0       -1.314628    3.740929    0.117972
      3         11           0        2.257993   -3.105712   -0.201221
      4         11           0       -1.793127   -2.569020   -1.192850
      5         11           0       -3.569936    1.064099   -0.613324
      6         11           0        2.432895    2.615081   -0.055428
      7         11           0       -2.315617   -1.854012    1.805932
 ---------------------------------------------------------------------

 SCF Done:  E(UB3LYP) =  -1136.10524322     A.U. after   22 cycles

 The electronic state is 2-A.
 Alpha  occ. eigenvalues --  -38.45460 -38.45456 -38.45133 -38.44012 -38.43893
 Alpha  occ. eigenvalues --  -38.43830 -38.43786  -2.21264  -2.21238  -2.20888
 Alpha  occ. eigenvalues --   -2.19803  -2.19693  -2.19606  -2.19543  -1.15009
 Alpha  occ. eigenvalues --   -1.14918  -1.14902  -1.14893  -1.14874  -1.14822
 Alpha  occ. eigenvalues --   -1.14584  -1.14553  -1.14498  -1.13532  -1.13474
 Alpha  occ. eigenvalues --   -1.13445  -1.13353  -1.13340  -1.13295  -1.13262
 Alpha  occ. eigenvalues --   -1.13240  -1.13222  -1.13221  -1.13205  -1.13180
 Alpha  occ. eigenvalues --   -0.15848  -0.13715  -0.12832  -0.10208
 Alpha virt. eigenvalues --   -0.07007  -0.06609  -0.03819  -0.03400  -0.02925
 Alpha virt. eigenvalues --   -0.02702  -0.02457  -0.01749  -0.01473  -0.01148
 Alpha virt. eigenvalues --   -0.00169   0.00090   0.00158   0.00227   0.00424

  Beta  occ. eigenvalues --  -38.45460 -38.45417 -38.45113 -38.44009 -38.43848
  Beta  occ. eigenvalues --  -38.43776 -38.43734  -2.21250  -2.21183  -2.20853
  Beta  occ. eigenvalues --   -2.19803  -2.19612  -2.19526  -2.19427  -1.14987
  Beta  occ. eigenvalues --   -1.14918  -1.14874  -1.14849  -1.14841  -1.14789
  Beta  occ. eigenvalues --   -1.14563  -1.14533  -1.14454  -1.13510  -1.13479
  Beta  occ. eigenvalues --   -1.13426  -1.13299  -1.13288  -1.13240  -1.13211
  Beta  occ. eigenvalues --   -1.13196  -1.13157  -1.13139  -1.13120  -1.13104
  Beta  occ. eigenvalues --   -0.15456  -0.13130  -0.12075
  Beta virt. eigenvalues --   -0.07151  -0.06970  -0.06310  -0.03694  -0.02925
  Beta virt. eigenvalues --   -0.02501  -0.02391  -0.02181  -0.01585  -0.01306
  Beta virt. eigenvalues --   -0.01043   0.00117   0.00216   0.00229   0.00322

 Mulliken charges and spin densities:
               1          2
     1  Na   0.462413  -0.061322
     2  Na   0.162572   0.073355
     3  Na  -0.380055   0.527545
     4  Na   0.230405   0.011294
     5  Na  -0.218453   0.089126
     6  Na  -0.368273   0.189874
     7  Na   0.111390   0.170129
 Sum of Mulliken charges =  -0.00000   1.00000

 Dipole moment (field-independent basis, Debye):
    X=             -2.0165    Y=             -1.0195    Z=              0.3618  Tot=              2.2883
 Quadrupole moment (field-independent basis, Debye-Ang):
   XX=            -67.1252   YY=            -73.9882   ZZ=            -64.3886
   XY=              4.1661   XZ=              2.0263   YZ=              1.1034

 Normal termination of Gaussian 16 at Sun Dec  3 15:32:27 2023.
