 Gaussian 16, Revision B.01,
 Gaussian 16:  ES64L-G16RevB.01 20-Dec-2017

 -------------------------
 #P B3LYP/6-311+g(d) force
 -------------------------

 -----
 DPGEN
 -----
 Symbolic Z-matrix:
 Charge =  0 Multiplicity = 2

                         Standard orientation:
 ---------------------------------------------------------------------
 Center     Atomic      Atomic             Coordinates (Angstroms)
 Number     Number       Type             X           Y           Z
 ---------------------------------------------------------------------
      1         11           0        2.000211    2.106538   -0.506703
      2         11           0       -1.372583    2.816954    0.200308
      3         11           0       -0.404014   -0.594495   -1.595452
      4         11           0       -0.347523   -3.000941    0.307911
      5         11           0        3.121884   -0.962751   -0.226138
      6         11           0       -3.207671   -0.424919   -0.314625
      7         11           0        0.209695    0.059614    2.134700
 ---------------------------------------------------------------------

 SCF Done:  E(UB3LYP) =  -1136.13434146     A.U. after   19 cycles

 The electronic state is 2-A.
 Alpha  occ. eigenvalues --  -38.44262 -38.44014 -38.43832 -38.43775 -38.43530
 Alpha  occ. eigenvalues --  -38.43512 -38.43437  -2.20085  -2.19823  -2.19674
 Alpha  occ. eigenvalues --   -2.19631  -2.19393  -2.19354  -2.19332  -1.13807
 Alpha  occ. eigenvalues --   -1.13734  -1.13702  -1.13501  -1.13490  -1.13459
 Alpha  occ. eigenvalues --   -1.13414  -1.13342  -1.13290  -1.13285  -1.13261
 Alpha  occ. eigenvalues --   -1.13244  -1.13062  -1.13040  -1.13022  -1.13018
 Alpha  occ. eigenvalues --   -1.13015  -1.13005  -1.13002  -1.12979  -1.12960
 Alpha  occ. eigenvalues --   -0.18237  -0.12951  -0.12410  -0.10740
 Alpha virt. eigenvalues --   -0.05819  -0.05059  -0.04918  -0.03203  -0.02984
 Alpha virt. eigenvalues --   -0.02587  -0.01611  -0.01176  -0.00561  -0.00389
 Alpha virt. eigenvalues --   -0.00035   0.00340   0.00786   0.00820   0.00887

  Beta  occ. eigenvalues --  -38.44253 -38.44009 -38.43823 -38.43675 -38.43528
  Beta  occ. eigenvalues --  -38.43501 -38.43389  -2.20072  -2.19816  -2.19661
  Beta  occ. eigenvalues --   -2.19447  -2.19337  -2.19331  -2.19305  -1.13788
  Beta  occ. eigenvalues --   -1.13716  -1.13696  -1.13497  -1.13472  -1.13452
  Beta  occ. eigenvalues --   -1.13401  -1.13308  -1.13278  -1.13170  -1.13136
  Beta  occ. eigenvalues --   -1.13110  -1.13028  -1.13006  -1.13000  -1.12995
  Beta  occ. eigenvalues --   -1.12988  -1.12978  -1.12960  -1.12952  -1.12946
  Beta  occ. eigenvalues --   -0.17546  -0.12678  -0.12219
  Beta virt. eigenvalues --   -0.06876  -0.05773  -0.05029  -0.04793  -0.02470
  Beta virt. eigenvalues --   -0.02262  -0.01569  -0.01521  -0.01091  -0.00594
  Beta virt. eigenvalues --   -0.00404   0.00116   0.00388   0.00793   0.00876

 Mulliken charges and spin densities:
               1          2
     1  Na  -0.031162   0.044098
     2  Na  -0.014858  -0.006646
     3  Na  -0.019302   0.348832
     4  Na   0.104613  -0.042280
     5  Na   0.124652  -0.023860
     6  Na   0.205659  -0.048001
     7  Na  -0.369603   0.727857
 Sum of Mulliken charges =  -0.00000   1.00000

 Dipole moment (field-independent basis, Debye):
    X=             -0.1728    Y=             -0.3131    Z=              0.1477  Tot=              0.3870
 Quadrupole moment (field-independent basis, Debye-Ang):
   XX=            -57.8261   YY=            -62.0859   ZZ=            -74.2619
   XY=             -0.9960   XZ=             -1.0416   YZ=             -1.2366

 Normal termination of Gaussian 16 at Thu Dec  7 20:38:28 2023.
