 Gaussian 16, Revision B.01,
 Gaussian 16:  ES64L-G16RevB.01 20-Dec-2017

 -------------------------
 #P B3LYP/6-311+g(d) force
 -------------------------

 -----
 DPGEN
 -----
 Symbolic Z-matrix:
 Charge =  0 Multiplicity = 2

                         Standard orientation:
 ---------------------------------------------------------------------
 Center     Atomic      Atomic             Coordinates (Angstroms)
 Number     Number       Type             X           Y           Z
 ---------------------------------------------------------------------
      1         11           0        1.149548   -2.536191   -0.962004
      2         11           0       -1.519083    2.955903   -0.720946
      3         11           0        1.495642    2.553093    0.965251
      4         11           0        3.222997    0.175153   -1.587336
      5         11           0       -1.811537   -2.734142    0.360859
      6         11           0        1.479009   -0.653692    2.210073
      7         11           0       -4.016576    0.239875   -0.265897
 ---------------------------------------------------------------------

 SCF Done:  E(UB3LYP) =  -1136.11716718     A.U. after   20 cycles

 The electronic state is 2-A.
 Alpha  occ. eigenvalues --  -38.44752 -38.44647 -38.44596 -38.44460 -38.44185
 Alpha  occ. eigenvalues --  -38.44184 -38.44011  -2.20553  -2.20445  -2.20332
 Alpha  occ. eigenvalues --   -2.20208  -2.20008  -2.19968  -2.19811  -1.14221
 Alpha  occ. eigenvalues --   -1.14191  -1.14174  -1.14104  -1.14087  -1.14059
 Alpha  occ. eigenvalues --   -1.14014  -1.13991  -1.13974  -1.13889  -1.13878
 Alpha  occ. eigenvalues --   -1.13839  -1.13722  -1.13678  -1.13666  -1.13633
 Alpha  occ. eigenvalues --   -1.13619  -1.13575  -1.13488  -1.13469  -1.13452
 Alpha  occ. eigenvalues --   -0.16689  -0.12969  -0.12810  -0.11034
 Alpha virt. eigenvalues --   -0.06859  -0.06184  -0.04079  -0.03715  -0.03131
 Alpha virt. eigenvalues --   -0.02599  -0.01707  -0.01541  -0.01099  -0.00824
 Alpha virt. eigenvalues --   -0.00362   0.00029   0.00102   0.00433   0.00642

  Beta  occ. eigenvalues --  -38.44677 -38.44597 -38.44564 -38.44455 -38.44180
  Beta  occ. eigenvalues --  -38.44167 -38.43996  -2.20415  -2.20335  -2.20294
  Beta  occ. eigenvalues --   -2.20200  -2.19981  -2.19958  -2.19787  -1.14124
  Beta  occ. eigenvalues --   -1.14100  -1.14070  -1.14016  -1.13998  -1.13994
  Beta  occ. eigenvalues --   -1.13984  -1.13975  -1.13953  -1.13882  -1.13873
  Beta  occ. eigenvalues --   -1.13834  -1.13707  -1.13655  -1.13652  -1.13619
  Beta  occ. eigenvalues --   -1.13607  -1.13553  -1.13467  -1.13447  -1.13432
  Beta  occ. eigenvalues --   -0.16069  -0.12739  -0.12574
  Beta virt. eigenvalues --   -0.07253  -0.06740  -0.05966  -0.03590  -0.03421
  Beta virt. eigenvalues --   -0.02688  -0.01995  -0.01501  -0.01327  -0.01027
  Beta virt. eigenvalues --   -0.00792  -0.00090   0.00245   0.00253   0.00521

 Mulliken charges and spin densities:
               1          2
     1  Na  -0.014597   0.139469
     2  Na  -0.066794   0.012687
     3  Na  -0.177585   0.191464
     4  Na   0.075817   0.343377
     5  Na  -0.107068   0.020693
     6  Na   0.155807   0.329488
     7  Na   0.134420  -0.037178
 Sum of Mulliken charges =  -0.00000   1.00000

 Dipole moment (field-independent basis, Debye):
    X=              0.0681    Y=             -0.0443    Z=              0.1048  Tot=              0.1326
 Quadrupole moment (field-independent basis, Debye-Ang):
   XX=            -63.0425   YY=            -65.9244   ZZ=            -71.4180
   XY=              3.0007   XZ=             -0.0130   YZ=             -2.1059

 Normal termination of Gaussian 16 at Sun Dec  3 22:23:57 2023.
