 Gaussian 16, Revision B.01,
 Gaussian 16:  ES64L-G16RevB.01 20-Dec-2017

 -------------------------
 #P B3LYP/6-311+g(d) force
 -------------------------

 -----
 DPGEN
 -----
 Symbolic Z-matrix:
 Charge =  0 Multiplicity = 2

                         Standard orientation:
 ---------------------------------------------------------------------
 Center     Atomic      Atomic             Coordinates (Angstroms)
 Number     Number       Type             X           Y           Z
 ---------------------------------------------------------------------
      1         11           0        2.312309    0.945530   -1.750781
      2         11           0        0.405887   -2.445688   -1.190810
      3         11           0        2.396982   -1.140917    1.665770
      4         11           0        0.441320    2.672077    1.249678
      5         11           0       -0.805448    0.880173   -1.484317
      6         11           0       -1.012980   -0.856953    1.628577
      7         11           0       -3.738068   -0.054223   -0.118117
 ---------------------------------------------------------------------

 SCF Done:  E(UB3LYP) =  -1136.12821338     A.U. after   21 cycles

 The electronic state is 2-A.
 Alpha  occ. eigenvalues --  -38.44313 -38.44226 -38.43968 -38.43907 -38.43889
 Alpha  occ. eigenvalues --  -38.43332 -38.42993  -2.20107  -2.20043  -2.19770
 Alpha  occ. eigenvalues --   -2.19733  -2.19698  -2.19228  -2.18938  -1.13775
 Alpha  occ. eigenvalues --   -1.13752  -1.13728  -1.13722  -1.13685  -1.13663
 Alpha  occ. eigenvalues --   -1.13454  -1.13452  -1.13415  -1.13394  -1.13376
 Alpha  occ. eigenvalues --   -1.13371  -1.13351  -1.13346  -1.13341  -1.12924
 Alpha  occ. eigenvalues --   -1.12895  -1.12836  -1.12630  -1.12606  -1.12552
 Alpha  occ. eigenvalues --   -0.18147  -0.12577  -0.12057  -0.11572
 Alpha virt. eigenvalues --   -0.05923  -0.04701  -0.04528  -0.03296  -0.03213
 Alpha virt. eigenvalues --   -0.03059  -0.01687  -0.00940  -0.00796   0.00136
 Alpha virt. eigenvalues --    0.00256   0.00309   0.00388   0.00690   0.00886

  Beta  occ. eigenvalues --  -38.44260 -38.44188 -38.43941 -38.43892 -38.43883
  Beta  occ. eigenvalues --  -38.43301 -38.42963  -2.20009  -2.19975  -2.19721
  Beta  occ. eigenvalues --   -2.19703  -2.19693  -2.19175  -2.18887  -1.13705
  Beta  occ. eigenvalues --   -1.13680  -1.13679  -1.13659  -1.13629  -1.13617
  Beta  occ. eigenvalues --   -1.13414  -1.13407  -1.13386  -1.13376  -1.13359
  Beta  occ. eigenvalues --   -1.13355  -1.13346  -1.13343  -1.13313  -1.12893
  Beta  occ. eigenvalues --   -1.12836  -1.12798  -1.12601  -1.12537  -1.12520
  Beta  occ. eigenvalues --   -0.17322  -0.12428  -0.11401
  Beta virt. eigenvalues --   -0.08069  -0.05709  -0.04335  -0.04139  -0.02987
  Beta virt. eigenvalues --   -0.02832  -0.02179  -0.01578  -0.00756  -0.00502
  Beta virt. eigenvalues --    0.00223   0.00332   0.00344   0.00409   0.00790

 Mulliken charges and spin densities:
               1          2
     1  Na   0.305256   0.029763
     2  Na  -0.377999   0.351414
     3  Na   0.116851   0.045538
     4  Na  -0.424240   0.403278
     5  Na   0.119954  -0.015614
     6  Na   0.061048   0.164501
     7  Na   0.199130   0.021120
 Sum of Mulliken charges =  -0.00000   1.00000

 Dipole moment (field-independent basis, Debye):
    X=              0.1839    Y=             -0.0512    Z=              0.0796  Tot=              0.2068
 Quadrupole moment (field-independent basis, Debye-Ang):
   XX=            -57.5137   YY=            -71.4635   ZZ=            -65.2779
   XY=              0.4216   XZ=              0.6326   YZ=              5.9242

 Normal termination of Gaussian 16 at Sun Dec  3 18:15:06 2023.
