 Gaussian 16, Revision B.01,
 Gaussian 16:  ES64L-G16RevB.01 20-Dec-2017

 -------------------------
 #P B3LYP/6-311+g(d) force
 -------------------------

 -----
 DPGEN
 -----
 Symbolic Z-matrix:
 Charge =  0 Multiplicity = 2

                         Standard orientation:
 ---------------------------------------------------------------------
 Center     Atomic      Atomic             Coordinates (Angstroms)
 Number     Number       Type             X           Y           Z
 ---------------------------------------------------------------------
      1         11           0        1.502763    2.354914    0.266697
      2         11           0       -2.160987    1.947022    0.099033
      3         11           0       -0.274234    0.340251   -1.624891
      4         11           0        0.707513   -2.514707   -0.359572
      5         11           0       -3.114593   -1.108055   -0.272010
      6         11           0       -0.175288   -0.724386    2.132944
      7         11           0        3.514827   -0.295038   -0.242201
 ---------------------------------------------------------------------

 SCF Done:  E(UB3LYP) =  -1136.13043587     A.U. after   19 cycles

 The electronic state is 2-A.
 Alpha  occ. eigenvalues --  -38.44877 -38.44560 -38.43642 -38.43562 -38.43523
 Alpha  occ. eigenvalues --  -38.43106 -38.43023  -2.20664  -2.20392  -2.19518
 Alpha  occ. eigenvalues --   -2.19512  -2.19457  -2.18956  -2.18896  -1.14337
 Alpha  occ. eigenvalues --   -1.14323  -1.14302  -1.14073  -1.14059  -1.14020
 Alpha  occ. eigenvalues --   -1.13311  -1.13199  -1.13179  -1.13148  -1.13141
 Alpha  occ. eigenvalues --   -1.13126  -1.13099  -1.13077  -1.13058  -1.12642
 Alpha  occ. eigenvalues --   -1.12617  -1.12591  -1.12586  -1.12574  -1.12499
 Alpha  occ. eigenvalues --   -0.18606  -0.13432  -0.11984  -0.10780
 Alpha virt. eigenvalues --   -0.06490  -0.05118  -0.03975  -0.03349  -0.02946
 Alpha virt. eigenvalues --   -0.02450  -0.02154  -0.01096  -0.00309  -0.00110
 Alpha virt. eigenvalues --   -0.00084   0.00290   0.00727   0.00766   0.00876

  Beta  occ. eigenvalues --  -38.44876 -38.44554 -38.43556 -38.43545 -38.43468
  Beta  occ. eigenvalues --  -38.43100 -38.43012  -2.20664  -2.20383  -2.19453
  Beta  occ. eigenvalues --   -2.19411  -2.19336  -2.18947  -2.18882  -1.14331
  Beta  occ. eigenvalues --   -1.14320  -1.14303  -1.14071  -1.14035  -1.14012
  Beta  occ. eigenvalues --   -1.13270  -1.13126  -1.13094  -1.13071  -1.13068
  Beta  occ. eigenvalues --   -1.13052  -1.13018  -1.13010  -1.13002  -1.12635
  Beta  occ. eigenvalues --   -1.12595  -1.12583  -1.12581  -1.12529  -1.12492
  Beta  occ. eigenvalues --   -0.17884  -0.13231  -0.11752
  Beta virt. eigenvalues --   -0.06860  -0.06412  -0.05111  -0.03909  -0.02624
  Beta virt. eigenvalues --   -0.02164  -0.02039  -0.01437  -0.01051  -0.00330
  Beta virt. eigenvalues --   -0.00136   0.00092   0.00326   0.00801   0.00860

 Mulliken charges and spin densities:
               1          2
     1  Na   0.079855   0.036749
     2  Na   0.248862   0.108622
     3  Na  -0.304134   0.347992
     4  Na   0.244427  -0.079008
     5  Na   0.359811  -0.039168
     6  Na  -0.639737   0.663578
     7  Na   0.010916  -0.038765
 Sum of Mulliken charges =  -0.00000   1.00000

 Dipole moment (field-independent basis, Debye):
    X=              0.0137    Y=             -0.2404    Z=              0.1099  Tot=              0.2647
 Quadrupole moment (field-independent basis, Debye-Ang):
   XX=            -50.0432   YY=            -69.4075   ZZ=            -73.6862
   XY=              0.4226   XZ=             -0.3147   YZ=              2.1783

 Normal termination of Gaussian 16 at Tue Dec  5 23:19:09 2023.
