 Gaussian 16, Revision B.01,
 Gaussian 16:  ES64L-G16RevB.01 20-Dec-2017

 -------------------------
 #P B3LYP/6-311+g(d) force
 -------------------------

 -----
 DPGEN
 -----
 Symbolic Z-matrix:
 Charge =  0 Multiplicity = 2

                         Standard orientation:
 ---------------------------------------------------------------------
 Center     Atomic      Atomic             Coordinates (Angstroms)
 Number     Number       Type             X           Y           Z
 ---------------------------------------------------------------------
      1         11           0       -2.294501   -1.247984    1.803085
      2         11           0       -5.063606   -1.739947   -0.890929
      3         11           0       -3.549684    1.188919   -0.467444
      4         11           0       -0.550296    2.930125    0.025549
      5         11           0        1.016072    0.118685    0.533266
      6         11           0        3.980814   -0.852055   -1.581529
      7         11           0        6.461200   -0.397744    0.578002
 ---------------------------------------------------------------------

 SCF Done:  E(UB3LYP) =  -1136.11293369     A.U. after   21 cycles

 The electronic state is 2-A.
 Alpha  occ. eigenvalues --  -38.45068 -38.44716 -38.44706 -38.43982 -38.43827
 Alpha  occ. eigenvalues --  -38.43737 -38.43371  -2.20821  -2.20511  -2.20478
 Alpha  occ. eigenvalues --   -2.19763  -2.19674  -2.19545  -2.19199  -1.14486
 Alpha  occ. eigenvalues --   -1.14484  -1.14460  -1.14191  -1.14168  -1.14149
 Alpha  occ. eigenvalues --   -1.14139  -1.14109  -1.14101  -1.13448  -1.13431
 Alpha  occ. eigenvalues --   -1.13397  -1.13364  -1.13338  -1.13262  -1.13234
 Alpha  occ. eigenvalues --   -1.13218  -1.13173  -1.12854  -1.12850  -1.12829
 Alpha  occ. eigenvalues --   -0.16176  -0.13876  -0.11853  -0.10686
 Alpha virt. eigenvalues --   -0.07069  -0.05394  -0.04473  -0.03430  -0.02992
 Alpha virt. eigenvalues --   -0.02538  -0.02146  -0.01518  -0.01103  -0.00962
 Alpha virt. eigenvalues --   -0.00661   0.00028   0.00245   0.00431   0.00510

  Beta  occ. eigenvalues --  -38.45060 -38.44709 -38.44642 -38.43980 -38.43780
  Beta  occ. eigenvalues --  -38.43718 -38.43332  -2.20807  -2.20483  -2.20374
  Beta  occ. eigenvalues --   -2.19760  -2.19588  -2.19511  -2.19128  -1.14477
  Beta  occ. eigenvalues --   -1.14474  -1.14451  -1.14151  -1.14142  -1.14110
  Beta  occ. eigenvalues --   -1.14095  -1.14078  -1.13996  -1.13439  -1.13427
  Beta  occ. eigenvalues --   -1.13393  -1.13308  -1.13282  -1.13212  -1.13190
  Beta  occ. eigenvalues --   -1.13187  -1.13146  -1.12808  -1.12794  -1.12781
  Beta  occ. eigenvalues --   -0.15486  -0.13770  -0.11675
  Beta virt. eigenvalues --   -0.07126  -0.06550  -0.05276  -0.03971  -0.03228
  Beta virt. eigenvalues --   -0.02748  -0.02188  -0.01584  -0.01499  -0.00919
  Beta virt. eigenvalues --   -0.00799  -0.00314   0.00209   0.00356   0.00534

 Mulliken charges and spin densities:
               1          2
     1  Na   0.260979   0.333334
     2  Na   0.463024  -0.023690
     3  Na  -0.523697   0.300299
     4  Na   0.625892   0.171652
     5  Na  -1.043332   0.212106
     6  Na   0.043964  -0.023331
     7  Na   0.173170   0.029630
 Sum of Mulliken charges =  -0.00000   1.00000

 Dipole moment (field-independent basis, Debye):
    X=              1.2023    Y=             -0.6645    Z=              0.0253  Tot=              1.3740
 Quadrupole moment (field-independent basis, Debye-Ang):
   XX=            -56.4924   YY=            -69.9111   ZZ=            -65.4944
   XY=              5.5039   XZ=              5.2656   YZ=              3.2701

 Normal termination of Gaussian 16 at Wed Nov 29 04:06:35 2023.
