 Gaussian 16, Revision B.01,
 Gaussian 16:  ES64L-G16RevB.01 20-Dec-2017

 -------------------------
 #P B3LYP/6-311+g(d) force
 -------------------------

 -----
 DPGEN
 -----
 Symbolic Z-matrix:
 Charge =  0 Multiplicity = 2

                         Standard orientation:
 ---------------------------------------------------------------------
 Center     Atomic      Atomic             Coordinates (Angstroms)
 Number     Number       Type             X           Y           Z
 ---------------------------------------------------------------------
      1         11           0        1.264066   -2.610636   -0.190266
      2         11           0       -2.054648   -2.356400   -0.133831
      3         11           0       -0.218510    0.528829   -1.539717
      4         11           0       -3.471468    1.316483   -0.002972
      5         11           0        0.879882    3.086271    0.081078
      6         11           0        0.243065   -0.099383    2.070376
      7         11           0        3.357614    0.134836   -0.284667
 ---------------------------------------------------------------------

 SCF Done:  E(UB3LYP) =  -1136.13073459     A.U. after   20 cycles

 The electronic state is 2-A.
 Alpha  occ. eigenvalues --  -38.44909 -38.44492 -38.44095 -38.43943 -38.43391
 Alpha  occ. eigenvalues --  -38.43383 -38.43164  -2.20644  -2.20285  -2.19895
 Alpha  occ. eigenvalues --   -2.19751  -2.19284  -2.19252  -2.19025  -1.14322
 Alpha  occ. eigenvalues --   -1.14296  -1.14286  -1.13956  -1.13947  -1.13919
 Alpha  occ. eigenvalues --   -1.13596  -1.13554  -1.13519  -1.13433  -1.13417
 Alpha  occ. eigenvalues --   -1.13386  -1.12987  -1.12939  -1.12915  -1.12893
 Alpha  occ. eigenvalues --   -1.12880  -1.12864  -1.12695  -1.12687  -1.12672
 Alpha  occ. eigenvalues --   -0.17970  -0.12758  -0.12371  -0.10235
 Alpha virt. eigenvalues --   -0.06520  -0.05355  -0.04768  -0.02921  -0.02792
 Alpha virt. eigenvalues --   -0.02331  -0.02061  -0.01357  -0.00939  -0.00505
 Alpha virt. eigenvalues --   -0.00051   0.00277   0.00659   0.00728   0.00797

  Beta  occ. eigenvalues --  -38.44914 -38.44482 -38.44091 -38.43940 -38.43338
  Beta  occ. eigenvalues --  -38.43287 -38.43156  -2.20654  -2.20269  -2.19890
  Beta  occ. eigenvalues --   -2.19748  -2.19202  -2.19061  -2.19015  -1.14320
  Beta  occ. eigenvalues --   -1.14305  -1.14294  -1.13940  -1.13925  -1.13911
  Beta  occ. eigenvalues --   -1.13590  -1.13533  -1.13520  -1.13429  -1.13401
  Beta  occ. eigenvalues --   -1.13387  -1.12923  -1.12880  -1.12831  -1.12790
  Beta  occ. eigenvalues --   -1.12749  -1.12730  -1.12687  -1.12670  -1.12647
  Beta  occ. eigenvalues --   -0.17268  -0.12576  -0.12176
  Beta virt. eigenvalues --   -0.06519  -0.06331  -0.05282  -0.04730  -0.02254
  Beta virt. eigenvalues --   -0.02093  -0.01985  -0.01299  -0.01219  -0.00979
  Beta virt. eigenvalues --   -0.00536   0.00120   0.00332   0.00678   0.00790

 Mulliken charges and spin densities:
               1          2
     1  Na   0.039444   0.030984
     2  Na   0.063545  -0.041197
     3  Na  -0.038482   0.413526
     4  Na   0.047354  -0.103844
     5  Na   0.057064  -0.107250
     6  Na  -0.341826   0.764055
     7  Na   0.172901   0.043726
 Sum of Mulliken charges =  -0.00000   1.00000

 Dipole moment (field-independent basis, Debye):
    X=             -0.2482    Y=              0.4927    Z=              0.0689  Tot=              0.5560
 Quadrupole moment (field-independent basis, Debye-Ang):
   XX=            -52.9815   YY=            -61.6233   ZZ=            -77.3144
   XY=              0.1460   XZ=             -1.1642   YZ=              1.3429

 Normal termination of Gaussian 16 at Thu Dec  7 08:43:25 2023.
