 Gaussian 16, Revision B.01,
 Gaussian 16:  ES64L-G16RevB.01 20-Dec-2017

 -------------------------
 #P B3LYP/6-311+g(d) force
 -------------------------

 -----
 DPGEN
 -----
 Symbolic Z-matrix:
 Charge =  0 Multiplicity = 2

                         Standard orientation:
 ---------------------------------------------------------------------
 Center     Atomic      Atomic             Coordinates (Angstroms)
 Number     Number       Type             X           Y           Z
 ---------------------------------------------------------------------
      1         11           0        0.551919    1.556732    0.558455
      2         11           0       -1.354387   -1.059318    2.043685
      3         11           0       -1.007544   -2.845957   -0.548239
      4         11           0        2.040274   -1.646539   -0.837533
      5         11           0        4.199109    0.827738    0.128003
      6         11           0       -2.696234   -0.219836   -0.777352
      7         11           0       -1.733137    3.387180   -0.567018
 ---------------------------------------------------------------------

 SCF Done:  E(UB3LYP) =  -1136.12274886     A.U. after   21 cycles

 The electronic state is 2-A.
 Alpha  occ. eigenvalues --  -38.44828 -38.44807 -38.44139 -38.43721 -38.43583
 Alpha  occ. eigenvalues --  -38.43561 -38.43516  -2.20673  -2.20596  -2.19961
 Alpha  occ. eigenvalues --   -2.19639  -2.19480  -2.19397  -2.19378  -1.14366
 Alpha  occ. eigenvalues --   -1.14361  -1.14285  -1.14264  -1.14262  -1.14231
 Alpha  occ. eigenvalues --   -1.13644  -1.13635  -1.13584  -1.13305  -1.13281
 Alpha  occ. eigenvalues --   -1.13273  -1.13147  -1.13145  -1.13129  -1.13091
 Alpha  occ. eigenvalues --   -1.13077  -1.13053  -1.13041  -1.13029  -1.12940
 Alpha  occ. eigenvalues --   -0.17958  -0.13339  -0.12822  -0.10374
 Alpha virt. eigenvalues --   -0.06902  -0.05236  -0.04968  -0.02939  -0.02909
 Alpha virt. eigenvalues --   -0.02359  -0.01975  -0.01312  -0.01029  -0.00457
 Alpha virt. eigenvalues --   -0.00209   0.00229   0.00293   0.00573   0.00816

  Beta  occ. eigenvalues --  -38.44834 -38.44789 -38.44114 -38.43627 -38.43569
  Beta  occ. eigenvalues --  -38.43538 -38.43504  -2.20643  -2.20606  -2.19917
  Beta  occ. eigenvalues --   -2.19463  -2.19441  -2.19373  -2.19356  -1.14346
  Beta  occ. eigenvalues --   -1.14315  -1.14271  -1.14268  -1.14267  -1.14237
  Beta  occ. eigenvalues --   -1.13616  -1.13605  -1.13540  -1.13209  -1.13163
  Beta  occ. eigenvalues --   -1.13152  -1.13127  -1.13120  -1.13098  -1.13064
  Beta  occ. eigenvalues --   -1.13031  -1.13023  -1.13010  -1.13009  -1.12929
  Beta  occ. eigenvalues --   -0.17326  -0.13271  -0.12492
  Beta virt. eigenvalues --   -0.06786  -0.06547  -0.04960  -0.04684  -0.02597
  Beta virt. eigenvalues --   -0.02415  -0.02238  -0.01335  -0.01140  -0.00829
  Beta virt. eigenvalues --   -0.00311   0.00095   0.00344   0.00455   0.00647

 Mulliken charges and spin densities:
               1          2
     1  Na  -1.506656   0.219003
     2  Na   0.287119   0.264947
     3  Na   0.004262   0.363641
     4  Na  -0.170136   0.020435
     5  Na   0.711018  -0.003585
     6  Na   0.002647   0.164778
     7  Na   0.671745  -0.029220
 Sum of Mulliken charges =  -0.00000   1.00000

 Dipole moment (field-independent basis, Debye):
    X=              0.5955    Y=              0.1538    Z=              0.0441  Tot=              0.6166
 Quadrupole moment (field-independent basis, Debye-Ang):
   XX=            -54.2354   YY=            -64.8871   ZZ=            -74.8374
   XY=              3.1586   XZ=              1.8849   YZ=             -0.2315

 Normal termination of Gaussian 16 at Tue Nov 28 20:13:07 2023.
