 Gaussian 16, Revision B.01,
 Gaussian 16:  ES64L-G16RevB.01 20-Dec-2017

 -------------------------
 #P B3LYP/6-311+g(d) force
 -------------------------

 -----
 DPGEN
 -----
 Symbolic Z-matrix:
 Charge =  0 Multiplicity = 2

                         Standard orientation:
 ---------------------------------------------------------------------
 Center     Atomic      Atomic             Coordinates (Angstroms)
 Number     Number       Type             X           Y           Z
 ---------------------------------------------------------------------
      1         11           0        2.773667    1.266917   -0.443372
      2         11           0       -0.081234    2.649783    0.946754
      3         11           0       -2.706311    1.054977   -0.922489
      4         11           0        2.179511   -2.154600   -0.178568
      5         11           0       -2.462996   -1.798392    0.567509
      6         11           0       -0.004826   -0.425791   -1.915151
      7         11           0        0.302190   -0.592894    1.945317
 ---------------------------------------------------------------------

 SCF Done:  E(UB3LYP) =  -1136.13237313     A.U. after   20 cycles

 The electronic state is 2-A.
 Alpha  occ. eigenvalues --  -38.44133 -38.44052 -38.43996 -38.43894 -38.43844
 Alpha  occ. eigenvalues --  -38.43509 -38.42842  -2.19970  -2.19961  -2.19837
 Alpha  occ. eigenvalues --   -2.19818  -2.19712  -2.19375  -2.18681  -1.13658
 Alpha  occ. eigenvalues --   -1.13648  -1.13634  -1.13618  -1.13596  -1.13583
 Alpha  occ. eigenvalues --   -1.13550  -1.13516  -1.13483  -1.13471  -1.13464
 Alpha  occ. eigenvalues --   -1.13419  -1.13387  -1.13344  -1.13326  -1.13051
 Alpha  occ. eigenvalues --   -1.13042  -1.12997  -1.12369  -1.12327  -1.12318
 Alpha  occ. eigenvalues --   -0.18583  -0.13333  -0.11855  -0.11617
 Alpha virt. eigenvalues --   -0.05641  -0.05236  -0.04125  -0.03623  -0.03219
 Alpha virt. eigenvalues --   -0.03016  -0.01507  -0.00987  -0.00293   0.00046
 Alpha virt. eigenvalues --    0.00192   0.00390   0.00665   0.00783   0.00817

  Beta  occ. eigenvalues --  -38.44129 -38.43985 -38.43980 -38.43826 -38.43810
  Beta  occ. eigenvalues --  -38.43506 -38.42826  -2.19955  -2.19838  -2.19820
  Beta  occ. eigenvalues --   -2.19680  -2.19664  -2.19374  -2.18654  -1.13638
  Beta  occ. eigenvalues --   -1.13617  -1.13587  -1.13561  -1.13539  -1.13522
  Beta  occ. eigenvalues --   -1.13499  -1.13489  -1.13460  -1.13375  -1.13365
  Beta  occ. eigenvalues --   -1.13346  -1.13320  -1.13314  -1.13306  -1.13042
  Beta  occ. eigenvalues --   -1.13031  -1.12990  -1.12341  -1.12306  -1.12299
  Beta  occ. eigenvalues --   -0.17826  -0.13084  -0.11613
  Beta virt. eigenvalues --   -0.07692  -0.05563  -0.05118  -0.03893  -0.03030
  Beta virt. eigenvalues --   -0.02455  -0.02079  -0.01411  -0.00911  -0.00163
  Beta virt. eigenvalues --    0.00065   0.00200   0.00425   0.00787   0.00847

 Mulliken charges and spin densities:
               1          2
     1  Na  -0.050329   0.051693
     2  Na  -0.357360   0.000670
     3  Na   0.291956   0.168637
     4  Na   0.069229  -0.031663
     5  Na  -0.348046  -0.058564
     6  Na   0.011374   0.324879
     7  Na   0.383177   0.544348
 Sum of Mulliken charges =  -0.00000   1.00000

 Dipole moment (field-independent basis, Debye):
    X=              0.1051    Y=             -0.3097    Z=             -0.2164  Tot=              0.3922
 Quadrupole moment (field-independent basis, Debye-Ang):
   XX=            -57.4264   YY=            -68.7808   ZZ=            -69.6290
   XY=             -0.1066   XZ=             -0.9262   YZ=             -1.0695

 Normal termination of Gaussian 16 at Tue Dec  5 16:17:31 2023.
