 Gaussian 16, Revision B.01,
 Gaussian 16:  ES64L-G16RevB.01 20-Dec-2017

 -------------------------
 #P B3LYP/6-311+g(d) force
 -------------------------

 -----
 DPGEN
 -----
 Symbolic Z-matrix:
 Charge =  0 Multiplicity = 2

                         Standard orientation:
 ---------------------------------------------------------------------
 Center     Atomic      Atomic             Coordinates (Angstroms)
 Number     Number       Type             X           Y           Z
 ---------------------------------------------------------------------
      1         11           0        6.741782   -1.136437   -0.093965
      2         11           0        0.685120    2.704631    0.729253
      3         11           0        3.445290   -0.008044   -0.508709
      4         11           0        0.622875   -1.437525    0.806313
      5         11           0       -6.383838   -1.035960    0.250624
      6         11           0       -3.187473   -1.484004   -0.559801
      7         11           0       -1.923757    2.397339   -0.623714
 ---------------------------------------------------------------------

 SCF Done:  E(UB3LYP) =  -1136.10602275     A.U. after   21 cycles

 The electronic state is 2-A.
 Alpha  occ. eigenvalues --  -38.44994 -38.44889 -38.44640 -38.44607 -38.44287
 Alpha  occ. eigenvalues --  -38.44276 -38.43980  -2.20798  -2.20643  -2.20425
 Alpha  occ. eigenvalues --   -2.20409  -2.20117  -2.20050  -2.19760  -1.14454
 Alpha  occ. eigenvalues --   -1.14423  -1.14413  -1.14308  -1.14306  -1.14282
 Alpha  occ. eigenvalues --   -1.14166  -1.14076  -1.14058  -1.14057  -1.14056
 Alpha  occ. eigenvalues --   -1.14024  -1.13771  -1.13751  -1.13735  -1.13732
 Alpha  occ. eigenvalues --   -1.13720  -1.13678  -1.13456  -1.13449  -1.13390
 Alpha  occ. eigenvalues --   -0.16199  -0.13493  -0.12444  -0.11274
 Alpha virt. eigenvalues --   -0.07393  -0.05145  -0.04782  -0.03524  -0.03089
 Alpha virt. eigenvalues --   -0.02739  -0.02077  -0.01755  -0.01327  -0.01161
 Alpha virt. eigenvalues --   -0.00553  -0.00349   0.00062   0.00160   0.00402

  Beta  occ. eigenvalues --  -38.44891 -38.44883 -38.44581 -38.44571 -38.44273
  Beta  occ. eigenvalues --  -38.44271 -38.43996  -2.20633  -2.20607  -2.20377
  Beta  occ. eigenvalues --   -2.20279  -2.20092  -2.20042  -2.19794  -1.14324
  Beta  occ. eigenvalues --   -1.14300  -1.14298  -1.14294  -1.14287  -1.14276
  Beta  occ. eigenvalues --   -1.14132  -1.14044  -1.14020  -1.13970  -1.13968
  Beta  occ. eigenvalues --   -1.13940  -1.13757  -1.13734  -1.13727  -1.13718
  Beta  occ. eigenvalues --   -1.13708  -1.13656  -1.13480  -1.13470  -1.13389
  Beta  occ. eigenvalues --   -0.15622  -0.13312  -0.11772
  Beta virt. eigenvalues --   -0.07927  -0.07017  -0.04811  -0.04462  -0.03132
  Beta virt. eigenvalues --   -0.02831  -0.02605  -0.01782  -0.01528  -0.01162
  Beta virt. eigenvalues --   -0.00764  -0.00245  -0.00175   0.00132   0.00259

 Mulliken charges and spin densities:
               1          2
     1  Na   0.126943   0.256803
     2  Na   0.188528   0.146912
     3  Na  -0.313478   0.025416
     4  Na  -0.094433   0.415986
     5  Na   0.499520   0.056023
     6  Na  -0.560168   0.004412
     7  Na   0.153088   0.094448
 Sum of Mulliken charges =  -0.00000   1.00000

 Dipole moment (field-independent basis, Debye):
    X=             -0.8535    Y=              0.1125    Z=              0.4590  Tot=              0.9757
 Quadrupole moment (field-independent basis, Debye-Ang):
   XX=            -51.4596   YY=            -72.8093   ZZ=            -71.1432
   XY=             -1.6168   XZ=              0.7631   YZ=             -0.4876

 Normal termination of Gaussian 16 at Mon Dec  4 01:10:46 2023.
