 Gaussian 16, Revision B.01,
 Gaussian 16:  ES64L-G16RevB.01 20-Dec-2017

 -------------------------
 #P B3LYP/6-311+g(d) force
 -------------------------

 -----
 DPGEN
 -----
 Symbolic Z-matrix:
 Charge =  0 Multiplicity = 2

                         Standard orientation:
 ---------------------------------------------------------------------
 Center     Atomic      Atomic             Coordinates (Angstroms)
 Number     Number       Type             X           Y           Z
 ---------------------------------------------------------------------
      1         11           0        0.050316    3.353190    0.424312
      2         11           0        2.991135   -1.793505    0.463361
      3         11           0        1.846338    0.926821   -1.308550
      4         11           0       -3.150903   -1.790056    0.183181
      5         11           0       -0.061370    0.125135    2.187120
      6         11           0        0.153312   -1.841686   -0.930839
      7         11           0       -1.828828    1.020100   -1.018586
 ---------------------------------------------------------------------

 SCF Done:  E(UB3LYP) =  -1136.13649788     A.U. after   17 cycles

 The electronic state is 2-A.
 Alpha  occ. eigenvalues --  -38.44218 -38.43813 -38.43663 -38.43601 -38.43434
 Alpha  occ. eigenvalues --  -38.43335 -38.43236  -2.20053  -2.19651  -2.19554
 Alpha  occ. eigenvalues --   -2.19414  -2.19338  -2.19179  -2.19169  -1.13717
 Alpha  occ. eigenvalues --   -1.13677  -1.13673  -1.13343  -1.13312  -1.13294
 Alpha  occ. eigenvalues --   -1.13273  -1.13211  -1.13145  -1.13099  -1.13076
 Alpha  occ. eigenvalues --   -1.13066  -1.13041  -1.13013  -1.12941  -1.12886
 Alpha  occ. eigenvalues --   -1.12853  -1.12834  -1.12821  -1.12805  -1.12762
 Alpha  occ. eigenvalues --   -0.18410  -0.12886  -0.12478  -0.11058
 Alpha virt. eigenvalues --   -0.05565  -0.05001  -0.04598  -0.03359  -0.03038
 Alpha virt. eigenvalues --   -0.02861  -0.01500  -0.01296  -0.00393  -0.00114
 Alpha virt. eigenvalues --    0.00246   0.00364   0.00759   0.00811   0.00865

  Beta  occ. eigenvalues --  -38.44117 -38.43811 -38.43625 -38.43604 -38.43412
  Beta  occ. eigenvalues --  -38.43333 -38.43214  -2.19867  -2.19649  -2.19487
  Beta  occ. eigenvalues --   -2.19421  -2.19300  -2.19169  -2.19143  -1.13593
  Beta  occ. eigenvalues --   -1.13547  -1.13538  -1.13343  -1.13309  -1.13276
  Beta  occ. eigenvalues --   -1.13221  -1.13157  -1.13104  -1.13100  -1.13077
  Beta  occ. eigenvalues --   -1.13062  -1.13014  -1.12973  -1.12921  -1.12860
  Beta  occ. eigenvalues --   -1.12835  -1.12809  -1.12800  -1.12796  -1.12742
  Beta  occ. eigenvalues --   -0.17639  -0.12737  -0.12322
  Beta virt. eigenvalues --   -0.07067  -0.05373  -0.04923  -0.04573  -0.02672
  Beta virt. eigenvalues --   -0.02422  -0.01835  -0.01421  -0.01192  -0.00185
  Beta virt. eigenvalues --   -0.00101   0.00306   0.00426   0.00793   0.00857

 Mulliken charges and spin densities:
               1          2
     1  Na   0.394878  -0.091589
     2  Na   0.370948  -0.123383
     3  Na  -0.156272   0.127487
     4  Na   0.485441  -0.091432
     5  Na  -0.676457   0.765040
     6  Na  -0.235950   0.251851
     7  Na  -0.182587   0.162026
 Sum of Mulliken charges =  -0.00000   1.00000

 Dipole moment (field-independent basis, Debye):
    X=              0.1916    Y=             -0.0855    Z=              0.3417  Tot=              0.4009
 Quadrupole moment (field-independent basis, Debye-Ang):
   XX=            -59.4017   YY=            -63.0461   ZZ=            -71.2152
   XY=              0.2347   XZ=              0.2095   YZ=             -1.2110

 Normal termination of Gaussian 16 at Thu Dec  7 18:56:52 2023.
