 Gaussian 16, Revision B.01,
 Gaussian 16:  ES64L-G16RevB.01 20-Dec-2017

 -------------------------
 #P B3LYP/6-311+g(d) force
 -------------------------

 -----
 DPGEN
 -----
 Symbolic Z-matrix:
 Charge =  0 Multiplicity = 2

                         Standard orientation:
 ---------------------------------------------------------------------
 Center     Atomic      Atomic             Coordinates (Angstroms)
 Number     Number       Type             X           Y           Z
 ---------------------------------------------------------------------
      1         11           0       -1.151268   -1.561493   -0.392831
      2         11           0       -1.690000    1.438067    0.325110
      3         11           0        1.711225    0.800646   -0.717362
      4         11           0        2.490357   -1.033351    1.750010
      5         11           0        2.217365   -2.726434   -0.919740
      6         11           0        0.728351    4.202122   -0.236092
      7         11           0       -4.306030   -1.119557    0.190905
 ---------------------------------------------------------------------

 SCF Done:  E(UB3LYP) =  -1136.12420416     A.U. after   23 cycles

 The electronic state is 2-A.
 Alpha  occ. eigenvalues --  -38.44424 -38.44247 -38.44151 -38.44044 -38.44038
 Alpha  occ. eigenvalues --  -38.43567 -38.43153  -2.20267  -2.20059  -2.19927
 Alpha  occ. eigenvalues --   -2.19920  -2.19906  -2.19476  -2.19058  -1.14030
 Alpha  occ. eigenvalues --   -1.13961  -1.13825  -1.13736  -1.13715  -1.13678
 Alpha  occ. eigenvalues --   -1.13655  -1.13632  -1.13598  -1.13588  -1.13584
 Alpha  occ. eigenvalues --   -1.13570  -1.13553  -1.13542  -1.13486  -1.13205
 Alpha  occ. eigenvalues --   -1.13151  -1.13049  -1.12715  -1.12686  -1.12667
 Alpha  occ. eigenvalues --   -0.17731  -0.13859  -0.12726  -0.09647
 Alpha virt. eigenvalues --   -0.06535  -0.05645  -0.05006  -0.03217  -0.02372
 Alpha virt. eigenvalues --   -0.02319  -0.02109  -0.01467  -0.01097  -0.00440
 Alpha virt. eigenvalues --   -0.00178   0.00104   0.00410   0.00577   0.00662

  Beta  occ. eigenvalues --  -38.44421 -38.44233 -38.44155 -38.44025 -38.44017
  Beta  occ. eigenvalues --  -38.43539 -38.43063  -2.20264  -2.20031  -2.19928
  Beta  occ. eigenvalues --   -2.19907  -2.19861  -2.19430  -2.18890  -1.14028
  Beta  occ. eigenvalues --   -1.13953  -1.13820  -1.13716  -1.13695  -1.13660
  Beta  occ. eigenvalues --   -1.13641  -1.13604  -1.13592  -1.13577  -1.13559
  Beta  occ. eigenvalues --   -1.13552  -1.13536  -1.13487  -1.13477  -1.13176
  Beta  occ. eigenvalues --   -1.13115  -1.12996  -1.12599  -1.12572  -1.12554
  Beta  occ. eigenvalues --   -0.17205  -0.13521  -0.12588
  Beta virt. eigenvalues --   -0.06371  -0.05833  -0.05469  -0.04859  -0.02739
  Beta virt. eigenvalues --   -0.02276  -0.02108  -0.01893  -0.01042  -0.00834
  Beta virt. eigenvalues --   -0.00230   0.00132   0.00303   0.00615   0.00728

 Mulliken charges and spin densities:
               1          2
     1  Na  -2.007233   0.140376
     2  Na  -0.589843   0.028091
     3  Na  -1.143005   0.364988
     4  Na   0.169477   0.355565
     5  Na   1.624950  -0.002285
     6  Na   0.759530  -0.139646
     7  Na   1.186123   0.252911
 Sum of Mulliken charges =  -0.00000   1.00000

 Dipole moment (field-independent basis, Debye):
    X=             -0.9814    Y=              0.2695    Z=             -0.4006  Tot=              1.0937
 Quadrupole moment (field-independent basis, Debye-Ang):
   XX=            -60.1130   YY=            -56.8573   ZZ=            -75.5029
   XY=              0.4094   XZ=             -5.5721   YZ=              0.4844

 Normal termination of Gaussian 16 at Tue Nov 28 19:36:48 2023.
