 Gaussian 16, Revision B.01,
 Gaussian 16:  ES64L-G16RevB.01 20-Dec-2017

 -------------------------
 #P B3LYP/6-311+g(d) force
 -------------------------

 -----
 DPGEN
 -----
 Symbolic Z-matrix:
 Charge =  0 Multiplicity = 2

                         Standard orientation:
 ---------------------------------------------------------------------
 Center     Atomic      Atomic             Coordinates (Angstroms)
 Number     Number       Type             X           Y           Z
 ---------------------------------------------------------------------
      1         11           0       -4.088471   -0.131773   -0.904409
      2         11           0        0.307685   -0.274426   -1.759547
      3         11           0       -1.909543    1.270361    1.135968
      4         11           0       -0.355830   -2.439957    0.584924
      5         11           0        3.486419   -0.577613   -0.801859
      6         11           0        1.394802    2.647204   -0.069874
      7         11           0        1.164937   -0.493795    1.814797
 ---------------------------------------------------------------------

 SCF Done:  E(UB3LYP) =  -1136.11811255     A.U. after   24 cycles

 The electronic state is 2-A.
 Alpha  occ. eigenvalues --  -38.45247 -38.44844 -38.44724 -38.43721 -38.43585
 Alpha  occ. eigenvalues --  -38.42958 -38.42862  -2.21058  -2.20616  -2.20613
 Alpha  occ. eigenvalues --   -2.19713  -2.19420  -2.18870  -2.18676  -1.14747
 Alpha  occ. eigenvalues --   -1.14706  -1.14667  -1.14303  -1.14283  -1.14267
 Alpha  occ. eigenvalues --   -1.14258  -1.14242  -1.14233  -1.13524  -1.13330
 Alpha  occ. eigenvalues --   -1.13317  -1.13099  -1.13090  -1.13053  -1.12562
 Alpha  occ. eigenvalues --   -1.12525  -1.12437  -1.12360  -1.12348  -1.12304
 Alpha  occ. eigenvalues --   -0.18390  -0.13346  -0.11394  -0.11369
 Alpha virt. eigenvalues --   -0.06988  -0.04883  -0.03936  -0.03267  -0.02891
 Alpha virt. eigenvalues --   -0.02703  -0.02472  -0.01187  -0.00581  -0.00150
 Alpha virt. eigenvalues --    0.00066   0.00131   0.00276   0.00794   0.00863

  Beta  occ. eigenvalues --  -38.45219 -38.44812 -38.44679 -38.43654 -38.43566
  Beta  occ. eigenvalues --  -38.42948 -38.42858  -2.21006  -2.20556  -2.20531
  Beta  occ. eigenvalues --   -2.19593  -2.19390  -2.18856  -2.18671  -1.14695
  Beta  occ. eigenvalues --   -1.14675  -1.14635  -1.14245  -1.14245  -1.14226
  Beta  occ. eigenvalues --   -1.14203  -1.14201  -1.14167  -1.13445  -1.13234
  Beta  occ. eigenvalues --   -1.13230  -1.13081  -1.13054  -1.13020  -1.12544
  Beta  occ. eigenvalues --   -1.12493  -1.12433  -1.12358  -1.12337  -1.12292
  Beta  occ. eigenvalues --   -0.17701  -0.12983  -0.11146
  Beta virt. eigenvalues --   -0.07687  -0.06712  -0.04480  -0.03803  -0.03142
  Beta virt. eigenvalues --   -0.02303  -0.02062  -0.01906  -0.00870  -0.00510
  Beta virt. eigenvalues --   -0.00100   0.00125   0.00216   0.00382   0.00858

 Mulliken charges and spin densities:
               1          2
     1  Na   0.091058   0.177422
     2  Na  -0.248170   0.511522
     3  Na  -0.204418  -0.043518
     4  Na  -0.041981  -0.129145
     5  Na   0.283217   0.020666
     6  Na  -0.168359   0.003532
     7  Na   0.288654   0.459521
 Sum of Mulliken charges =  -0.00000   1.00000

 Dipole moment (field-independent basis, Debye):
    X=              0.4023    Y=             -0.3943    Z=             -0.5527  Tot=              0.7892
 Quadrupole moment (field-independent basis, Debye-Ang):
   XX=            -50.4776   YY=            -74.9507   ZZ=            -68.4908
   XY=              0.1039   XZ=              1.7583   YZ=              2.6486

 Normal termination of Gaussian 16 at Tue Dec  5 16:02:34 2023.
