 Gaussian 16, Revision B.01,
 Gaussian 16:  ES64L-G16RevB.01 20-Dec-2017

 -------------------------
 #P B3LYP/6-311+g(d) force
 -------------------------

 -----
 DPGEN
 -----
 Symbolic Z-matrix:
 Charge =  0 Multiplicity = 2

                         Standard orientation:
 ---------------------------------------------------------------------
 Center     Atomic      Atomic             Coordinates (Angstroms)
 Number     Number       Type             X           Y           Z
 ---------------------------------------------------------------------
      1         11           0       -3.115957   -2.409481   -0.721823
      2         11           0        4.297862    0.231146   -1.035665
      3         11           0        0.098052   -3.548298   -0.313528
      4         11           0        2.458678   -1.257801    1.787311
      5         11           0        1.901860    2.459653   -0.100719
      6         11           0       -1.655114    3.559351   -0.187993
      7         11           0       -3.985381    0.965430    0.572417
 ---------------------------------------------------------------------

 SCF Done:  E(UB3LYP) =  -1136.10812859     A.U. after   23 cycles

 The electronic state is 2-A.
 Alpha  occ. eigenvalues --  -38.45746 -38.45211 -38.44792 -38.44305 -38.44152
 Alpha  occ. eigenvalues --  -38.44083 -38.43478  -2.21494  -2.20984  -2.20540
 Alpha  occ. eigenvalues --   -2.20122  -2.19911  -2.19855  -2.19261  -1.15182
 Alpha  occ. eigenvalues --   -1.15152  -1.15105  -1.14683  -1.14663  -1.14593
 Alpha  occ. eigenvalues --   -1.14227  -1.14209  -1.14169  -1.13780  -1.13767
 Alpha  occ. eigenvalues --   -1.13733  -1.13594  -1.13589  -1.13553  -1.13535
 Alpha  occ. eigenvalues --   -1.13518  -1.13468  -1.12928  -1.12916  -1.12895
 Alpha  occ. eigenvalues --   -0.15741  -0.13662  -0.12892  -0.10349
 Alpha virt. eigenvalues --   -0.07548  -0.05976  -0.04095  -0.03476  -0.02989
 Alpha virt. eigenvalues --   -0.02640  -0.02238  -0.01693  -0.01296  -0.01106
 Alpha virt. eigenvalues --   -0.00483  -0.00174   0.00080   0.00317   0.00543

  Beta  occ. eigenvalues --  -38.45713 -38.45181 -38.44784 -38.44242 -38.44149
  Beta  occ. eigenvalues --  -38.44067 -38.43443  -2.21434  -2.20935  -2.20529
  Beta  occ. eigenvalues --   -2.20003  -2.19906  -2.19825  -2.19197  -1.15142
  Beta  occ. eigenvalues --   -1.15112  -1.15047  -1.14654  -1.14634  -1.14517
  Beta  occ. eigenvalues --   -1.14222  -1.14203  -1.14145  -1.13697  -1.13680
  Beta  occ. eigenvalues --   -1.13659  -1.13591  -1.13589  -1.13541  -1.13514
  Beta  occ. eigenvalues --   -1.13497  -1.13447  -1.12885  -1.12872  -1.12849
  Beta  occ. eigenvalues --   -0.15183  -0.13269  -0.12468
  Beta virt. eigenvalues --   -0.07459  -0.07011  -0.05531  -0.03757  -0.03329
  Beta virt. eigenvalues --   -0.02588  -0.02405  -0.01787  -0.01553  -0.01064
  Beta virt. eigenvalues --   -0.01037  -0.00213   0.00025   0.00284   0.00372

 Mulliken charges and spin densities:
               1          2
     1  Na   0.152588   0.154731
     2  Na   0.561879   0.339532
     3  Na  -0.231960   0.013303
     4  Na   0.195394   0.150869
     5  Na  -0.535899   0.217068
     6  Na   0.094417   0.069806
     7  Na  -0.236419   0.054690
 Sum of Mulliken charges =  -0.00000   1.00000

 Dipole moment (field-independent basis, Debye):
    X=              1.2435    Y=             -0.2776    Z=              0.3245  Tot=              1.3147
 Quadrupole moment (field-independent basis, Debye-Ang):
   XX=            -63.9263   YY=            -71.3305   ZZ=            -67.0041
   XY=             -3.2268   XZ=             -0.3099   YZ=              1.9089

 Normal termination of Gaussian 16 at Sun Dec  3 23:52:13 2023.
