 Gaussian 16, Revision B.01,
 Gaussian 16:  ES64L-G16RevB.01 20-Dec-2017

 -------------------------
 #P B3LYP/6-311+g(d) force
 -------------------------

 -----
 DPGEN
 -----
 Symbolic Z-matrix:
 Charge =  0 Multiplicity = 2

                         Standard orientation:
 ---------------------------------------------------------------------
 Center     Atomic      Atomic             Coordinates (Angstroms)
 Number     Number       Type             X           Y           Z
 ---------------------------------------------------------------------
      1         11           0        2.379172    1.951228   -0.127059
      2         11           0       -0.875690    0.658832    1.553876
      3         11           0       -2.041546   -2.807953   -0.157778
      4         11           0        1.471328   -1.437143   -0.521585
      5         11           0        4.790502   -1.107228    0.096595
      6         11           0       -4.591006   -0.210244   -0.199372
      7         11           0       -1.132760    2.952507   -0.644677
 ---------------------------------------------------------------------

 SCF Done:  E(UB3LYP) =  -1136.12201344     A.U. after   20 cycles

 The electronic state is 2-A.
 Alpha  occ. eigenvalues --  -38.45049 -38.44881 -38.44221 -38.43874 -38.43853
 Alpha  occ. eigenvalues --  -38.43719 -38.43564  -2.20869  -2.20669  -2.20021
 Alpha  occ. eigenvalues --   -2.19676  -2.19642  -2.19492  -2.19404  -1.14570
 Alpha  occ. eigenvalues --   -1.14545  -1.14472  -1.14385  -1.14362  -1.14247
 Alpha  occ. eigenvalues --   -1.13702  -1.13688  -1.13638  -1.13337  -1.13332
 Alpha  occ. eigenvalues --   -1.13299  -1.13291  -1.13278  -1.13258  -1.13179
 Alpha  occ. eigenvalues --   -1.13144  -1.13133  -1.13101  -1.13094  -1.12998
 Alpha  occ. eigenvalues --   -0.16951  -0.13628  -0.12271  -0.10315
 Alpha virt. eigenvalues --   -0.06329  -0.05901  -0.04973  -0.03314  -0.02694
 Alpha virt. eigenvalues --   -0.02387  -0.02080  -0.01504  -0.00951  -0.00808
 Alpha virt. eigenvalues --   -0.00431  -0.00227   0.00419   0.00533   0.00569

  Beta  occ. eigenvalues --  -38.45035 -38.44881 -38.44224 -38.43825 -38.43764
  Beta  occ. eigenvalues --  -38.43711 -38.43539  -2.20844  -2.20669  -2.20027
  Beta  occ. eigenvalues --   -2.19583  -2.19482  -2.19474  -2.19363  -1.14555
  Beta  occ. eigenvalues --   -1.14508  -1.14459  -1.14386  -1.14360  -1.14240
  Beta  occ. eigenvalues --   -1.13708  -1.13693  -1.13635  -1.13274  -1.13267
  Beta  occ. eigenvalues --   -1.13231  -1.13185  -1.13176  -1.13164  -1.13157
  Beta  occ. eigenvalues --   -1.13132  -1.13094  -1.13077  -1.13066  -1.12940
  Beta  occ. eigenvalues --   -0.16510  -0.13050  -0.11989
  Beta virt. eigenvalues --   -0.06879  -0.06227  -0.05694  -0.04461  -0.02920
  Beta virt. eigenvalues --   -0.02493  -0.02109  -0.01774  -0.01280  -0.00776
  Beta virt. eigenvalues --   -0.00574  -0.00149   0.00054   0.00549   0.00601

 Mulliken charges and spin densities:
               1          2
     1  Na   0.033071   0.027305
     2  Na   0.149963  -0.029272
     3  Na   0.185281  -0.010047
     4  Na  -0.862115   0.135153
     5  Na   0.566713   0.286054
     6  Na  -0.074831   0.558361
     7  Na   0.001919   0.032446
 Sum of Mulliken charges =  -0.00000   1.00000

 Dipole moment (field-independent basis, Debye):
    X=              0.8310    Y=              0.8525    Z=              0.1773  Tot=              1.2037
 Quadrupole moment (field-independent basis, Debye-Ang):
   XX=            -69.9204   YY=            -66.0867   ZZ=            -66.9235
   XY=              0.3452   XZ=              1.6333   YZ=             -1.5085

 Normal termination of Gaussian 16 at Tue Nov 28 19:38:45 2023.
