 Gaussian 16, Revision B.01,
 Gaussian 16:  ES64L-G16RevB.01 20-Dec-2017

 -------------------------
 #P B3LYP/6-311+g(d) force
 -------------------------

 -----
 DPGEN
 -----
 Symbolic Z-matrix:
 Charge =  0 Multiplicity = 2

                         Standard orientation:
 ---------------------------------------------------------------------
 Center     Atomic      Atomic             Coordinates (Angstroms)
 Number     Number       Type             X           Y           Z
 ---------------------------------------------------------------------
      1         11           0       -0.460435    0.267419   -1.634739
      2         11           0        0.103933   -0.428510    2.029302
      3         11           0        1.642093    2.462065   -0.442070
      4         11           0        0.291005   -2.780031   -0.324167
      5         11           0       -1.959646    2.441563    0.512612
      6         11           0       -2.797728   -1.331541   -0.219031
      7         11           0        3.180777   -0.630966    0.078094
 ---------------------------------------------------------------------

 SCF Done:  E(UB3LYP) =  -1136.13797312     A.U. after   19 cycles

 The electronic state is 2-A.
 Alpha  occ. eigenvalues --  -38.43876 -38.43814 -38.43808 -38.43659 -38.43598
 Alpha  occ. eigenvalues --  -38.43428 -38.43176  -2.19731  -2.19625  -2.19615
 Alpha  occ. eigenvalues --   -2.19542  -2.19432  -2.19306  -2.19153  -1.13440
 Alpha  occ. eigenvalues --   -1.13385  -1.13361  -1.13295  -1.13292  -1.13290
 Alpha  occ. eigenvalues --   -1.13276  -1.13268  -1.13261  -1.13216  -1.13180
 Alpha  occ. eigenvalues --   -1.13151  -1.13139  -1.13087  -1.13050  -1.12997
 Alpha  occ. eigenvalues --   -1.12975  -1.12920  -1.12824  -1.12791  -1.12770
 Alpha  occ. eigenvalues --   -0.18517  -0.12822  -0.12600  -0.10750
 Alpha virt. eigenvalues --   -0.05431  -0.05330  -0.04789  -0.03147  -0.03029
 Alpha virt. eigenvalues --   -0.02528  -0.01437  -0.01215  -0.00430  -0.00297
 Alpha virt. eigenvalues --   -0.00007   0.00355   0.00808   0.00856   0.00883

  Beta  occ. eigenvalues --  -38.43868 -38.43808 -38.43803 -38.43588 -38.43570
  Beta  occ. eigenvalues --  -38.43419 -38.43116  -2.19722  -2.19619  -2.19605
  Beta  occ. eigenvalues --   -2.19417  -2.19378  -2.19294  -2.19045  -1.13425
  Beta  occ. eigenvalues --   -1.13372  -1.13346  -1.13289  -1.13280  -1.13276
  Beta  occ. eigenvalues --   -1.13265  -1.13262  -1.13247  -1.13120  -1.13114
  Beta  occ. eigenvalues --   -1.13073  -1.13064  -1.13042  -1.13034  -1.12981
  Beta  occ. eigenvalues --   -1.12944  -1.12906  -1.12751  -1.12712  -1.12691
  Beta  occ. eigenvalues --   -0.17801  -0.12574  -0.12376
  Beta virt. eigenvalues --   -0.06879  -0.05406  -0.05259  -0.04707  -0.02413
  Beta virt. eigenvalues --   -0.02296  -0.01508  -0.01348  -0.01114  -0.00440
  Beta virt. eigenvalues --   -0.00344   0.00128   0.00389   0.00855   0.00871

 Mulliken charges and spin densities:
               1          2
     1  Na  -0.023605   0.374944
     2  Na  -0.446956   0.762565
     3  Na   0.087384  -0.048403
     4  Na   0.152067  -0.054455
     5  Na  -0.068959   0.042383
     6  Na   0.312207  -0.013428
     7  Na  -0.012137  -0.063606
 Sum of Mulliken charges =  -0.00000   1.00000

 Dipole moment (field-independent basis, Debye):
    X=             -0.1498    Y=             -0.0098    Z=              0.1799  Tot=              0.2343
 Quadrupole moment (field-independent basis, Debye-Ang):
   XX=            -57.3682   YY=            -62.0733   ZZ=            -74.0547
   XY=             -0.2906   XZ=             -1.2036   YZ=              1.4959

 Normal termination of Gaussian 16 at Fri Dec  8 01:00:57 2023.
