 Gaussian 16, Revision B.01,
 Gaussian 16:  ES64L-G16RevB.01 20-Dec-2017

 -------------------------
 #P B3LYP/6-311+g(d) force
 -------------------------

 -----
 DPGEN
 -----
 Symbolic Z-matrix:
 Charge =  0 Multiplicity = 2

                         Standard orientation:
 ---------------------------------------------------------------------
 Center     Atomic      Atomic             Coordinates (Angstroms)
 Number     Number       Type             X           Y           Z
 ---------------------------------------------------------------------
      1         11           0       -2.133249    2.446325   -0.311059
      2         11           0       -0.661438    0.291001    0.926703
      3         11           0       -1.701336   -2.832013   -0.131760
      4         11           0        4.672995   -0.604454   -0.891219
      5         11           0       -4.319451   -0.522441   -0.441548
      6         11           0        2.433655   -1.278396    0.734029
      7         11           0        1.708825    2.499977    0.114854
 ---------------------------------------------------------------------

 SCF Done:  E(UB3LYP) =  -1136.11859968     A.U. after   20 cycles

 The electronic state is 2-A.
 Alpha  occ. eigenvalues --  -38.44778 -38.44252 -38.44038 -38.43984 -38.43931
 Alpha  occ. eigenvalues --  -38.43876 -38.43430  -2.20564  -2.20056  -2.19891
 Alpha  occ. eigenvalues --   -2.19849  -2.19748  -2.19724  -2.19415  -1.14254
 Alpha  occ. eigenvalues --   -1.14243  -1.14160  -1.13727  -1.13722  -1.13706
 Alpha  occ. eigenvalues --   -1.13691  -1.13683  -1.13551  -1.13470  -1.13465
 Alpha  occ. eigenvalues --   -1.13459  -1.13398  -1.13395  -1.13392  -1.13387
 Alpha  occ. eigenvalues --   -1.13350  -1.13300  -1.13094  -1.13089  -1.12992
 Alpha  occ. eigenvalues --   -0.17286  -0.14258  -0.12101  -0.10793
 Alpha virt. eigenvalues --   -0.06332  -0.05345  -0.04326  -0.03921  -0.02595
 Alpha virt. eigenvalues --   -0.02351  -0.01602  -0.01564  -0.01188  -0.00524
 Alpha virt. eigenvalues --   -0.00214   0.00250   0.00453   0.00475   0.00651

  Beta  occ. eigenvalues --  -38.44771 -38.44205 -38.44024 -38.43913 -38.43912
  Beta  occ. eigenvalues --  -38.43866 -38.43392  -2.20551  -2.19969  -2.19866
  Beta  occ. eigenvalues --   -2.19752  -2.19705  -2.19694  -2.19349  -1.14243
  Beta  occ. eigenvalues --   -1.14230  -1.14156  -1.13684  -1.13668  -1.13647
  Beta  occ. eigenvalues --   -1.13634  -1.13625  -1.13537  -1.13427  -1.13415
  Beta  occ. eigenvalues --   -1.13405  -1.13379  -1.13368  -1.13356  -1.13344
  Beta  occ. eigenvalues --   -1.13321  -1.13233  -1.13054  -1.13021  -1.12944
  Beta  occ. eigenvalues --   -0.16688  -0.13620  -0.11864
  Beta virt. eigenvalues --   -0.07330  -0.06195  -0.04852  -0.03855  -0.03795
  Beta virt. eigenvalues --   -0.02127  -0.02081  -0.01463  -0.01179  -0.00998
  Beta virt. eigenvalues --   -0.00404   0.00085   0.00410   0.00557   0.00592

 Mulliken charges and spin densities:
               1          2
     1  Na   0.838033   0.284051
     2  Na  -1.444014  -0.078552
     3  Na   0.323030   0.110878
     4  Na   0.264414   0.354501
     5  Na   0.127975   0.241820
     6  Na  -0.329611   0.044183
     7  Na   0.220172   0.043118
 Sum of Mulliken charges =  -0.00000   1.00000

 Dipole moment (field-independent basis, Debye):
    X=             -0.1694    Y=              0.6478    Z=             -0.5313  Tot=              0.8548
 Quadrupole moment (field-independent basis, Debye-Ang):
   XX=            -62.4701   YY=            -64.4709   ZZ=            -70.2712
   XY=              5.2167   XZ=             -0.4610   YZ=             -0.8167

 Normal termination of Gaussian 16 at Tue Dec  5 14:39:11 2023.
