 Gaussian 16, Revision B.01,
 Gaussian 16:  ES64L-G16RevB.01 20-Dec-2017

 -------------------------
 #P B3LYP/6-311+g(d) force
 -------------------------

 -----
 DPGEN
 -----
 Symbolic Z-matrix:
 Charge =  0 Multiplicity = 2

                         Standard orientation:
 ---------------------------------------------------------------------
 Center     Atomic      Atomic             Coordinates (Angstroms)
 Number     Number       Type             X           Y           Z
 ---------------------------------------------------------------------
      1         11           0        3.944376    0.348725   -0.938964
      2         11           0        2.178790    3.502151   -0.183200
      3         11           0       -1.175817    2.974569    0.742269
      4         11           0       -3.186057   -2.440646   -0.443902
      5         11           0       -0.163662   -3.480370   -0.243935
      6         11           0       -4.242422    1.664246   -0.101261
      7         11           0        2.644793   -2.568675    1.168992
 ---------------------------------------------------------------------

 SCF Done:  E(UB3LYP) =  -1136.10610457     A.U. after   23 cycles

 The electronic state is 2-A.
 Alpha  occ. eigenvalues --  -38.45906 -38.44820 -38.44551 -38.44427 -38.44240
 Alpha  occ. eigenvalues --  -38.44166 -38.44015  -2.21619  -2.20580  -2.20348
 Alpha  occ. eigenvalues --   -2.20202  -2.20043  -2.19983  -2.19802  -1.15314
 Alpha  occ. eigenvalues --   -1.15290  -1.15255  -1.14267  -1.14258  -1.14218
 Alpha  occ. eigenvalues --   -1.14023  -1.13999  -1.13969  -1.13860  -1.13840
 Alpha  occ. eigenvalues --   -1.13838  -1.13736  -1.13694  -1.13669  -1.13649
 Alpha  occ. eigenvalues --   -1.13647  -1.13601  -1.13462  -1.13454  -1.13430
 Alpha  occ. eigenvalues --   -0.15410  -0.13729  -0.13448  -0.10817
 Alpha virt. eigenvalues --   -0.07781  -0.04799  -0.04588  -0.03501  -0.03388
 Alpha virt. eigenvalues --   -0.02419  -0.02236  -0.01829  -0.01454  -0.00904
 Alpha virt. eigenvalues --   -0.00727  -0.00355   0.00146   0.00320   0.00576

  Beta  occ. eigenvalues --  -38.45917 -38.44813 -38.44486 -38.44376 -38.44186
  Beta  occ. eigenvalues --  -38.44154 -38.43967  -2.21644  -2.20572  -2.20233
  Beta  occ. eigenvalues --   -2.20110  -2.19969  -2.19941  -2.19712  -1.15334
  Beta  occ. eigenvalues --   -1.15309  -1.15248  -1.14266  -1.14258  -1.14178
  Beta  occ. eigenvalues --   -1.13939  -1.13923  -1.13884  -1.13798  -1.13781
  Beta  occ. eigenvalues --   -1.13767  -1.13684  -1.13647  -1.13639  -1.13620
  Beta  occ. eigenvalues --   -1.13596  -1.13541  -1.13400  -1.13395  -1.13372
  Beta  occ. eigenvalues --   -0.14893  -0.12989  -0.12664
  Beta virt. eigenvalues --   -0.07931  -0.07731  -0.04394  -0.04132  -0.03270
  Beta virt. eigenvalues --   -0.03106  -0.02213  -0.01938  -0.01609  -0.01297
  Beta virt. eigenvalues --   -0.00598  -0.00552  -0.00080   0.00261   0.00316

 Mulliken charges and spin densities:
               1          2
     1  Na   0.045106  -0.045560
     2  Na   0.303739   0.240625
     3  Na  -0.442594   0.047092
     4  Na   0.289947   0.241783
     5  Na  -0.333517   0.041174
     6  Na   0.171717   0.213453
     7  Na  -0.034398   0.261433
 Sum of Mulliken charges =  -0.00000   1.00000

 Dipole moment (field-independent basis, Debye):
    X=              0.4385    Y=              0.0768    Z=             -0.2138  Tot=              0.4939
 Quadrupole moment (field-independent basis, Debye-Ang):
   XX=            -57.3276   YY=            -72.3503   ZZ=            -70.3469
   XY=              0.7578   XZ=             -0.7020   YZ=              0.0715

 Normal termination of Gaussian 16 at Mon Dec  4 04:06:41 2023.
