 Gaussian 16, Revision B.01,
 Gaussian 16:  ES64L-G16RevB.01 20-Dec-2017

 -------------------------
 #P B3LYP/6-311+g(d) force
 -------------------------

 -----
 DPGEN
 -----
 Symbolic Z-matrix:
 Charge =  0 Multiplicity = 2

                         Standard orientation:
 ---------------------------------------------------------------------
 Center     Atomic      Atomic             Coordinates (Angstroms)
 Number     Number       Type             X           Y           Z
 ---------------------------------------------------------------------
      1         11           0       -3.359246   -0.952786   -1.095705
      2         11           0        4.247309    1.043218   -0.495101
      3         11           0        2.687560   -1.636255    0.524443
      4         11           0       -2.710908    1.884097    0.089434
      5         11           0       -1.328444   -1.164875    1.956693
      6         11           0        0.187954   -1.118231   -1.419143
      7         11           0        0.275777    1.944832    0.439379
 ---------------------------------------------------------------------

 SCF Done:  E(UB3LYP) =  -1136.11355297     A.U. after   26 cycles

 The electronic state is 2-A.
 Alpha  occ. eigenvalues --  -38.44885 -38.44783 -38.44726 -38.44439 -38.44054
 Alpha  occ. eigenvalues --  -38.43490 -38.43269  -2.20675  -2.20627  -2.20541
 Alpha  occ. eigenvalues --   -2.20275  -2.19924  -2.19387  -2.19121  -1.14349
 Alpha  occ. eigenvalues --   -1.14323  -1.14321  -1.14307  -1.14296  -1.14244
 Alpha  occ. eigenvalues --   -1.14206  -1.14186  -1.14166  -1.13959  -1.13930
 Alpha  occ. eigenvalues --   -1.13903  -1.13605  -1.13577  -1.13533  -1.13123
 Alpha  occ. eigenvalues --   -1.13038  -1.13023  -1.12821  -1.12771  -1.12723
 Alpha  occ. eigenvalues --   -0.18084  -0.14398  -0.11103  -0.10872
 Alpha virt. eigenvalues --   -0.07409  -0.05796  -0.04191  -0.03186  -0.03061
 Alpha virt. eigenvalues --   -0.02505  -0.02178  -0.01547  -0.01045  -0.00514
 Alpha virt. eigenvalues --   -0.00062   0.00178   0.00299   0.00544   0.00592

  Beta  occ. eigenvalues --  -38.44841 -38.44766 -38.44671 -38.44436 -38.43993
  Beta  occ. eigenvalues --  -38.43477 -38.43267  -2.20598  -2.20593  -2.20442
  Beta  occ. eigenvalues --   -2.20274  -2.19810  -2.19368  -2.19120  -1.14299
  Beta  occ. eigenvalues --   -1.14295  -1.14274  -1.14266  -1.14244  -1.14230
  Beta  occ. eigenvalues --   -1.14126  -1.14122  -1.14091  -1.13959  -1.13929
  Beta  occ. eigenvalues --   -1.13876  -1.13526  -1.13494  -1.13456  -1.13111
  Beta  occ. eigenvalues --   -1.13019  -1.12998  -1.12823  -1.12757  -1.12718
  Beta  occ. eigenvalues --   -0.17515  -0.13906  -0.10954
  Beta virt. eigenvalues --   -0.07279  -0.07044  -0.05654  -0.03661  -0.03076
  Beta virt. eigenvalues --   -0.02831  -0.01937  -0.01521  -0.01475  -0.00582
  Beta virt. eigenvalues --   -0.00384   0.00033   0.00196   0.00424   0.00616

 Mulliken charges and spin densities:
               1          2
     1  Na   0.311249   0.294778
     2  Na   0.191647   0.250945
     3  Na   0.487735   0.179804
     4  Na  -0.010932   0.058218
     5  Na  -0.088046   0.291974
     6  Na  -0.316516  -0.019108
     7  Na  -0.575137  -0.056611
 Sum of Mulliken charges =  -0.00000   1.00000

 Dipole moment (field-independent basis, Debye):
    X=              0.6779    Y=             -0.7641    Z=              0.5431  Tot=              1.1569
 Quadrupole moment (field-independent basis, Debye-Ang):
   XX=            -54.1289   YY=            -76.9464   ZZ=            -67.6693
   XY=              0.9845   XZ=             -2.3938   YZ=             -4.1554

 Normal termination of Gaussian 16 at Fri Dec  8 03:04:11 2023.
