 Gaussian 16, Revision B.01,
 Gaussian 16:  ES64L-G16RevB.01 20-Dec-2017

 -------------------------
 #P B3LYP/6-311+g(d) force
 -------------------------

 -----
 DPGEN
 -----
 Symbolic Z-matrix:
 Charge =  0 Multiplicity = 2

                         Standard orientation:
 ---------------------------------------------------------------------
 Center     Atomic      Atomic             Coordinates (Angstroms)
 Number     Number       Type             X           Y           Z
 ---------------------------------------------------------------------
      1         11           0       -0.127722    1.988948   -1.106193
      2         11           0        0.163406   -0.898520   -1.440539
      3         11           0        3.832533   -1.402870   -0.482049
      4         11           0        2.484129    1.386120    0.867583
      5         11           0       -0.037320   -0.412931    2.119894
      6         11           0       -3.232625   -1.877199    0.047805
      7         11           0       -3.082401    1.216452   -0.006501
 ---------------------------------------------------------------------

 SCF Done:  E(UB3LYP) =  -1136.11250770     A.U. after   32 cycles

 The electronic state is 2-A.
 Alpha  occ. eigenvalues --  -38.45145 -38.44937 -38.44929 -38.44522 -38.44365
 Alpha  occ. eigenvalues --  -38.43695 -38.42101  -2.20991  -2.20826  -2.20761
 Alpha  occ. eigenvalues --   -2.20305  -2.20239  -2.19515  -2.18050  -1.14668
 Alpha  occ. eigenvalues --   -1.14653  -1.14646  -1.14552  -1.14506  -1.14433
 Alpha  occ. eigenvalues --   -1.14400  -1.14395  -1.14373  -1.13989  -1.13959
 Alpha  occ. eigenvalues --   -1.13938  -1.13921  -1.13893  -1.13850  -1.13208
 Alpha  occ. eigenvalues --   -1.13168  -1.13148  -1.11778  -1.11685  -1.11664
 Alpha  occ. eigenvalues --   -0.18433  -0.14058  -0.11312  -0.11010
 Alpha virt. eigenvalues --   -0.07316  -0.05702  -0.03957  -0.03267  -0.03018
 Alpha virt. eigenvalues --   -0.02520  -0.02434  -0.01626  -0.00479  -0.00419
 Alpha virt. eigenvalues --    0.00021   0.00182   0.00348   0.00535   0.00634

  Beta  occ. eigenvalues --  -38.45153 -38.44881 -38.44841 -38.44495 -38.44340
  Beta  occ. eigenvalues --  -38.43699 -38.42082  -2.21007  -2.20725  -2.20600
  Beta  occ. eigenvalues --   -2.20255  -2.20198  -2.19523  -2.18018  -1.14681
  Beta  occ. eigenvalues --   -1.14661  -1.14651  -1.14480  -1.14422  -1.14328
  Beta  occ. eigenvalues --   -1.14328  -1.14281  -1.14252  -1.13957  -1.13919
  Beta  occ. eigenvalues --   -1.13905  -1.13878  -1.13857  -1.13819  -1.13215
  Beta  occ. eigenvalues --   -1.13168  -1.13153  -1.11747  -1.11670  -1.11625
  Beta  occ. eigenvalues --   -0.17728  -0.13818  -0.10856
  Beta virt. eigenvalues --   -0.07343  -0.07148  -0.05584  -0.03375  -0.03087
  Beta virt. eigenvalues --   -0.02669  -0.01919  -0.01832  -0.01372  -0.00428
  Beta virt. eigenvalues --   -0.00238   0.00073   0.00203   0.00521   0.00615

 Mulliken charges and spin densities:
               1          2
     1  Na   0.225367  -0.010244
     2  Na  -0.726224   0.387376
     3  Na  -0.011184   0.047017
     4  Na   0.436785   0.186619
     5  Na  -0.286277   0.437314
     6  Na   0.409862  -0.021839
     7  Na  -0.048328  -0.026243
 Sum of Mulliken charges =  -0.00000   1.00000

 Dipole moment (field-independent basis, Debye):
    X=             -0.0378    Y=              0.1702    Z=              0.3846  Tot=              0.4223
 Quadrupole moment (field-independent basis, Debye-Ang):
   XX=            -52.4987   YY=            -72.2582   ZZ=            -72.6030
   XY=             -0.6278   XZ=              0.3330   YZ=              2.9335

 Normal termination of Gaussian 16 at Tue Dec  5 21:47:23 2023.
