 Gaussian 16, Revision B.01,
 Gaussian 16:  ES64L-G16RevB.01 20-Dec-2017

 -------------------------
 #P B3LYP/6-311+g(d) force
 -------------------------

 -----
 DPGEN
 -----
 Symbolic Z-matrix:
 Charge =  0 Multiplicity = 2

                         Standard orientation:
 ---------------------------------------------------------------------
 Center     Atomic      Atomic             Coordinates (Angstroms)
 Number     Number       Type             X           Y           Z
 ---------------------------------------------------------------------
      1         11           0       -3.050478   -1.127617   -0.019512
      2         11           0        1.572044    2.137319    0.134025
      3         11           0        0.529257   -0.054615   -1.814384
      4         11           0       -1.912293    2.233766   -0.318064
      5         11           0        2.954781   -0.721112    0.169896
      6         11           0       -0.219415    0.165828    1.890545
      7         11           0        0.126102   -2.633569   -0.042505
 ---------------------------------------------------------------------

 SCF Done:  E(UB3LYP) =  -1136.13621484     A.U. after   20 cycles

 The electronic state is 2-A.
 Alpha  occ. eigenvalues --  -38.44129 -38.43904 -38.43490 -38.43450 -38.43435
 Alpha  occ. eigenvalues --  -38.43153 -38.43003  -2.19935  -2.19811  -2.19434
 Alpha  occ. eigenvalues --   -2.19404  -2.19334  -2.19109  -2.18904  -1.13608
 Alpha  occ. eigenvalues --   -1.13589  -1.13585  -1.13515  -1.13467  -1.13455
 Alpha  occ. eigenvalues --   -1.13138  -1.13107  -1.13093  -1.13051  -1.13042
 Alpha  occ. eigenvalues --   -1.13033  -1.12997  -1.12979  -1.12970  -1.12780
 Alpha  occ. eigenvalues --   -1.12763  -1.12717  -1.12597  -1.12572  -1.12513
 Alpha  occ. eigenvalues --   -0.19171  -0.13235  -0.12436  -0.10966
 Alpha virt. eigenvalues --   -0.05726  -0.05106  -0.04279  -0.03328  -0.02912
 Alpha virt. eigenvalues --   -0.02574  -0.01570  -0.00966  -0.00130  -0.00064
 Alpha virt. eigenvalues --   -0.00020   0.00357   0.00808   0.00922   0.00946

  Beta  occ. eigenvalues --  -38.44131 -38.43897 -38.43484 -38.43367 -38.43357
  Beta  occ. eigenvalues --  -38.43140 -38.42995  -2.19940  -2.19802  -2.19326
  Beta  occ. eigenvalues --   -2.19290  -2.19253  -2.19092  -2.18893  -1.13596
  Beta  occ. eigenvalues --   -1.13593  -1.13591  -1.13509  -1.13457  -1.13425
  Beta  occ. eigenvalues --   -1.13057  -1.13012  -1.13006  -1.12986  -1.12978
  Beta  occ. eigenvalues --   -1.12969  -1.12938  -1.12926  -1.12896  -1.12764
  Beta  occ. eigenvalues --   -1.12713  -1.12701  -1.12589  -1.12534  -1.12510
  Beta  occ. eigenvalues --   -0.18403  -0.13016  -0.12162
  Beta virt. eigenvalues --   -0.07004  -0.05672  -0.05096  -0.04270  -0.02543
  Beta virt. eigenvalues --   -0.02092  -0.01552  -0.01453  -0.00911  -0.00158
  Beta virt. eigenvalues --   -0.00121   0.00115   0.00379   0.00863   0.00912

 Mulliken charges and spin densities:
               1          2
     1  Na  -0.053578  -0.109241
     2  Na   0.423682   0.009858
     3  Na  -0.445383   0.665647
     4  Na   0.017176  -0.088724
     5  Na   0.386870  -0.004192
     6  Na  -0.462440   0.649950
     7  Na   0.133673  -0.123299
 Sum of Mulliken charges =  -0.00000   1.00000

 Dipole moment (field-independent basis, Debye):
    X=             -0.2351    Y=             -0.0677    Z=              0.0456  Tot=              0.2488
 Quadrupole moment (field-independent basis, Debye-Ang):
   XX=            -54.9043   YY=            -65.9957   ZZ=            -72.9473
   XY=             -0.3957   XZ=              1.5664   YZ=             -0.6640

 Normal termination of Gaussian 16 at Tue Dec  5 21:14:36 2023.
