 Gaussian 16, Revision B.01,
 Gaussian 16:  ES64L-G16RevB.01 20-Dec-2017

 -------------------------
 #P B3LYP/6-311+g(d) force
 -------------------------

 -----
 DPGEN
 -----
 Symbolic Z-matrix:
 Charge =  0 Multiplicity = 2

                         Standard orientation:
 ---------------------------------------------------------------------
 Center     Atomic      Atomic             Coordinates (Angstroms)
 Number     Number       Type             X           Y           Z
 ---------------------------------------------------------------------
      1         11           0        0.663156   -0.726664    1.541193
      2         11           0        3.585655   -0.297079    0.767146
      3         11           0       -0.731292    4.078966   -0.002649
      4         11           0       -0.110618    1.208691   -0.789097
      5         11           0        1.832591   -1.326860   -1.382791
      6         11           0       -1.282581   -1.692511   -0.694509
      7         11           0       -3.956910   -1.244542    0.560708
 ---------------------------------------------------------------------

 SCF Done:  E(UB3LYP) =  -1136.10353768     A.U. after   26 cycles

 The electronic state is 2-A.
 Alpha  occ. eigenvalues --  -38.45496 -38.44936 -38.44777 -38.44175 -38.43285
 Alpha  occ. eigenvalues --  -38.43061 -38.42597  -2.21475  -2.20747  -2.20684
 Alpha  occ. eigenvalues --   -2.20201  -2.19308  -2.18857  -2.18599  -1.15195
 Alpha  occ. eigenvalues --   -1.15132  -1.15103  -1.14438  -1.14398  -1.14379
 Alpha  occ. eigenvalues --   -1.14370  -1.14335  -1.14291  -1.13878  -1.13842
 Alpha  occ. eigenvalues --   -1.13808  -1.13022  -1.12965  -1.12938  -1.12579
 Alpha  occ. eigenvalues --   -1.12507  -1.12504  -1.12295  -1.12224  -1.12214
 Alpha  occ. eigenvalues --   -0.19305  -0.13787  -0.11675  -0.11254
 Alpha virt. eigenvalues --   -0.07212  -0.05368  -0.04012  -0.03138  -0.02770
 Alpha virt. eigenvalues --   -0.02445  -0.01974  -0.01273  -0.00845  -0.00128
 Alpha virt. eigenvalues --   -0.00053   0.00038   0.00449   0.00652   0.00701

  Beta  occ. eigenvalues --  -38.45461 -38.44899 -38.44740 -38.44117 -38.43256
  Beta  occ. eigenvalues --  -38.43067 -38.42573  -2.21413  -2.20676  -2.20617
  Beta  occ. eigenvalues --   -2.20102  -2.19265  -2.18868  -2.18558  -1.15137
  Beta  occ. eigenvalues --   -1.15080  -1.15059  -1.14394  -1.14358  -1.14329
  Beta  occ. eigenvalues --   -1.14321  -1.14273  -1.14245  -1.13802  -1.13780
  Beta  occ. eigenvalues --   -1.13710  -1.12996  -1.12944  -1.12841  -1.12580
  Beta  occ. eigenvalues --   -1.12514  -1.12510  -1.12275  -1.12206  -1.12150
  Beta  occ. eigenvalues --   -0.18524  -0.13371  -0.11626
  Beta virt. eigenvalues --   -0.07352  -0.06863  -0.05167  -0.03492  -0.03028
  Beta virt. eigenvalues --   -0.02483  -0.01773  -0.01665  -0.00978  -0.00556
  Beta virt. eigenvalues --   -0.00119   0.00025   0.00273   0.00595   0.00721

 Mulliken charges and spin densities:
               1          2
     1  Na  -0.720870   0.502537
     2  Na   0.517752   0.108322
     3  Na  -0.053188  -0.129648
     4  Na  -1.098312   0.350523
     5  Na   1.119154  -0.178808
     6  Na   0.142027   0.139417
     7  Na   0.093437   0.207657
 Sum of Mulliken charges =  -0.00000   1.00000

 Dipole moment (field-independent basis, Debye):
    X=              0.4816    Y=             -0.8750    Z=              0.3794  Tot=              1.0684
 Quadrupole moment (field-independent basis, Debye-Ang):
   XX=            -52.3259   YY=            -72.0721   ZZ=            -69.9324
   XY=             -0.6794   XZ=             -3.2763   YZ=              2.6580

 Normal termination of Gaussian 16 at Fri Dec  8 19:04:00 2023.
