 Gaussian 16, Revision B.01,
 Gaussian 16:  ES64L-G16RevB.01 20-Dec-2017

 -------------------------
 #P B3LYP/6-311+g(d) force
 -------------------------

 -----
 DPGEN
 -----
 Symbolic Z-matrix:
 Charge =  0 Multiplicity = 2

                         Standard orientation:
 ---------------------------------------------------------------------
 Center     Atomic      Atomic             Coordinates (Angstroms)
 Number     Number       Type             X           Y           Z
 ---------------------------------------------------------------------
      1         11           0       -2.774316   -1.602086    0.349885
      2         11           0       -5.691847   -0.358010    0.627141
      3         11           0       -3.797641    1.929969    0.437618
      4         11           0        0.223748    1.361689   -1.130281
      5         11           0        0.493455   -1.650110   -1.046216
      6         11           0        4.474684    0.345084   -0.609721
      7         11           0        7.071918   -0.026536    1.371575
 ---------------------------------------------------------------------

 SCF Done:  E(UB3LYP) =  -1136.11223122     A.U. after   19 cycles

 The electronic state is 2-A.
 Alpha  occ. eigenvalues --  -38.44851 -38.44838 -38.44552 -38.44516 -38.44333
 Alpha  occ. eigenvalues --  -38.43736 -38.43726  -2.20717  -2.20697  -2.20376
 Alpha  occ. eigenvalues --   -2.20369  -2.20170  -2.19497  -2.19491  -1.14517
 Alpha  occ. eigenvalues --   -1.14392  -1.14368  -1.14337  -1.14331  -1.14233
 Alpha  occ. eigenvalues --   -1.14100  -1.14051  -1.14029  -1.14027  -1.13997
 Alpha  occ. eigenvalues --   -1.13983  -1.13826  -1.13805  -1.13791  -1.13189
 Alpha  occ. eigenvalues --   -1.13178  -1.13166  -1.13159  -1.13156  -1.13066
 Alpha  occ. eigenvalues --   -0.16946  -0.14182  -0.12037  -0.11027
 Alpha virt. eigenvalues --   -0.06921  -0.05697  -0.04698  -0.03815  -0.03049
 Alpha virt. eigenvalues --   -0.02613  -0.02168  -0.01630  -0.01086  -0.00861
 Alpha virt. eigenvalues --   -0.00523  -0.00285   0.00044   0.00125   0.00535

  Beta  occ. eigenvalues --  -38.44834 -38.44794 -38.44517 -38.44447 -38.44321
  Beta  occ. eigenvalues --  -38.43740 -38.43723  -2.20706  -2.20595  -2.20303
  Beta  occ. eigenvalues --   -2.20250  -2.20149  -2.19505  -2.19487  -1.14483
  Beta  occ. eigenvalues --   -1.14365  -1.14352  -1.14277  -1.14264  -1.14181
  Beta  occ. eigenvalues --   -1.14062  -1.13985  -1.13967  -1.13949  -1.13935
  Beta  occ. eigenvalues --   -1.13892  -1.13813  -1.13786  -1.13756  -1.13190
  Beta  occ. eigenvalues --   -1.13176  -1.13169  -1.13162  -1.13156  -1.13067
  Beta  occ. eigenvalues --   -0.16261  -0.14095  -0.11927
  Beta virt. eigenvalues --   -0.07366  -0.06538  -0.04882  -0.04549  -0.03672
  Beta virt. eigenvalues --   -0.02611  -0.02337  -0.01900  -0.01538  -0.00991
  Beta virt. eigenvalues --   -0.00473  -0.00230   0.00077   0.00108   0.00359

 Mulliken charges and spin densities:
               1          2
     1  Na  -0.418742   0.446392
     2  Na   0.589966  -0.020531
     3  Na  -0.192807   0.272634
     4  Na  -0.090080   0.279127
     5  Na   0.095254   0.040337
     6  Na  -0.393292  -0.000192
     7  Na   0.409701  -0.017767
 Sum of Mulliken charges =  -0.00000   1.00000

 Dipole moment (field-independent basis, Debye):
    X=             -2.5838    Y=             -0.1571    Z=              0.1627  Tot=              2.5936
 Quadrupole moment (field-independent basis, Debye-Ang):
   XX=            -58.4255   YY=            -70.1686   ZZ=            -70.0459
   XY=             -1.3080   XZ=              1.1795   YZ=             -0.1754

 Normal termination of Gaussian 16 at Tue Nov 28 22:29:53 2023.
