 Gaussian 16, Revision B.01,
 Gaussian 16:  ES64L-G16RevB.01 20-Dec-2017

 -------------------------
 #P B3LYP/6-311+g(d) force
 -------------------------

 -----
 DPGEN
 -----
 Symbolic Z-matrix:
 Charge =  0 Multiplicity = 2

                         Standard orientation:
 ---------------------------------------------------------------------
 Center     Atomic      Atomic             Coordinates (Angstroms)
 Number     Number       Type             X           Y           Z
 ---------------------------------------------------------------------
      1         11           0        3.049044   -0.350892   -0.246821
      2         11           0        1.527870    2.458560    0.202235
      3         11           0       -2.712170   -1.249296   -0.495132
      4         11           0        0.271958   -0.432308   -1.690993
      5         11           0       -2.070264    2.115432   -0.217227
      6         11           0        0.607214   -2.568409    0.593283
      7         11           0       -0.673652    0.026913    1.854655
 ---------------------------------------------------------------------

 SCF Done:  E(UB3LYP) =  -1136.13642857     A.U. after   19 cycles

 The electronic state is 2-A.
 Alpha  occ. eigenvalues --  -38.43874 -38.43825 -38.43603 -38.43365 -38.43354
 Alpha  occ. eigenvalues --  -38.43342 -38.43184  -2.19753  -2.19714  -2.19460
 Alpha  occ. eigenvalues --   -2.19341  -2.19335  -2.19199  -2.19107  -1.13444
 Alpha  occ. eigenvalues --   -1.13427  -1.13421  -1.13380  -1.13372  -1.13355
 Alpha  occ. eigenvalues --   -1.13166  -1.13126  -1.13089  -1.13058  -1.13014
 Alpha  occ. eigenvalues --   -1.12973  -1.12964  -1.12962  -1.12952  -1.12871
 Alpha  occ. eigenvalues --   -1.12862  -1.12834  -1.12773  -1.12751  -1.12712
 Alpha  occ. eigenvalues --   -0.19079  -0.13354  -0.12437  -0.10971
 Alpha virt. eigenvalues --   -0.05457  -0.05225  -0.04445  -0.03373  -0.02939
 Alpha virt. eigenvalues --   -0.02525  -0.01449  -0.00973  -0.00245  -0.00088
 Alpha virt. eigenvalues --    0.00053   0.00369   0.00835   0.00910   0.00919

  Beta  occ. eigenvalues --  -38.43858 -38.43821 -38.43598 -38.43352 -38.43283
  Beta  occ. eigenvalues --  -38.43277 -38.43164  -2.19726  -2.19709  -2.19454
  Beta  occ. eigenvalues --   -2.19223  -2.19199  -2.19185  -2.19074  -1.13423
  Beta  occ. eigenvalues --   -1.13415  -1.13384  -1.13368  -1.13359  -1.13342
  Beta  occ. eigenvalues --   -1.13151  -1.13110  -1.13079  -1.12984  -1.12921
  Beta  occ. eigenvalues --   -1.12899  -1.12878  -1.12871  -1.12860  -1.12849
  Beta  occ. eigenvalues --   -1.12846  -1.12824  -1.12739  -1.12698  -1.12688
  Beta  occ. eigenvalues --   -0.18356  -0.13104  -0.12187
  Beta virt. eigenvalues --   -0.07013  -0.05397  -0.05209  -0.04390  -0.02623
  Beta virt. eigenvalues --   -0.02179  -0.01488  -0.01326  -0.00918  -0.00223
  Beta virt. eigenvalues --   -0.00109   0.00146   0.00410   0.00892   0.00922

 Mulliken charges and spin densities:
               1          2
     1  Na   0.228810   0.000416
     2  Na  -0.141520  -0.102298
     3  Na   0.231340   0.014666
     4  Na  -0.242479   0.532011
     5  Na  -0.054955  -0.036061
     6  Na   0.179911  -0.013294
     7  Na  -0.201106   0.604561
 Sum of Mulliken charges =  -0.00000   1.00000

 Dipole moment (field-independent basis, Debye):
    X=             -0.1657    Y=             -0.0137    Z=             -0.0406  Tot=              0.1711
 Quadrupole moment (field-independent basis, Debye-Ang):
   XX=            -56.6671   YY=            -64.5181   ZZ=            -73.0318
   XY=             -0.1104   XZ=              1.6782   YZ=             -0.6520

 Normal termination of Gaussian 16 at Fri Dec  8 02:40:43 2023.
