 Gaussian 16, Revision B.01,
 Gaussian 16:  ES64L-G16RevB.01 20-Dec-2017

 -------------------------
 #P B3LYP/6-311+g(d) force
 -------------------------

 -----
 DPGEN
 -----
 Symbolic Z-matrix:
 Charge =  0 Multiplicity = 2

                         Standard orientation:
 ---------------------------------------------------------------------
 Center     Atomic      Atomic             Coordinates (Angstroms)
 Number     Number       Type             X           Y           Z
 ---------------------------------------------------------------------
      1         11           0        1.730361   -2.038482    0.246433
      2         11           0        2.072285    1.560982   -0.097650
      3         11           0       -1.564650    0.784120   -1.024938
      4         11           0       -1.739334   -2.128395    0.973908
      5         11           0       -4.396831   -0.643831   -0.540723
      6         11           0       -0.557438    3.191510    0.894655
      7         11           0        4.455607   -0.725905   -0.451685
 ---------------------------------------------------------------------

 SCF Done:  E(UB3LYP) =  -1136.12845267     A.U. after   19 cycles

 The electronic state is 2-A.
 Alpha  occ. eigenvalues --  -38.44246 -38.43913 -38.43798 -38.43651 -38.43640
 Alpha  occ. eigenvalues --  -38.43555 -38.43530  -2.20130  -2.19782  -2.19643
 Alpha  occ. eigenvalues --   -2.19509  -2.19507  -2.19403  -2.19395  -1.13842
 Alpha  occ. eigenvalues --   -1.13817  -1.13748  -1.13488  -1.13476  -1.13401
 Alpha  occ. eigenvalues --   -1.13320  -1.13313  -1.13276  -1.13202  -1.13184
 Alpha  occ. eigenvalues --   -1.13178  -1.13167  -1.13147  -1.13114  -1.13065
 Alpha  occ. eigenvalues --   -1.13048  -1.13043  -1.13036  -1.13022  -1.12989
 Alpha  occ. eigenvalues --   -0.17264  -0.14322  -0.12653  -0.10586
 Alpha virt. eigenvalues --   -0.05938  -0.05432  -0.04209  -0.03839  -0.02753
 Alpha virt. eigenvalues --   -0.02442  -0.01820  -0.01189  -0.00808  -0.00517
 Alpha virt. eigenvalues --   -0.00294  -0.00017   0.00557   0.00622   0.00778

  Beta  occ. eigenvalues --  -38.44236 -38.43904 -38.43756 -38.43606 -38.43590
  Beta  occ. eigenvalues --  -38.43555 -38.43486  -2.20114  -2.19768  -2.19572
  Beta  occ. eigenvalues --   -2.19451  -2.19396  -2.19395  -2.19321  -1.13833
  Beta  occ. eigenvalues --   -1.13790  -1.13729  -1.13482  -1.13462  -1.13377
  Beta  occ. eigenvalues --   -1.13272  -1.13268  -1.13195  -1.13153  -1.13146
  Beta  occ. eigenvalues --   -1.13128  -1.13083  -1.13068  -1.13065  -1.13045
  Beta  occ. eigenvalues --   -1.13044  -1.13024  -1.12981  -1.12979  -1.12931
  Beta  occ. eigenvalues --   -0.16751  -0.13829  -0.12283
  Beta virt. eigenvalues --   -0.06876  -0.05810  -0.05371  -0.03645  -0.03545
  Beta virt. eigenvalues --   -0.02490  -0.02170  -0.01460  -0.00864  -0.00706
  Beta virt. eigenvalues --   -0.00193  -0.00094   0.00238   0.00698   0.00744

 Mulliken charges and spin densities:
               1          2
     1  Na  -0.436535   0.197167
     2  Na  -0.679702   0.085189
     3  Na  -0.303035   0.101275
     4  Na  -0.065268  -0.034625
     5  Na   0.388106   0.275617
     6  Na   0.453073   0.079002
     7  Na   0.643362   0.296375
 Sum of Mulliken charges =  -0.00000   1.00000

 Dipole moment (field-independent basis, Debye):
    X=             -0.1892    Y=              0.3393    Z=              0.3984  Tot=              0.5565
 Quadrupole moment (field-independent basis, Debye-Ang):
   XX=            -61.8100   YY=            -68.0331   ZZ=            -68.0556
   XY=             -0.4907   XZ=             -2.7916   YZ=              1.5344

 Normal termination of Gaussian 16 at Tue Nov 28 20:11:49 2023.
