 Gaussian 16, Revision B.01,
 Gaussian 16:  ES64L-G16RevB.01 20-Dec-2017

 -------------------------
 #P B3LYP/6-311+g(d) force
 -------------------------

 -----
 DPGEN
 -----
 Symbolic Z-matrix:
 Charge =  0 Multiplicity = 2

                         Standard orientation:
 ---------------------------------------------------------------------
 Center     Atomic      Atomic             Coordinates (Angstroms)
 Number     Number       Type             X           Y           Z
 ---------------------------------------------------------------------
      1         11           0        0.313128    0.229701   -1.756236
      2         11           0       -0.199638   -2.308322    0.190641
      3         11           0        2.609094   -0.948765   -0.189023
      4         11           0        1.631016    1.835521    0.377094
      5         11           0       -1.499045    2.001080   -0.115094
      6         11           0       -0.334995   -0.041317    1.855898
      7         11           0       -2.519559   -0.767898   -0.363279
 ---------------------------------------------------------------------

 SCF Done:  E(UB3LYP) =  -1136.11167239     A.U. after   19 cycles

 The electronic state is 2-A.
 Alpha  occ. eigenvalues --  -38.43907 -38.43717 -38.43651 -38.43622 -38.43305
 Alpha  occ. eigenvalues --  -38.43135 -38.43115  -2.20033  -2.19796  -2.19755
 Alpha  occ. eigenvalues --   -2.19601  -2.19344  -2.19186  -2.19178  -1.13808
 Alpha  occ. eigenvalues --   -1.13716  -1.13652  -1.13559  -1.13529  -1.13511
 Alpha  occ. eigenvalues --   -1.13462  -1.13404  -1.13353  -1.13298  -1.13246
 Alpha  occ. eigenvalues --   -1.13223  -1.13022  -1.12983  -1.12946  -1.12853
 Alpha  occ. eigenvalues --   -1.12845  -1.12820  -1.12806  -1.12776  -1.12755
 Alpha  occ. eigenvalues --   -0.20809  -0.13666  -0.12807  -0.11914
 Alpha virt. eigenvalues --   -0.05152  -0.04561  -0.04101  -0.03639  -0.03161
 Alpha virt. eigenvalues --   -0.02888  -0.01107  -0.00625  -0.00083   0.00337
 Alpha virt. eigenvalues --    0.00576   0.00637   0.00982   0.01084   0.01090

  Beta  occ. eigenvalues --  -38.43814 -38.43704 -38.43616 -38.43570 -38.43291
  Beta  occ. eigenvalues --  -38.43123 -38.43102  -2.19864  -2.19737  -2.19649
  Beta  occ. eigenvalues --   -2.19592  -2.19323  -2.19168  -2.19163  -1.13708
  Beta  occ. eigenvalues --   -1.13602  -1.13551  -1.13499  -1.13482  -1.13451
  Beta  occ. eigenvalues --   -1.13394  -1.13341  -1.13298  -1.13273  -1.13229
  Beta  occ. eigenvalues --   -1.13174  -1.13004  -1.12940  -1.12922  -1.12837
  Beta  occ. eigenvalues --   -1.12834  -1.12777  -1.12767  -1.12746  -1.12742
  Beta  occ. eigenvalues --   -0.20001  -0.13351  -0.12474
  Beta virt. eigenvalues --   -0.07783  -0.05143  -0.04555  -0.04104  -0.02747
  Beta virt. eigenvalues --   -0.02271  -0.01761  -0.01029  -0.00578   0.00064
  Beta virt. eigenvalues --    0.00351   0.00546   0.00598   0.01032   0.01072

 Mulliken charges and spin densities:
               1          2
     1  Na  -1.189127   0.423104
     2  Na   0.847809   0.103505
     3  Na   0.156993  -0.031736
     4  Na   0.627789   0.059266
     5  Na   0.605273   0.019182
     6  Na  -1.202666   0.414894
     7  Na   0.153930   0.011785
 Sum of Mulliken charges =  -0.00000   1.00000

 Dipole moment (field-independent basis, Debye):
    X=              0.1173    Y=              0.0468    Z=             -0.0075  Tot=              0.1265
 Quadrupole moment (field-independent basis, Debye-Ang):
   XX=            -59.6598   YY=            -67.8705   ZZ=            -69.2682
   XY=             -0.4752   XZ=              1.1860   YZ=              0.7568

 Normal termination of Gaussian 16 at Thu Dec  7 02:22:52 2023.
