 Gaussian 16, Revision B.01,
 Gaussian 16:  ES64L-G16RevB.01 20-Dec-2017

 -------------------------
 #P B3LYP/6-311+g(d) force
 -------------------------

 -----
 DPGEN
 -----
 Symbolic Z-matrix:
 Charge =  0 Multiplicity = 2

                         Standard orientation:
 ---------------------------------------------------------------------
 Center     Atomic      Atomic             Coordinates (Angstroms)
 Number     Number       Type             X           Y           Z
 ---------------------------------------------------------------------
      1         11           0       -0.684746   -2.769799    0.051033
      2         11           0       -0.169647   -0.412915    1.949354
      3         11           0       -3.225158   -0.088684   -0.316193
      4         11           0        2.393808    2.034456   -0.029296
      5         11           0       -1.033790    2.815913    0.272817
      6         11           0        0.009029   -0.025207   -1.822382
      7         11           0        2.710504   -1.553765   -0.105334
 ---------------------------------------------------------------------

 SCF Done:  E(UB3LYP) =  -1136.13926757     A.U. after   19 cycles

 The electronic state is 2-A.
 Alpha  occ. eigenvalues --  -38.44006 -38.43823 -38.43686 -38.43565 -38.43549
 Alpha  occ. eigenvalues --  -38.43480 -38.43430  -2.19813  -2.19646  -2.19496
 Alpha  occ. eigenvalues --   -2.19477  -2.19369  -2.19365  -2.19349  -1.13488
 Alpha  occ. eigenvalues --   -1.13467  -1.13457  -1.13323  -1.13314  -1.13287
 Alpha  occ. eigenvalues --   -1.13231  -1.13173  -1.13162  -1.13139  -1.13123
 Alpha  occ. eigenvalues --   -1.13084  -1.13063  -1.13041  -1.13036  -1.13011
 Alpha  occ. eigenvalues --   -1.13003  -1.12996  -1.12972  -1.12968  -1.12961
 Alpha  occ. eigenvalues --   -0.18470  -0.12747  -0.12600  -0.10729
 Alpha virt. eigenvalues --   -0.05552  -0.05246  -0.04858  -0.03065  -0.03038
 Alpha virt. eigenvalues --   -0.02569  -0.01528  -0.01134  -0.00444  -0.00421
 Alpha virt. eigenvalues --   -0.00020   0.00364   0.00807   0.00864   0.00883

  Beta  occ. eigenvalues --  -38.43999 -38.43819 -38.43686 -38.43544 -38.43479
  Beta  occ. eigenvalues --  -38.43470 -38.43356  -2.19804  -2.19643  -2.19498
  Beta  occ. eigenvalues --   -2.19359  -2.19357  -2.19317  -2.19214  -1.13468
  Beta  occ. eigenvalues --   -1.13455  -1.13455  -1.13314  -1.13302  -1.13282
  Beta  occ. eigenvalues --   -1.13167  -1.13161  -1.13155  -1.13140  -1.13037
  Beta  occ. eigenvalues --   -1.13024  -1.13016  -1.13004  -1.12994  -1.12981
  Beta  occ. eigenvalues --   -1.12959  -1.12934  -1.12931  -1.12880  -1.12862
  Beta  occ. eigenvalues --   -0.17736  -0.12525  -0.12360
  Beta virt. eigenvalues --   -0.06843  -0.05517  -0.05265  -0.04753  -0.02323
  Beta virt. eigenvalues --   -0.02247  -0.01536  -0.01430  -0.01066  -0.00492
  Beta virt. eigenvalues --   -0.00477   0.00116   0.00385   0.00851   0.00864

 Mulliken charges and spin densities:
               1          2
     1  Na   0.398470  -0.079983
     2  Na  -0.297961   0.734435
     3  Na   0.090849  -0.062767
     4  Na  -0.056812  -0.105133
     5  Na  -0.054828  -0.075233
     6  Na  -0.172769   0.704938
     7  Na   0.093052  -0.116257
 Sum of Mulliken charges =  -0.00000   1.00000

 Dipole moment (field-independent basis, Debye):
    X=             -0.0488    Y=             -0.0598    Z=             -0.0109  Tot=              0.0780
 Quadrupole moment (field-independent basis, Debye-Ang):
   XX=            -56.8991   YY=            -62.3497   ZZ=            -74.3361
   XY=             -0.3299   XZ=              0.4771   YZ=              0.9556

 Normal termination of Gaussian 16 at Thu Dec  7 20:35:23 2023.
