 Gaussian 16, Revision B.01,
 Gaussian 16:  ES64L-G16RevB.01 20-Dec-2017

 -------------------------
 #P B3LYP/6-311+g(d) force
 -------------------------

 -----
 DPGEN
 -----
 Symbolic Z-matrix:
 Charge =  0 Multiplicity = 2

                         Standard orientation:
 ---------------------------------------------------------------------
 Center     Atomic      Atomic             Coordinates (Angstroms)
 Number     Number       Type             X           Y           Z
 ---------------------------------------------------------------------
      1         11           0       -1.796269   -2.282064    0.038997
      2         11           0        0.145198    0.199446   -1.501996
      3         11           0        0.027853    2.986174    0.235775
      4         11           0       -3.117823    0.938178   -0.422355
      5         11           0       -0.147570   -0.534148    2.070441
      6         11           0        2.992313    1.016857    0.062369
      7         11           0        1.896299   -2.324442   -0.483230
 ---------------------------------------------------------------------

 SCF Done:  E(UB3LYP) =  -1136.13779135     A.U. after   20 cycles

 The electronic state is 2-A.
 Alpha  occ. eigenvalues --  -38.43987 -38.43981 -38.43586 -38.43553 -38.43539
 Alpha  occ. eigenvalues --  -38.43508 -38.43029  -2.19816  -2.19788  -2.19479
 Alpha  occ. eigenvalues --   -2.19427  -2.19392  -2.19335  -2.19028  -1.13500
 Alpha  occ. eigenvalues --   -1.13479  -1.13465  -1.13453  -1.13440  -1.13431
 Alpha  occ. eigenvalues --   -1.13223  -1.13126  -1.13101  -1.13093  -1.13086
 Alpha  occ. eigenvalues --   -1.13051  -1.13043  -1.13040  -1.13033  -1.13010
 Alpha  occ. eigenvalues --   -1.13000  -1.12959  -1.12715  -1.12666  -1.12648
 Alpha  occ. eigenvalues --   -0.18555  -0.12982  -0.12508  -0.10636
 Alpha virt. eigenvalues --   -0.05590  -0.05244  -0.04789  -0.03135  -0.02893
 Alpha virt. eigenvalues --   -0.02416  -0.01565  -0.01175  -0.00463  -0.00378
 Alpha virt. eigenvalues --   -0.00007   0.00342   0.00796   0.00864   0.00870

  Beta  occ. eigenvalues --  -38.43985 -38.43972 -38.43546 -38.43526 -38.43504
  Beta  occ. eigenvalues --  -38.43490 -38.42976  -2.19816  -2.19773  -2.19419
  Beta  occ. eigenvalues --   -2.19370  -2.19330  -2.19301  -2.18934  -1.13495
  Beta  occ. eigenvalues --   -1.13472  -1.13448  -1.13443  -1.13428  -1.13423
  Beta  occ. eigenvalues --   -1.13164  -1.13079  -1.13063  -1.13046  -1.13029
  Beta  occ. eigenvalues --   -1.13024  -1.13004  -1.12995  -1.12984  -1.12964
  Beta  occ. eigenvalues --   -1.12955  -1.12950  -1.12647  -1.12598  -1.12576
  Beta  occ. eigenvalues --   -0.17859  -0.12730  -0.12266
  Beta virt. eigenvalues --   -0.06766  -0.05550  -0.05208  -0.04704  -0.02367
  Beta virt. eigenvalues --   -0.02184  -0.01469  -0.01387  -0.01100  -0.00489
  Beta virt. eigenvalues --   -0.00411   0.00143   0.00382   0.00862   0.00868

 Mulliken charges and spin densities:
               1          2
     1  Na   0.388997   0.021810
     2  Na  -0.234907   0.331608
     3  Na  -0.015128   0.005968
     4  Na   0.027504  -0.016283
     5  Na  -0.476405   0.691900
     6  Na   0.088471  -0.018262
     7  Na   0.221467  -0.016741
 Sum of Mulliken charges =  -0.00000   1.00000

 Dipole moment (field-independent basis, Debye):
    X=              0.0544    Y=              0.0671    Z=              0.1509  Tot=              0.1739
 Quadrupole moment (field-independent basis, Debye-Ang):
   XX=            -56.1588   YY=            -62.0074   ZZ=            -74.8052
   XY=             -0.2599   XZ=              0.9614   YZ=              1.7375

 Normal termination of Gaussian 16 at Sun Dec  3 22:49:58 2023.
