 Gaussian 16, Revision B.01,
 Gaussian 16:  ES64L-G16RevB.01 20-Dec-2017

 -------------------------
 #P B3LYP/6-311+g(d) force
 -------------------------

 -----
 DPGEN
 -----
 Symbolic Z-matrix:
 Charge =  0 Multiplicity = 2

                         Standard orientation:
 ---------------------------------------------------------------------
 Center     Atomic      Atomic             Coordinates (Angstroms)
 Number     Number       Type             X           Y           Z
 ---------------------------------------------------------------------
      1         11           0       -3.364103   -2.137972   -0.276724
      2         11           0        0.387985   -2.908847   -0.411947
      3         11           0       -1.956806    2.593934   -0.275759
      4         11           0        1.837612    3.226822   -0.436958
      5         11           0        3.643933   -2.375440    0.228546
      6         11           0       -4.542688    0.545659    0.705768
      7         11           0        3.994068    1.055844    0.467074
 ---------------------------------------------------------------------

 SCF Done:  E(UB3LYP) =  -1136.10637394     A.U. after   35 cycles

 The electronic state is 2-A.
 Alpha  occ. eigenvalues --  -38.45118 -38.45061 -38.44979 -38.44579 -38.44349
 Alpha  occ. eigenvalues --  -38.44140 -38.43745  -2.20943  -2.20840  -2.20789
 Alpha  occ. eigenvalues --   -2.20347  -2.20122  -2.19929  -2.19574  -1.14667
 Alpha  occ. eigenvalues --   -1.14600  -1.14590  -1.14513  -1.14505  -1.14494
 Alpha  occ. eigenvalues --   -1.14443  -1.14427  -1.14404  -1.14038  -1.14027
 Alpha  occ. eigenvalues --   -1.13997  -1.13788  -1.13780  -1.13752  -1.13590
 Alpha  occ. eigenvalues --   -1.13578  -1.13545  -1.13225  -1.13222  -1.13207
 Alpha  occ. eigenvalues --   -0.15865  -0.14470  -0.13039  -0.10487
 Alpha virt. eigenvalues --   -0.08157  -0.04791  -0.04526  -0.03770  -0.03437
 Alpha virt. eigenvalues --   -0.02574  -0.02276  -0.01777  -0.01008  -0.00820
 Alpha virt. eigenvalues --   -0.00652   0.00083   0.00123   0.00224   0.00637

  Beta  occ. eigenvalues --  -38.45101 -38.45059 -38.44938 -38.44588 -38.44312
  Beta  occ. eigenvalues --  -38.44064 -38.43690  -2.20918  -2.20841  -2.20718
  Beta  occ. eigenvalues --   -2.20370  -2.20056  -2.19789  -2.19471  -1.14630
  Beta  occ. eigenvalues --   -1.14587  -1.14556  -1.14518  -1.14509  -1.14465
  Beta  occ. eigenvalues --   -1.14397  -1.14380  -1.14345  -1.14053  -1.14048
  Beta  occ. eigenvalues --   -1.13976  -1.13743  -1.13736  -1.13703  -1.13495
  Beta  occ. eigenvalues --   -1.13483  -1.13452  -1.13161  -1.13151  -1.13138
  Beta  occ. eigenvalues --   -0.15332  -0.13887  -0.12341
  Beta virt. eigenvalues --   -0.08280  -0.07310  -0.04305  -0.04028  -0.03555
  Beta virt. eigenvalues --   -0.03099  -0.02410  -0.02102  -0.01609  -0.00899
  Beta virt. eigenvalues --   -0.00586  -0.00278   0.00067   0.00290   0.00428

 Mulliken charges and spin densities:
               1          2
     1  Na  -0.329509   0.275747
     2  Na  -0.316504   0.182273
     3  Na  -0.513890   0.327660
     4  Na   0.377158  -0.071345
     5  Na   0.886724  -0.060332
     6  Na   0.438022   0.120977
     7  Na  -0.542001   0.225019
 Sum of Mulliken charges =  -0.00000   1.00000

 Dipole moment (field-independent basis, Debye):
    X=             -0.6969    Y=             -0.6345    Z=              0.1465  Tot=              0.9538
 Quadrupole moment (field-independent basis, Debye-Ang):
   XX=            -57.3982   YY=            -69.9456   ZZ=            -72.4699
   XY=             -4.7361   XZ=             -0.6316   YZ=              0.5124

 Normal termination of Gaussian 16 at Sun Dec  3 18:45:35 2023.
