 Gaussian 16, Revision B.01,
 Gaussian 16:  ES64L-G16RevB.01 20-Dec-2017

 -------------------------
 #P B3LYP/6-311+g(d) force
 -------------------------

 -----
 DPGEN
 -----
 Symbolic Z-matrix:
 Charge =  0 Multiplicity = 2

                         Standard orientation:
 ---------------------------------------------------------------------
 Center     Atomic      Atomic             Coordinates (Angstroms)
 Number     Number       Type             X           Y           Z
 ---------------------------------------------------------------------
      1         11           0       -0.366653   -0.304596    2.329594
      2         11           0        2.109072    2.117307    0.548151
      3         11           0       -3.907296   -0.541110    0.043830
      4         11           0        3.099307   -1.889294    0.431148
      5         11           0        1.578326    0.410498   -1.916589
      6         11           0       -0.918892   -1.709204   -1.082916
      7         11           0       -1.593864    1.916399   -0.353218
 ---------------------------------------------------------------------

 SCF Done:  E(UB3LYP) =  -1136.12326171     A.U. after   23 cycles

 The electronic state is 2-A.
 Alpha  occ. eigenvalues --  -38.44961 -38.44957 -38.44206 -38.43857 -38.43681
 Alpha  occ. eigenvalues --  -38.43483 -38.43415  -2.20764  -2.20760  -2.19955
 Alpha  occ. eigenvalues --   -2.19762  -2.19526  -2.19318  -2.19250  -1.14430
 Alpha  occ. eigenvalues --   -1.14425  -1.14425  -1.14399  -1.14391  -1.14375
 Alpha  occ. eigenvalues --   -1.13629  -1.13625  -1.13595  -1.13479  -1.13442
 Alpha  occ. eigenvalues --   -1.13346  -1.13224  -1.13204  -1.13120  -1.13004
 Alpha  occ. eigenvalues --   -1.12969  -1.12945  -1.12937  -1.12931  -1.12858
 Alpha  occ. eigenvalues --   -0.18062  -0.13573  -0.11436  -0.11001
 Alpha virt. eigenvalues --   -0.06730  -0.05370  -0.04436  -0.03270  -0.02944
 Alpha virt. eigenvalues --   -0.02747  -0.02238  -0.01265  -0.00587  -0.00166
 Alpha virt. eigenvalues --    0.00099   0.00206   0.00305   0.00568   0.00713

  Beta  occ. eigenvalues --  -38.44965 -38.44857 -38.44208 -38.43803 -38.43653
  Beta  occ. eigenvalues --  -38.43480 -38.43407  -2.20768  -2.20579  -2.19961
  Beta  occ. eigenvalues --   -2.19662  -2.19478  -2.19316  -2.19238  -1.14435
  Beta  occ. eigenvalues --   -1.14423  -1.14404  -1.14303  -1.14260  -1.14243
  Beta  occ. eigenvalues --   -1.13632  -1.13618  -1.13599  -1.13408  -1.13376
  Beta  occ. eigenvalues --   -1.13278  -1.13191  -1.13149  -1.13090  -1.12991
  Beta  occ. eigenvalues --   -1.12956  -1.12940  -1.12932  -1.12904  -1.12854
  Beta  occ. eigenvalues --   -0.17294  -0.13479  -0.10827
  Beta virt. eigenvalues --   -0.07483  -0.06467  -0.05367  -0.03818  -0.02906
  Beta virt. eigenvalues --   -0.02269  -0.02125  -0.02033  -0.01123  -0.00340
  Beta virt. eigenvalues --   -0.00103   0.00132   0.00233   0.00492   0.00677

 Mulliken charges and spin densities:
               1          2
     1  Na  -0.424971   0.659654
     2  Na   0.074119   0.019756
     3  Na   0.436004  -0.021047
     4  Na  -0.060476  -0.056712
     5  Na   0.339096   0.243644
     6  Na  -0.214021   0.108023
     7  Na  -0.149751   0.046682
 Sum of Mulliken charges =  -0.00000   1.00000

 Dipole moment (field-independent basis, Debye):
    X=             -0.8833    Y=             -0.1463    Z=              0.4884  Tot=              1.0199
 Quadrupole moment (field-independent basis, Debye-Ang):
   XX=            -49.4294   YY=            -76.3613   ZZ=            -68.8331
   XY=              0.9146   XZ=              0.6765   YZ=             -1.2526

 Normal termination of Gaussian 16 at Fri Dec  8 03:09:21 2023.
