 Gaussian 16, Revision B.01,
 Gaussian 16:  ES64L-G16RevB.01 20-Dec-2017

 -------------------------
 #P B3LYP/6-311+g(d) force
 -------------------------

 -----
 DPGEN
 -----
 Symbolic Z-matrix:
 Charge =  0 Multiplicity = 2

                         Standard orientation:
 ---------------------------------------------------------------------
 Center     Atomic      Atomic             Coordinates (Angstroms)
 Number     Number       Type             X           Y           Z
 ---------------------------------------------------------------------
      1         11           0       -3.471015   -1.389793   -1.002096
      2         11           0        1.964310    2.753308   -0.700926
      3         11           0       -0.972194    1.840702   -1.136472
      4         11           0        0.144327   -0.965661   -0.169540
      5         11           0        1.930642    0.303976    1.630538
      6         11           0        2.928879   -2.807218   -0.522424
      7         11           0       -2.524948    0.264686    1.900920
 ---------------------------------------------------------------------

 SCF Done:  E(UB3LYP) =  -1136.11839419     A.U. after   21 cycles

 The electronic state is 2-A.
 Alpha  occ. eigenvalues --  -38.44760 -38.44452 -38.44300 -38.43830 -38.43623
 Alpha  occ. eigenvalues --  -38.43582 -38.43316  -2.20548  -2.20336  -2.20130
 Alpha  occ. eigenvalues --   -2.19716  -2.19424  -2.19404  -2.19310  -1.14215
 Alpha  occ. eigenvalues --   -1.14210  -1.14170  -1.14146  -1.13971  -1.13901
 Alpha  occ. eigenvalues --   -1.13793  -1.13783  -1.13737  -1.13452  -1.13372
 Alpha  occ. eigenvalues --   -1.13351  -1.13086  -1.13083  -1.13068  -1.13067
 Alpha  occ. eigenvalues --   -1.13053  -1.13043  -1.13033  -1.12966  -1.12880
 Alpha  occ. eigenvalues --   -0.18001  -0.13458  -0.11874  -0.10523
 Alpha virt. eigenvalues --   -0.06323  -0.05864  -0.04354  -0.03241  -0.02635
 Alpha virt. eigenvalues --   -0.02270  -0.02053  -0.01415  -0.00745  -0.00129
 Alpha virt. eigenvalues --   -0.00038   0.00178   0.00238   0.00588   0.00665

  Beta  occ. eigenvalues --  -38.44741 -38.44419 -38.44238 -38.43803 -38.43612
  Beta  occ. eigenvalues --  -38.43579 -38.43297  -2.20511  -2.20275  -2.20015
  Beta  occ. eigenvalues --   -2.19669  -2.19421  -2.19383  -2.19283  -1.14189
  Beta  occ. eigenvalues --   -1.14175  -1.14148  -1.14105  -1.13923  -1.13854
  Beta  occ. eigenvalues --   -1.13716  -1.13703  -1.13651  -1.13423  -1.13322
  Beta  occ. eigenvalues --   -1.13320  -1.13074  -1.13065  -1.13064  -1.13053
  Beta  occ. eigenvalues --   -1.13050  -1.13020  -1.12982  -1.12943  -1.12865
  Beta  occ. eigenvalues --   -0.17352  -0.13296  -0.11634
  Beta virt. eigenvalues --   -0.06954  -0.06112  -0.05375  -0.03997  -0.02974
  Beta virt. eigenvalues --   -0.02300  -0.02050  -0.01484  -0.01194  -0.00327
  Beta virt. eigenvalues --   -0.00069   0.00156   0.00265   0.00346   0.00670

 Mulliken charges and spin densities:
               1          2
     1  Na   1.276093   0.091811
     2  Na  -0.614708  -0.071825
     3  Na   1.118207   0.264251
     4  Na  -2.786402   0.197286
     5  Na   0.907771   0.371298
     6  Na  -0.190682  -0.020791
     7  Na   0.289722   0.167970
 Sum of Mulliken charges =  -0.00000   1.00000

 Dipole moment (field-independent basis, Debye):
    X=             -0.5341    Y=              0.0779    Z=              0.0212  Tot=              0.5402
 Quadrupole moment (field-independent basis, Debye-Ang):
   XX=            -52.2307   YY=            -68.5975   ZZ=            -70.3657
   XY=              3.4596   XZ=              1.1064   YZ=              3.4272

 Normal termination of Gaussian 16 at Tue Dec  5 21:46:33 2023.
