 Gaussian 16, Revision B.01,
 Gaussian 16:  ES64L-G16RevB.01 20-Dec-2017

 -------------------------
 #P B3LYP/6-311+g(d) force
 -------------------------

 -----
 DPGEN
 -----
 Symbolic Z-matrix:
 Charge =  0 Multiplicity = 2

                         Standard orientation:
 ---------------------------------------------------------------------
 Center     Atomic      Atomic             Coordinates (Angstroms)
 Number     Number       Type             X           Y           Z
 ---------------------------------------------------------------------
      1         11           0       -0.374471    2.338163   -1.873627
      2         11           0       -0.877157   -2.313259    2.009095
      3         11           0        4.205791   -0.223499   -0.047926
      4         11           0        1.329989   -0.178734    0.059400
      5         11           0       -0.646868    2.118946    2.157354
      6         11           0       -2.582189    0.289903   -0.096593
      7         11           0       -1.055096   -2.031520   -2.207703
 ---------------------------------------------------------------------

 SCF Done:  E(UB3LYP) =  -1136.11607827     A.U. after   23 cycles

 The electronic state is 2-A.
 Alpha  occ. eigenvalues --  -38.44817 -38.44742 -38.44739 -38.44672 -38.43887
 Alpha  occ. eigenvalues --  -38.43326 -38.42138  -2.20591  -2.20535  -2.20531
 Alpha  occ. eigenvalues --   -2.20457  -2.19749  -2.19136  -2.18084  -1.14259
 Alpha  occ. eigenvalues --   -1.14242  -1.14206  -1.14202  -1.14198  -1.14190
 Alpha  occ. eigenvalues --   -1.14185  -1.14151  -1.14136  -1.14120  -1.14115
 Alpha  occ. eigenvalues --   -1.14069  -1.13448  -1.13433  -1.13354  -1.12882
 Alpha  occ. eigenvalues --   -1.12771  -1.12765  -1.11779  -1.11746  -1.11709
 Alpha  occ. eigenvalues --   -0.17807  -0.12206  -0.11819  -0.11733
 Alpha virt. eigenvalues --   -0.05974  -0.05625  -0.04582  -0.03176  -0.02919
 Alpha virt. eigenvalues --   -0.02795  -0.01387  -0.01367  -0.01196   0.00005
 Alpha virt. eigenvalues --    0.00044   0.00228   0.00409   0.00554   0.00655

  Beta  occ. eigenvalues --  -38.44769 -38.44706 -38.44690 -38.44627 -38.43878
  Beta  occ. eigenvalues --  -38.43334 -38.42128  -2.20503  -2.20466  -2.20443
  Beta  occ. eigenvalues --   -2.20375  -2.19738  -2.19150  -2.18068  -1.14196
  Beta  occ. eigenvalues --   -1.14175  -1.14157  -1.14145  -1.14135  -1.14133
  Beta  occ. eigenvalues --   -1.14125  -1.14102  -1.14077  -1.14062  -1.14053
  Beta  occ. eigenvalues --   -1.14014  -1.13433  -1.13390  -1.13356  -1.12891
  Beta  occ. eigenvalues --   -1.12780  -1.12775  -1.11746  -1.11733  -1.11704
  Beta  occ. eigenvalues --   -0.16944  -0.11753  -0.11532
  Beta virt. eigenvalues --   -0.08364  -0.05601  -0.05077  -0.04299  -0.02723
  Beta virt. eigenvalues --   -0.02417  -0.02347  -0.01365  -0.01146  -0.00804
  Beta virt. eigenvalues --    0.00099   0.00127   0.00269   0.00417   0.00657

 Mulliken charges and spin densities:
               1          2
     1  Na   0.063247   0.269707
     2  Na   0.337279   0.369315
     3  Na  -0.175256  -0.614458
     4  Na  -1.663987   0.142282
     5  Na   0.181973   0.360917
     6  Na   1.114462   0.152739
     7  Na   0.142283   0.319497
 Sum of Mulliken charges =  -0.00000   1.00000

 Dipole moment (field-independent basis, Debye):
    X=             -1.0875    Y=              0.1939    Z=             -0.0134  Tot=              1.1048
 Quadrupole moment (field-independent basis, Debye-Ang):
   XX=            -69.0630   YY=            -67.6367   ZZ=            -56.9783
   XY=              0.9089   XZ=             -0.7267   YZ=             -0.6253

 Normal termination of Gaussian 16 at Fri Dec  8 18:23:30 2023.
