 Gaussian 16, Revision B.01,
 Gaussian 16:  ES64L-G16RevB.01 20-Dec-2017

 -------------------------
 #P B3LYP/6-311+g(d) force
 -------------------------

 -----
 DPGEN
 -----
 Symbolic Z-matrix:
 Charge =  0 Multiplicity = 2

                         Standard orientation:
 ---------------------------------------------------------------------
 Center     Atomic      Atomic             Coordinates (Angstroms)
 Number     Number       Type             X           Y           Z
 ---------------------------------------------------------------------
      1         11           0        3.095439   -0.244347   -0.269200
      2         11           0       -2.345019   -1.806131   -0.257236
      3         11           0        0.641787   -2.350824    0.178238
      4         11           0       -2.634415    1.559029    0.214729
      5         11           0        0.024628    0.219727   -1.801688
      6         11           0        0.392582    0.074455    2.013724
      7         11           0        0.824997    2.548090   -0.078567
 ---------------------------------------------------------------------

 SCF Done:  E(UB3LYP) =  -1136.13422480     A.U. after   19 cycles

 The electronic state is 2-A.
 Alpha  occ. eigenvalues --  -38.44005 -38.43864 -38.43778 -38.43492 -38.43421
 Alpha  occ. eigenvalues --  -38.43215 -38.42858  -2.19874  -2.19733  -2.19690
 Alpha  occ. eigenvalues --   -2.19495  -2.19302  -2.19129  -2.18843  -1.13555
 Alpha  occ. eigenvalues --   -1.13536  -1.13516  -1.13427  -1.13384  -1.13362
 Alpha  occ. eigenvalues --   -1.13359  -1.13333  -1.13320  -1.13220  -1.13164
 Alpha  occ. eigenvalues --   -1.13093  -1.13009  -1.12953  -1.12940  -1.12808
 Alpha  occ. eigenvalues --   -1.12798  -1.12718  -1.12533  -1.12494  -1.12456
 Alpha  occ. eigenvalues --   -0.19291  -0.13125  -0.12521  -0.11239
 Alpha virt. eigenvalues --   -0.05627  -0.04905  -0.04226  -0.03295  -0.03082
 Alpha virt. eigenvalues --   -0.02826  -0.01574  -0.00847  -0.00082  -0.00014
 Alpha virt. eigenvalues --    0.00155   0.00359   0.00853   0.00936   0.00988

  Beta  occ. eigenvalues --  -38.43998 -38.43862 -38.43684 -38.43419 -38.43416
  Beta  occ. eigenvalues --  -38.43205 -38.42846  -2.19865  -2.19689  -2.19560
  Beta  occ. eigenvalues --   -2.19356  -2.19300  -2.19117  -2.18826  -1.13549
  Beta  occ. eigenvalues --   -1.13514  -1.13500  -1.13361  -1.13344  -1.13334
  Beta  occ. eigenvalues --   -1.13312  -1.13261  -1.13202  -1.13133  -1.13074
  Beta  occ. eigenvalues --   -1.13011  -1.12989  -1.12939  -1.12929  -1.12793
  Beta  occ. eigenvalues --   -1.12754  -1.12712  -1.12520  -1.12453  -1.12441
  Beta  occ. eigenvalues --   -0.18515  -0.12891  -0.12238
  Beta virt. eigenvalues --   -0.07253  -0.05589  -0.04888  -0.04225  -0.02517
  Beta virt. eigenvalues --   -0.02216  -0.01740  -0.01487  -0.00791  -0.00079
  Beta virt. eigenvalues --    0.00046   0.00140   0.00377   0.00891   0.00940

 Mulliken charges and spin densities:
               1          2
     1  Na   0.319269  -0.060838
     2  Na  -0.005132  -0.076938
     3  Na   0.428019   0.079490
     4  Na   0.052996  -0.052728
     5  Na  -0.491302   0.578475
     6  Na  -0.559984   0.622604
     7  Na   0.256134  -0.090064
 Sum of Mulliken charges =  -0.00000   1.00000

 Dipole moment (field-independent basis, Debye):
    X=              0.0687    Y=              0.2915    Z=              0.0742  Tot=              0.3086
 Quadrupole moment (field-independent basis, Debye-Ang):
   XX=            -55.7008   YY=            -67.0828   ZZ=            -71.6658
   XY=             -0.2467   XZ=             -0.9612   YZ=              0.7443

 Normal termination of Gaussian 16 at Wed Dec  6 01:14:26 2023.
