 Gaussian 16, Revision B.01,
 Gaussian 16:  ES64L-G16RevB.01 20-Dec-2017

 -------------------------
 #P B3LYP/6-311+g(d) force
 -------------------------

 -----
 DPGEN
 -----
 Symbolic Z-matrix:
 Charge =  0 Multiplicity = 2

                         Standard orientation:
 ---------------------------------------------------------------------
 Center     Atomic      Atomic             Coordinates (Angstroms)
 Number     Number       Type             X           Y           Z
 ---------------------------------------------------------------------
      1         11           0       -6.342419    2.405948    0.763633
      2         11           0        0.621923   -1.378494   -0.439804
      3         11           0        2.679337   -0.391795    2.363456
      4         11           0        4.890626   -0.265122   -0.076053
      5         11           0        6.603505    1.891750   -1.191316
      6         11           0       -2.790915   -2.381690   -0.354050
      7         11           0       -5.662057    0.119403   -1.065865
 ---------------------------------------------------------------------

 SCF Done:  E(UB3LYP) =  -1136.10648852     A.U. after   18 cycles

 The electronic state is 2-A.
 Alpha  occ. eigenvalues --  -38.45335 -38.44448 -38.44427 -38.44412 -38.44188
 Alpha  occ. eigenvalues --  -38.44015 -38.43742  -2.21148  -2.20238  -2.20200
 Alpha  occ. eigenvalues --   -2.20193  -2.20023  -2.19817  -2.19600  -1.14798
 Alpha  occ. eigenvalues --   -1.14790  -1.14760  -1.13940  -1.13897  -1.13892
 Alpha  occ. eigenvalues --   -1.13875  -1.13873  -1.13851  -1.13847  -1.13833
 Alpha  occ. eigenvalues --   -1.13792  -1.13739  -1.13646  -1.13645  -1.13480
 Alpha  occ. eigenvalues --   -1.13476  -1.13459  -1.13277  -1.13262  -1.13234
 Alpha  occ. eigenvalues --   -0.15622  -0.14241  -0.12626  -0.11371
 Alpha virt. eigenvalues --   -0.06600  -0.05230  -0.04502  -0.03389  -0.03040
 Alpha virt. eigenvalues --   -0.02748  -0.02114  -0.01764  -0.01654  -0.01249
 Alpha virt. eigenvalues --   -0.00624  -0.00427  -0.00214   0.00331   0.00532

  Beta  occ. eigenvalues --  -38.45263 -38.44469 -38.44387 -38.44340 -38.44116
  Beta  occ. eigenvalues --  -38.44023 -38.43741  -2.21013  -2.20243  -2.20163
  Beta  occ. eigenvalues --   -2.20060  -2.19890  -2.19835  -2.19607  -1.14710
  Beta  occ. eigenvalues --   -1.14700  -1.14671  -1.13932  -1.13926  -1.13895
  Beta  occ. eigenvalues --   -1.13832  -1.13825  -1.13822  -1.13757  -1.13748
  Beta  occ. eigenvalues --   -1.13719  -1.13655  -1.13556  -1.13554  -1.13495
  Beta  occ. eigenvalues --   -1.13488  -1.13444  -1.13283  -1.13271  -1.13187
  Beta  occ. eigenvalues --   -0.15055  -0.13667  -0.11815
  Beta virt. eigenvalues --   -0.08389  -0.06222  -0.04897  -0.04185  -0.03191
  Beta virt. eigenvalues --   -0.02830  -0.02538  -0.01826  -0.01492  -0.01326
  Beta virt. eigenvalues --   -0.00981  -0.00342  -0.00208  -0.00050   0.00379

 Mulliken charges and spin densities:
               1          2
     1  Na   0.277020   0.167202
     2  Na  -0.482641  -0.000730
     3  Na   0.314498   0.339768
     4  Na  -0.488529  -0.133901
     5  Na   0.294070   0.379184
     6  Na   0.285812   0.270906
     7  Na  -0.200229  -0.022428
 Sum of Mulliken charges =  -0.00000   1.00000

 Dipole moment (field-independent basis, Debye):
    X=              0.0873    Y=              0.6181    Z=              1.1005  Tot=              1.2652
 Quadrupole moment (field-independent basis, Debye-Ang):
   XX=            -71.8393   YY=            -65.9001   ZZ=            -63.4382
   XY=              1.1204   XZ=             -0.8766   YZ=              2.8194

 Normal termination of Gaussian 16 at Mon Dec  4 04:16:33 2023.
