 Gaussian 16, Revision B.01,
 Gaussian 16:  ES64L-G16RevB.01 20-Dec-2017

 -------------------------
 #P B3LYP/6-311+g(d) force
 -------------------------

 -----
 DPGEN
 -----
 Symbolic Z-matrix:
 Charge =  0 Multiplicity = 2

                         Standard orientation:
 ---------------------------------------------------------------------
 Center     Atomic      Atomic             Coordinates (Angstroms)
 Number     Number       Type             X           Y           Z
 ---------------------------------------------------------------------
      1         11           0        1.996923   -2.646732   -1.080009
      2         11           0        1.465292    3.079669   -0.276095
      3         11           0        4.285143    1.804845    0.339803
      4         11           0       -0.711573   -0.117327   -0.599858
      5         11           0        4.287985   -1.944936    1.229200
      6         11           0       -4.498296    0.041707   -0.838486
      7         11           0       -6.825475   -0.217226    1.225445
 ---------------------------------------------------------------------

 SCF Done:  E(UB3LYP) =  -1136.10768843     A.U. after   20 cycles

 The electronic state is 2-A.
 Alpha  occ. eigenvalues --  -38.45237 -38.45198 -38.44435 -38.44405 -38.44404
 Alpha  occ. eigenvalues --  -38.44163 -38.43360  -2.21019  -2.20999  -2.20237
 Alpha  occ. eigenvalues --   -2.20189  -2.20189  -2.19937  -2.19151  -1.14683
 Alpha  occ. eigenvalues --   -1.14652  -1.14649  -1.14637  -1.14635  -1.14635
 Alpha  occ. eigenvalues --   -1.13901  -1.13893  -1.13871  -1.13859  -1.13858
 Alpha  occ. eigenvalues --   -1.13852  -1.13848  -1.13838  -1.13833  -1.13609
 Alpha  occ. eigenvalues --   -1.13604  -1.13572  -1.12821  -1.12817  -1.12803
 Alpha  occ. eigenvalues --   -0.15788  -0.14139  -0.12031  -0.11807
 Alpha virt. eigenvalues --   -0.06895  -0.05376  -0.04647  -0.03560  -0.03004
 Alpha virt. eigenvalues --   -0.02804  -0.02458  -0.01509  -0.01152  -0.00960
 Alpha virt. eigenvalues --   -0.00593  -0.00281  -0.00109   0.00136   0.00520

  Beta  occ. eigenvalues --  -38.45144 -38.45138 -38.44416 -38.44391 -38.44375
  Beta  occ. eigenvalues --  -38.44162 -38.43369  -2.20886  -2.20847  -2.20216
  Beta  occ. eigenvalues --   -2.20154  -2.20132  -2.19937  -2.19170  -1.14578
  Beta  occ. eigenvalues --   -1.14566  -1.14560  -1.14558  -1.14529  -1.14523
  Beta  occ. eigenvalues --   -1.13882  -1.13881  -1.13844  -1.13842  -1.13829
  Beta  occ. eigenvalues --   -1.13814  -1.13812  -1.13803  -1.13787  -1.13611
  Beta  occ. eigenvalues --   -1.13600  -1.13559  -1.12834  -1.12831  -1.12803
  Beta  occ. eigenvalues --   -0.14977  -0.13522  -0.11804
  Beta virt. eigenvalues --   -0.08702  -0.06224  -0.04863  -0.04311  -0.03280
  Beta virt. eigenvalues --   -0.02760  -0.02578  -0.02202  -0.01415  -0.00827
  Beta virt. eigenvalues --   -0.00641  -0.00532  -0.00099   0.00106   0.00251

 Mulliken charges and spin densities:
               1          2
     1  Na   0.433622  -0.026187
     2  Na   0.768043  -0.059909
     3  Na  -0.237956   0.246870
     4  Na  -0.843594   0.498584
     5  Na   0.074711   0.166747
     6  Na  -0.721520  -0.102693
     7  Na   0.526694   0.276589
 Sum of Mulliken charges =  -0.00000   1.00000

 Dipole moment (field-independent basis, Debye):
    X=             -1.0562    Y=             -0.4206    Z=              0.5982  Tot=              1.2846
 Quadrupole moment (field-independent basis, Debye-Ang):
   XX=            -50.1141   YY=            -75.5399   ZZ=            -66.5569
   XY=             -0.8736   XZ=             -2.1111   YZ=             -0.3996

 Normal termination of Gaussian 16 at Sun Dec  3 20:59:46 2023.
