 Gaussian 16, Revision B.01,
 Gaussian 16:  ES64L-G16RevB.01 20-Dec-2017

 -------------------------
 #P B3LYP/6-311+g(d) force
 -------------------------

 -----
 DPGEN
 -----
 Symbolic Z-matrix:
 Charge =  0 Multiplicity = 2

                         Standard orientation:
 ---------------------------------------------------------------------
 Center     Atomic      Atomic             Coordinates (Angstroms)
 Number     Number       Type             X           Y           Z
 ---------------------------------------------------------------------
      1         11           0        0.775630    2.739859    0.080388
      2         11           0       -2.936799   -2.080250   -0.592664
      3         11           0       -2.454371    1.985415    0.327581
      4         11           0        1.946331   -2.623263    0.061210
      5         11           0       -0.444722   -0.740848    1.914381
      6         11           0       -0.210083    0.276006   -1.608987
      7         11           0        3.324014    0.443081   -0.181909
 ---------------------------------------------------------------------

 SCF Done:  E(UB3LYP) =  -1136.13022276     A.U. after   20 cycles

 The electronic state is 2-A.
 Alpha  occ. eigenvalues --  -38.44291 -38.44276 -38.44167 -38.44125 -38.43593
 Alpha  occ. eigenvalues --  -38.43517 -38.43213  -2.20108  -2.20056  -2.19962
 Alpha  occ. eigenvalues --   -2.19938  -2.19510  -2.19362  -2.19094  -1.13784
 Alpha  occ. eigenvalues --   -1.13773  -1.13739  -1.13722  -1.13709  -1.13689
 Alpha  occ. eigenvalues --   -1.13650  -1.13633  -1.13617  -1.13609  -1.13592
 Alpha  occ. eigenvalues --   -1.13554  -1.13221  -1.13161  -1.13125  -1.13039
 Alpha  occ. eigenvalues --   -1.12992  -1.12983  -1.12779  -1.12749  -1.12725
 Alpha  occ. eigenvalues --   -0.18028  -0.13078  -0.12350  -0.10266
 Alpha virt. eigenvalues --   -0.06180  -0.05737  -0.04620  -0.03061  -0.02900
 Alpha virt. eigenvalues --   -0.02143  -0.01850  -0.01562  -0.00841  -0.00409
 Alpha virt. eigenvalues --   -0.00056   0.00295   0.00652   0.00714   0.00835

  Beta  occ. eigenvalues --  -38.44265 -38.44264 -38.44165 -38.44124 -38.43540
  Beta  occ. eigenvalues --  -38.43444 -38.43209  -2.20088  -2.20010  -2.19959
  Beta  occ. eigenvalues --   -2.19937  -2.19413  -2.19228  -2.19091  -1.13773
  Beta  occ. eigenvalues --   -1.13736  -1.13727  -1.13682  -1.13673  -1.13661
  Beta  occ. eigenvalues --   -1.13652  -1.13618  -1.13615  -1.13604  -1.13584
  Beta  occ. eigenvalues --   -1.13554  -1.13150  -1.13097  -1.13053  -1.12949
  Beta  occ. eigenvalues --   -1.12898  -1.12884  -1.12773  -1.12744  -1.12704
  Beta  occ. eigenvalues --   -0.17403  -0.12858  -0.12067
  Beta virt. eigenvalues --   -0.06617  -0.06042  -0.05591  -0.04528  -0.02460
  Beta virt. eigenvalues --   -0.02236  -0.01678  -0.01478  -0.01213  -0.00856
  Beta virt. eigenvalues --   -0.00429   0.00114   0.00354   0.00708   0.00763

 Mulliken charges and spin densities:
               1          2
     1  Na   0.089635   0.035650
     2  Na  -0.074625   0.026050
     3  Na   0.244025   0.102817
     4  Na   0.164218  -0.041354
     5  Na  -0.301983   0.444367
     6  Na  -0.098571   0.435948
     7  Na  -0.022698  -0.003478
 Sum of Mulliken charges =  -0.00000   1.00000

 Dipole moment (field-independent basis, Debye):
    X=             -0.1373    Y=             -0.1449    Z=              0.0912  Tot=              0.2194
 Quadrupole moment (field-independent basis, Debye-Ang):
   XX=            -54.9420   YY=            -62.3996   ZZ=            -76.0837
   XY=             -0.7892   XZ=             -0.2368   YZ=              2.1428

 Normal termination of Gaussian 16 at Thu Dec  7 21:37:40 2023.
