 Gaussian 16, Revision B.01,
 Gaussian 16:  ES64L-G16RevB.01 20-Dec-2017

 -------------------------
 #P B3LYP/6-311+g(d) force
 -------------------------

 -----
 DPGEN
 -----
 Symbolic Z-matrix:
 Charge =  0 Multiplicity = 2

                         Standard orientation:
 ---------------------------------------------------------------------
 Center     Atomic      Atomic             Coordinates (Angstroms)
 Number     Number       Type             X           Y           Z
 ---------------------------------------------------------------------
      1         11           0        1.117435   -2.607956    0.081097
      2         11           0        0.026125    0.116840   -1.570509
      3         11           0       -2.531289    1.562723   -0.185101
      4         11           0       -2.503355   -1.812284   -0.293558
      5         11           0        1.030601    2.889216   -0.001644
      6         11           0        3.138564   -0.201617   -0.205926
      7         11           0       -0.278081    0.053078    2.175642
 ---------------------------------------------------------------------

 SCF Done:  E(UB3LYP) =  -1136.13863903     A.U. after   19 cycles

 The electronic state is 2-A.
 Alpha  occ. eigenvalues --  -38.43949 -38.43863 -38.43732 -38.43669 -38.43459
 Alpha  occ. eigenvalues --  -38.43256 -38.43110  -2.19796  -2.19725  -2.19600
 Alpha  occ. eigenvalues --   -2.19511  -2.19279  -2.19132  -2.19110  -1.13487
 Alpha  occ. eigenvalues --   -1.13461  -1.13432  -1.13427  -1.13394  -1.13352
 Alpha  occ. eigenvalues --   -1.13258  -1.13225  -1.13217  -1.13188  -1.13162
 Alpha  occ. eigenvalues --   -1.13151  -1.12971  -1.12943  -1.12911  -1.12840
 Alpha  occ. eigenvalues --   -1.12793  -1.12784  -1.12765  -1.12737  -1.12723
 Alpha  occ. eigenvalues --   -0.18665  -0.13122  -0.12358  -0.10826
 Alpha virt. eigenvalues --   -0.05537  -0.05232  -0.04669  -0.03193  -0.02843
 Alpha virt. eigenvalues --   -0.02697  -0.01470  -0.01161  -0.00385  -0.00281
 Alpha virt. eigenvalues --   -0.00024   0.00357   0.00793   0.00873   0.00910

  Beta  occ. eigenvalues --  -38.43947 -38.43855 -38.43663 -38.43627 -38.43458
  Beta  occ. eigenvalues --  -38.43251 -38.43053  -2.19794  -2.19715  -2.19503
  Beta  occ. eigenvalues --   -2.19405  -2.19278  -2.19126  -2.19008  -1.13486
  Beta  occ. eigenvalues --   -1.13444  -1.13431  -1.13417  -1.13367  -1.13344
  Beta  occ. eigenvalues --   -1.13176  -1.13154  -1.13142  -1.13126  -1.13089
  Beta  occ. eigenvalues --   -1.13076  -1.12964  -1.12929  -1.12912  -1.12824
  Beta  occ. eigenvalues --   -1.12773  -1.12757  -1.12717  -1.12667  -1.12652
  Beta  occ. eigenvalues --   -0.17939  -0.12887  -0.12143
  Beta virt. eigenvalues --   -0.06859  -0.05516  -0.05219  -0.04627  -0.02410
  Beta virt. eigenvalues --   -0.02077  -0.01589  -0.01380  -0.01101  -0.00436
  Beta virt. eigenvalues --   -0.00331   0.00131   0.00386   0.00853   0.00877

 Mulliken charges and spin densities:
               1          2
     1  Na   0.197997   0.016794
     2  Na  -0.309710   0.301920
     3  Na   0.294963  -0.013822
     4  Na   0.196830   0.006354
     5  Na   0.102083  -0.059033
     6  Na   0.133918  -0.037081
     7  Na  -0.616082   0.784868
 Sum of Mulliken charges =  -0.00000   1.00000

 Dipole moment (field-independent basis, Debye):
    X=             -0.0688    Y=              0.1251    Z=              0.1589  Tot=              0.2137
 Quadrupole moment (field-independent basis, Debye-Ang):
   XX=            -56.9566   YY=            -62.5609   ZZ=            -74.1850
   XY=              0.6535   XZ=              0.5378   YZ=              0.2421

 Normal termination of Gaussian 16 at Thu Dec  7 03:55:40 2023.
