 Gaussian 16, Revision B.01,
 Gaussian 16:  ES64L-G16RevB.01 20-Dec-2017

 -------------------------
 #P B3LYP/6-311+g(d) force
 -------------------------

 -----
 DPGEN
 -----
 Symbolic Z-matrix:
 Charge =  0 Multiplicity = 2

                         Standard orientation:
 ---------------------------------------------------------------------
 Center     Atomic      Atomic             Coordinates (Angstroms)
 Number     Number       Type             X           Y           Z
 ---------------------------------------------------------------------
      1         11           0        1.337653    0.304053    1.582843
      2         11           0       -0.838728    1.742783    0.517343
      3         11           0        1.903768    1.457746   -0.923557
      4         11           0        1.907327   -1.624554   -0.363757
      5         11           0       -0.881869   -1.335817    1.106543
      6         11           0       -0.401459   -0.551123   -1.548357
      7         11           0       -3.026691    0.006912   -0.371057
 ---------------------------------------------------------------------

 SCF Done:  E(UB3LYP) =  -1136.08486444     A.U. after   21 cycles

 The electronic state is 2-A.
 Alpha  occ. eigenvalues --  -38.44490 -38.44380 -38.43952 -38.43611 -38.43553
 Alpha  occ. eigenvalues --  -38.43356 -38.42765  -2.20625  -2.20498  -2.20199
 Alpha  occ. eigenvalues --   -2.19755  -2.19674  -2.19453  -2.18914  -1.14428
 Alpha  occ. eigenvalues --   -1.14357  -1.14318  -1.14284  -1.14171  -1.14131
 Alpha  occ. eigenvalues --   -1.14014  -1.13859  -1.13802  -1.13431  -1.13361
 Alpha  occ. eigenvalues --   -1.13355  -1.13315  -1.13304  -1.13281  -1.13110
 Alpha  occ. eigenvalues --   -1.13099  -1.12999  -1.12636  -1.12558  -1.12496
 Alpha  occ. eigenvalues --   -0.21446  -0.14332  -0.12594  -0.11971
 Alpha virt. eigenvalues --   -0.05772  -0.04161  -0.04071  -0.03575  -0.02836
 Alpha virt. eigenvalues --   -0.02771  -0.01399  -0.00403  -0.00267   0.00298
 Alpha virt. eigenvalues --    0.00664   0.00881   0.00939   0.01034   0.01084

  Beta  occ. eigenvalues --  -38.44484 -38.44308 -38.43884 -38.43583 -38.43504
  Beta  occ. eigenvalues --  -38.43341 -38.42743  -2.20497  -2.20489  -2.20076
  Beta  occ. eigenvalues --   -2.19672  -2.19625  -2.19433  -2.18882  -1.14340
  Beta  occ. eigenvalues --   -1.14299  -1.14253  -1.14192  -1.14141  -1.14126
  Beta  occ. eigenvalues --   -1.13944  -1.13776  -1.13713  -1.13366  -1.13327
  Beta  occ. eigenvalues --   -1.13283  -1.13270  -1.13238  -1.13224  -1.13097
  Beta  occ. eigenvalues --   -1.13053  -1.12969  -1.12612  -1.12511  -1.12458
  Beta  occ. eigenvalues --   -0.20591  -0.14075  -0.11726
  Beta virt. eigenvalues --   -0.08163  -0.05682  -0.04092  -0.03410  -0.03258
  Beta virt. eigenvalues --   -0.02069  -0.01771  -0.01325  -0.00343  -0.00050
  Beta virt. eigenvalues --    0.00333   0.00719   0.00874   0.01045   0.01065

 Mulliken charges and spin densities:
               1          2
     1  Na   0.786908   0.244959
     2  Na  -0.826762   0.142184
     3  Na  -0.169766   0.072885
     4  Na  -0.097482  -0.053005
     5  Na  -0.663070   0.148997
     6  Na  -0.021110   0.472067
     7  Na   0.991282  -0.028087
 Sum of Mulliken charges =  -0.00000   1.00000

 Dipole moment (field-independent basis, Debye):
    X=             -0.3213    Y=              0.0726    Z=             -0.3044  Tot=              0.4485
 Quadrupole moment (field-independent basis, Debye-Ang):
   XX=            -55.2306   YY=            -74.8413   ZZ=            -66.1902
   XY=             -0.2709   XZ=             -0.4742   YZ=             -1.3382

 Normal termination of Gaussian 16 at Sat Dec  9 07:08:58 2023.
