 Gaussian 16, Revision B.01,
 Gaussian 16:  ES64L-G16RevB.01 20-Dec-2017

 -------------------------
 #P B3LYP/6-311+g(d) force
 -------------------------

 -----
 DPGEN
 -----
 Symbolic Z-matrix:
 Charge =  0 Multiplicity = 2

                         Standard orientation:
 ---------------------------------------------------------------------
 Center     Atomic      Atomic             Coordinates (Angstroms)
 Number     Number       Type             X           Y           Z
 ---------------------------------------------------------------------
      1         11           0        1.142991    0.255923    1.673162
      2         11           0       -2.291784    0.007731    1.736155
      3         11           0       -4.233225   -1.000082   -1.025205
      4         11           0        0.022543   -1.324544   -1.034840
      5         11           0       -0.608968    2.315804   -0.277770
      6         11           0        2.363486    1.731498   -1.162695
      7         11           0        3.604957   -1.986330    0.091193
 ---------------------------------------------------------------------

 SCF Done:  E(UB3LYP) =  -1136.12379792     A.U. after   22 cycles

 The electronic state is 2-A.
 Alpha  occ. eigenvalues --  -38.45217 -38.44402 -38.43979 -38.43900 -38.43748
 Alpha  occ. eigenvalues --  -38.43637 -38.42959  -2.21015  -2.20173  -2.19849
 Alpha  occ. eigenvalues --   -2.19762  -2.19700  -2.19410  -2.18860  -1.14746
 Alpha  occ. eigenvalues --   -1.14697  -1.14594  -1.13834  -1.13831  -1.13791
 Alpha  occ. eigenvalues --   -1.13524  -1.13522  -1.13461  -1.13460  -1.13433
 Alpha  occ. eigenvalues --   -1.13403  -1.13378  -1.13338  -1.13287  -1.13087
 Alpha  occ. eigenvalues --   -1.13079  -1.13036  -1.12542  -1.12520  -1.12493
 Alpha  occ. eigenvalues --   -0.18272  -0.13565  -0.11490  -0.11072
 Alpha virt. eigenvalues --   -0.06762  -0.05227  -0.04683  -0.03204  -0.02631
 Alpha virt. eigenvalues --   -0.02447  -0.02192  -0.01465  -0.01012  -0.00230
 Alpha virt. eigenvalues --    0.00016   0.00218   0.00307   0.00483   0.00613

  Beta  occ. eigenvalues --  -38.45208 -38.44361 -38.43941 -38.43861 -38.43690
  Beta  occ. eigenvalues --  -38.43639 -38.42951  -2.20999  -2.20094  -2.19780
  Beta  occ. eigenvalues --   -2.19695  -2.19596  -2.19415  -2.18850  -1.14725
  Beta  occ. eigenvalues --   -1.14678  -1.14586  -1.13779  -1.13777  -1.13741
  Beta  occ. eigenvalues --   -1.13482  -1.13466  -1.13410  -1.13401  -1.13393
  Beta  occ. eigenvalues --   -1.13344  -1.13301  -1.13259  -1.13201  -1.13088
  Beta  occ. eigenvalues --   -1.13079  -1.13040  -1.12539  -1.12500  -1.12471
  Beta  occ. eigenvalues --   -0.17618  -0.13246  -0.11232
  Beta virt. eigenvalues --   -0.07343  -0.06541  -0.05072  -0.04176  -0.02981
  Beta virt. eigenvalues --   -0.02428  -0.01969  -0.01636  -0.01217  -0.00617
  Beta virt. eigenvalues --   -0.00169   0.00064   0.00340   0.00427   0.00559

 Mulliken charges and spin densities:
               1          2
     1  Na  -0.063318   0.287862
     2  Na   0.439197   0.039925
     3  Na   0.026006   0.240320
     4  Na  -0.820765   0.178994
     5  Na  -0.072867   0.119130
     6  Na   0.086254   0.189860
     7  Na   0.405493  -0.056091
 Sum of Mulliken charges =  -0.00000   1.00000

 Dipole moment (field-independent basis, Debye):
    X=              0.1127    Y=              0.2290    Z=             -0.1658  Tot=              0.3043
 Quadrupole moment (field-independent basis, Debye-Ang):
   XX=            -53.8344   YY=            -74.2371   ZZ=            -68.2492
   XY=             -0.2782   XZ=             -0.2886   YZ=              0.8903

 Normal termination of Gaussian 16 at Tue Dec  5 10:54:01 2023.
