 Gaussian 16, Revision B.01,
 Gaussian 16:  ES64L-G16RevB.01 20-Dec-2017

 -------------------------
 #P B3LYP/6-311+g(d) force
 -------------------------

 -----
 DPGEN
 -----
 Symbolic Z-matrix:
 Charge =  0 Multiplicity = 2

                         Standard orientation:
 ---------------------------------------------------------------------
 Center     Atomic      Atomic             Coordinates (Angstroms)
 Number     Number       Type             X           Y           Z
 ---------------------------------------------------------------------
      1         11           0       -2.641976    1.765854    0.276021
      2         11           0        0.997691   -2.636201    0.003377
      3         11           0       -2.849907   -1.527287   -0.297617
      4         11           0        0.451469   -0.511055    2.038035
      5         11           0       -0.183107   -0.166930   -1.577029
      6         11           0        0.989746    3.031589   -0.045277
      7         11           0        3.236084    0.044031   -0.397509
 ---------------------------------------------------------------------

 SCF Done:  E(UB3LYP) =  -1136.13260136     A.U. after   20 cycles

 The electronic state is 2-A.
 Alpha  occ. eigenvalues --  -38.44407 -38.44060 -38.43997 -38.43653 -38.43520
 Alpha  occ. eigenvalues --  -38.43415 -38.43296  -2.20221  -2.19863  -2.19830
 Alpha  occ. eigenvalues --   -2.19556  -2.19334  -2.19296  -2.19260  -1.13896
 Alpha  occ. eigenvalues --   -1.13875  -1.13857  -1.13558  -1.13537  -1.13514
 Alpha  occ. eigenvalues --   -1.13511  -1.13472  -1.13445  -1.13311  -1.13185
 Alpha  occ. eigenvalues --   -1.13159  -1.13063  -1.12979  -1.12977  -1.12961
 Alpha  occ. eigenvalues --   -1.12937  -1.12934  -1.12929  -1.12876  -1.12872
 Alpha  occ. eigenvalues --   -0.18399  -0.13221  -0.12226  -0.10566
 Alpha virt. eigenvalues --   -0.05918  -0.05359  -0.04727  -0.03259  -0.02707
 Alpha virt. eigenvalues --   -0.02434  -0.01772  -0.01126  -0.00577  -0.00521
 Alpha virt. eigenvalues --   -0.00017   0.00327   0.00751   0.00831   0.00843

  Beta  occ. eigenvalues --  -38.44396 -38.44057 -38.43991 -38.43557 -38.43522
  Beta  occ. eigenvalues --  -38.43403 -38.43238  -2.20202  -2.19859  -2.19822
  Beta  occ. eigenvalues --   -2.19381  -2.19317  -2.19301  -2.19155  -1.13868
  Beta  occ. eigenvalues --   -1.13861  -1.13847  -1.13556  -1.13524  -1.13508
  Beta  occ. eigenvalues --   -1.13497  -1.13461  -1.13443  -1.13217  -1.13062
  Beta  occ. eigenvalues --   -1.13038  -1.13023  -1.12972  -1.12963  -1.12939
  Beta  occ. eigenvalues --   -1.12926  -1.12912  -1.12862  -1.12804  -1.12797
  Beta  occ. eigenvalues --   -0.17695  -0.13000  -0.11998
  Beta virt. eigenvalues --   -0.06692  -0.05856  -0.05318  -0.04643  -0.02531
  Beta virt. eigenvalues --   -0.02013  -0.01671  -0.01397  -0.01063  -0.00591
  Beta virt. eigenvalues --   -0.00560   0.00142   0.00376   0.00817   0.00844

 Mulliken charges and spin densities:
               1          2
     1  Na  -0.143914  -0.016151
     2  Na   0.537011  -0.026380
     3  Na   0.278269  -0.042862
     4  Na  -0.498514   0.727868
     5  Na  -0.063173   0.460354
     6  Na  -0.180631  -0.075838
     7  Na   0.070952  -0.026991
 Sum of Mulliken charges =  -0.00000   1.00000

 Dipole moment (field-independent basis, Debye):
    X=             -0.0093    Y=             -0.0745    Z=              0.0583  Tot=              0.0951
 Quadrupole moment (field-independent basis, Debye-Ang):
   XX=            -54.5335   YY=            -63.6421   ZZ=            -75.3528
   XY=              0.1485   XZ=             -1.5119   YZ=              1.2391

 Normal termination of Gaussian 16 at Fri Dec  8 04:20:02 2023.
