 Gaussian 16, Revision B.01,
 Gaussian 16:  ES64L-G16RevB.01 20-Dec-2017

 -------------------------
 #P B3LYP/6-311+g(d) force
 -------------------------

 -----
 DPGEN
 -----
 Symbolic Z-matrix:
 Charge =  0 Multiplicity = 2

                         Standard orientation:
 ---------------------------------------------------------------------
 Center     Atomic      Atomic             Coordinates (Angstroms)
 Number     Number       Type             X           Y           Z
 ---------------------------------------------------------------------
      1         11           0        3.282197    0.457855   -0.165467
      2         11           0       -2.953180    1.269679   -0.672146
      3         11           0        0.209441   -0.243174   -1.559966
      4         11           0        0.389470    2.847734    0.168723
      5         11           0        1.887506   -2.269243    0.011855
      6         11           0       -0.391211    0.231700    2.051765
      7         11           0       -2.424222   -2.294550    0.165236
 ---------------------------------------------------------------------

 SCF Done:  E(UB3LYP) =  -1136.13239084     A.U. after   20 cycles

 The electronic state is 2-A.
 Alpha  occ. eigenvalues --  -38.44385 -38.44381 -38.43930 -38.43699 -38.43518
 Alpha  occ. eigenvalues --  -38.43501 -38.42957  -2.20235  -2.20182  -2.19709
 Alpha  occ. eigenvalues --   -2.19583  -2.19472  -2.19380  -2.18799  -1.13937
 Alpha  occ. eigenvalues --   -1.13900  -1.13863  -1.13859  -1.13830  -1.13811
 Alpha  occ. eigenvalues --   -1.13384  -1.13363  -1.13359  -1.13348  -1.13236
 Alpha  occ. eigenvalues --   -1.13199  -1.13153  -1.13097  -1.13074  -1.13048
 Alpha  occ. eigenvalues --   -1.13009  -1.12996  -1.12482  -1.12467  -1.12427
 Alpha  occ. eigenvalues --   -0.18350  -0.13375  -0.12002  -0.10584
 Alpha virt. eigenvalues --   -0.05957  -0.05558  -0.04373  -0.03354  -0.02706
 Alpha virt. eigenvalues --   -0.02439  -0.01887  -0.01278  -0.00515  -0.00360
 Alpha virt. eigenvalues --   -0.00033   0.00310   0.00693   0.00810   0.00867

  Beta  occ. eigenvalues --  -38.44383 -38.44358 -38.43929 -38.43695 -38.43470
  Beta  occ. eigenvalues --  -38.43406 -38.42951  -2.20233  -2.20140  -2.19709
  Beta  occ. eigenvalues --   -2.19580  -2.19384  -2.19204  -2.18793  -1.13939
  Beta  occ. eigenvalues --   -1.13889  -1.13856  -1.13815  -1.13802  -1.13785
  Beta  occ. eigenvalues --   -1.13373  -1.13364  -1.13353  -1.13330  -1.13231
  Beta  occ. eigenvalues --   -1.13183  -1.13092  -1.13041  -1.13010  -1.12932
  Beta  occ. eigenvalues --   -1.12887  -1.12868  -1.12476  -1.12443  -1.12422
  Beta  occ. eigenvalues --   -0.17668  -0.13117  -0.11784
  Beta virt. eigenvalues --   -0.06745  -0.05852  -0.05521  -0.04332  -0.02644
  Beta virt. eigenvalues --   -0.01988  -0.01756  -0.01471  -0.01157  -0.00534
  Beta virt. eigenvalues --   -0.00378   0.00115   0.00357   0.00776   0.00818

 Mulliken charges and spin densities:
               1          2
     1  Na   0.163142  -0.011670
     2  Na   0.055409   0.076067
     3  Na  -0.231564   0.275541
     4  Na   0.141071  -0.014486
     5  Na   0.273299  -0.000650
     6  Na  -0.416096   0.700970
     7  Na   0.014738  -0.025772
 Sum of Mulliken charges =  -0.00000   1.00000

 Dipole moment (field-independent basis, Debye):
    X=             -0.0080    Y=             -0.0567    Z=              0.0246  Tot=              0.0624
 Quadrupole moment (field-independent basis, Debye-Ang):
   XX=            -53.4250   YY=            -64.7844   ZZ=            -75.0136
   XY=              0.7004   XZ=              1.1225   YZ=             -1.5289

 Normal termination of Gaussian 16 at Fri Dec  8 00:02:20 2023.
