 Gaussian 16, Revision B.01,
 Gaussian 16:  ES64L-G16RevB.01 20-Dec-2017

 -------------------------
 #P B3LYP/6-311+g(d) force
 -------------------------

 -----
 DPGEN
 -----
 Symbolic Z-matrix:
 Charge =  0 Multiplicity = 2

                         Standard orientation:
 ---------------------------------------------------------------------
 Center     Atomic      Atomic             Coordinates (Angstroms)
 Number     Number       Type             X           Y           Z
 ---------------------------------------------------------------------
      1         11           0        1.809093    2.199218    0.207156
      2         11           0       -1.691058    2.135439   -0.005103
      3         11           0        0.326622    0.061662   -1.859331
      4         11           0        3.113385   -0.856423   -0.122280
      5         11           0        0.081497   -0.241599    1.881666
      6         11           0       -3.638911   -0.631181   -0.124013
      7         11           0       -0.000628   -2.667116    0.021905
 ---------------------------------------------------------------------

 SCF Done:  E(UB3LYP) =  -1136.13249055     A.U. after   21 cycles

 The electronic state is 2-A.
 Alpha  occ. eigenvalues --  -38.44963 -38.44497 -38.43587 -38.43468 -38.43193
 Alpha  occ. eigenvalues --  -38.43042 -38.43011  -2.20719  -2.20348  -2.19534
 Alpha  occ. eigenvalues --   -2.19418  -2.19061  -2.18921  -2.18909  -1.14393
 Alpha  occ. eigenvalues --   -1.14387  -1.14351  -1.14023  -1.14015  -1.13980
 Alpha  occ. eigenvalues --   -1.13219  -1.13174  -1.13155  -1.13120  -1.13068
 Alpha  occ. eigenvalues --   -1.13023  -1.12748  -1.12736  -1.12687  -1.12618
 Alpha  occ. eigenvalues --   -1.12593  -1.12583  -1.12568  -1.12543  -1.12514
 Alpha  occ. eigenvalues --   -0.18797  -0.13217  -0.12095  -0.10819
 Alpha virt. eigenvalues --   -0.06551  -0.04849  -0.04104  -0.03252  -0.02788
 Alpha virt. eigenvalues --   -0.02562  -0.02171  -0.01070  -0.00262  -0.00112
 Alpha virt. eigenvalues --   -0.00062   0.00290   0.00706   0.00779   0.00875

  Beta  occ. eigenvalues --  -38.44968 -38.44490 -38.43510 -38.43380 -38.43187
  Beta  occ. eigenvalues --  -38.43033 -38.43002  -2.20729  -2.20339  -2.19391
  Beta  occ. eigenvalues --   -2.19257  -2.19054  -2.18909  -2.18896  -1.14398
  Beta  occ. eigenvalues --   -1.14388  -1.14358  -1.14017  -1.13987  -1.13973
  Beta  occ. eigenvalues --   -1.13125  -1.13072  -1.13050  -1.13014  -1.12954
  Beta  occ. eigenvalues --   -1.12910  -1.12744  -1.12706  -1.12686  -1.12606
  Beta  occ. eigenvalues --   -1.12579  -1.12551  -1.12540  -1.12523  -1.12511
  Beta  occ. eigenvalues --   -0.18032  -0.13030  -0.11818
  Beta virt. eigenvalues --   -0.06886  -0.06468  -0.04872  -0.04086  -0.02532
  Beta virt. eigenvalues --   -0.02086  -0.01950  -0.01494  -0.01036  -0.00286
  Beta virt. eigenvalues --   -0.00136   0.00070   0.00310   0.00816   0.00870

 Mulliken charges and spin densities:
               1          2
     1  Na   0.194407  -0.020826
     2  Na   0.064399  -0.087198
     3  Na  -0.339524   0.741488
     4  Na   0.408915  -0.021624
     5  Na  -0.310337   0.692218
     6  Na  -0.073024  -0.107076
     7  Na   0.055164  -0.196983
 Sum of Mulliken charges =  -0.00000   1.00000

 Dipole moment (field-independent basis, Debye):
    X=             -0.1758    Y=             -0.2953    Z=             -0.0585  Tot=              0.3486
 Quadrupole moment (field-independent basis, Debye-Ang):
   XX=            -50.1093   YY=            -68.4136   ZZ=            -74.0027
   XY=              0.8091   XZ=              0.5723   YZ=              0.8924

 Normal termination of Gaussian 16 at Fri Dec  8 03:02:23 2023.
