 Gaussian 16, Revision B.01,
 Gaussian 16:  ES64L-G16RevB.01 20-Dec-2017

 -------------------------
 #P B3LYP/6-311+g(d) force
 -------------------------

 -----
 DPGEN
 -----
 Symbolic Z-matrix:
 Charge =  0 Multiplicity = 2

                         Standard orientation:
 ---------------------------------------------------------------------
 Center     Atomic      Atomic             Coordinates (Angstroms)
 Number     Number       Type             X           Y           Z
 ---------------------------------------------------------------------
      1         11           0       -4.135435   -0.666032   -0.237906
      2         11           0        1.562935    2.066661   -1.055739
      3         11           0       -0.184665    0.819545    2.120363
      4         11           0        4.605684   -0.236188   -0.341203
      5         11           0       -2.298215    1.951957   -0.247033
      6         11           0       -1.517666   -2.147529   -0.726158
      7         11           0        1.967361   -1.788414    0.487676
 ---------------------------------------------------------------------

 SCF Done:  E(UB3LYP) =  -1136.11687475     A.U. after   23 cycles

 The electronic state is 2-A.
 Alpha  occ. eigenvalues --  -38.45020 -38.44591 -38.44334 -38.43961 -38.43866
 Alpha  occ. eigenvalues --  -38.43863 -38.43559  -2.20767  -2.20412  -2.20150
 Alpha  occ. eigenvalues --   -2.19779  -2.19738  -2.19706  -2.19395  -1.14475
 Alpha  occ. eigenvalues --   -1.14432  -1.14371  -1.14078  -1.14058  -1.14023
 Alpha  occ. eigenvalues --   -1.13818  -1.13798  -1.13774  -1.13544  -1.13463
 Alpha  occ. eigenvalues --   -1.13445  -1.13425  -1.13396  -1.13369  -1.13363
 Alpha  occ. eigenvalues --   -1.13310  -1.13286  -1.13075  -1.13059  -1.13037
 Alpha  occ. eigenvalues --   -0.17315  -0.14229  -0.11590  -0.10954
 Alpha virt. eigenvalues --   -0.07085  -0.05595  -0.04191  -0.03366  -0.03216
 Alpha virt. eigenvalues --   -0.02459  -0.02082  -0.01775  -0.00837  -0.00490
 Alpha virt. eigenvalues --   -0.00158  -0.00056   0.00360   0.00621   0.00737

  Beta  occ. eigenvalues --  -38.45013 -38.44524 -38.44286 -38.43952 -38.43849
  Beta  occ. eigenvalues --  -38.43834 -38.43539  -2.20753  -2.20289  -2.20059
  Beta  occ. eigenvalues --   -2.19766  -2.19684  -2.19679  -2.19362  -1.14467
  Beta  occ. eigenvalues --   -1.14423  -1.14354  -1.13998  -1.13971  -1.13932
  Beta  occ. eigenvalues --   -1.13764  -1.13735  -1.13708  -1.13525  -1.13451
  Beta  occ. eigenvalues --   -1.13418  -1.13404  -1.13375  -1.13344  -1.13327
  Beta  occ. eigenvalues --   -1.13279  -1.13254  -1.13057  -1.13031  -1.12985
  Beta  occ. eigenvalues --   -0.16693  -0.13687  -0.11455
  Beta virt. eigenvalues --   -0.07467  -0.06767  -0.05250  -0.03597  -0.03267
  Beta virt. eigenvalues --   -0.02933  -0.02114  -0.01668  -0.01434  -0.00524
  Beta virt. eigenvalues --   -0.00383  -0.00035   0.00029   0.00456   0.00715

 Mulliken charges and spin densities:
               1          2
     1  Na   0.407186   0.222789
     2  Na  -0.143008   0.072308
     3  Na   0.088036   0.233366
     4  Na   0.469340   0.201406
     5  Na  -0.087893   0.199364
     6  Na  -0.271485  -0.094283
     7  Na  -0.462176   0.165049
 Sum of Mulliken charges =  -0.00000   1.00000

 Dipole moment (field-independent basis, Debye):
    X=              0.1795    Y=              0.6792    Z=              0.3084  Tot=              0.7672
 Quadrupole moment (field-independent basis, Debye-Ang):
   XX=            -60.3905   YY=            -74.5287   ZZ=            -66.3125
   XY=             -0.8162   XZ=             -1.4644   YZ=             -1.9206

 Normal termination of Gaussian 16 at Sun Dec  3 22:38:05 2023.
