 Gaussian 16, Revision B.01,
 Gaussian 16:  ES64L-G16RevB.01 20-Dec-2017

 -------------------------
 #P B3LYP/6-311+g(d) force
 -------------------------

 -----
 DPGEN
 -----
 Symbolic Z-matrix:
 Charge =  0 Multiplicity = 2

                         Standard orientation:
 ---------------------------------------------------------------------
 Center     Atomic      Atomic             Coordinates (Angstroms)
 Number     Number       Type             X           Y           Z
 ---------------------------------------------------------------------
      1         11           0       -0.729620   -2.708008   -0.333462
      2         11           0        3.013045   -1.242646   -0.040876
      3         11           0        2.055853    2.220420   -0.020144
      4         11           0       -1.810384    2.345993   -0.398981
      5         11           0        0.275545   -0.002000    2.063100
      6         11           0        0.208307   -0.123537   -1.612704
      7         11           0       -3.012746   -0.490220    0.343067
 ---------------------------------------------------------------------

 SCF Done:  E(UB3LYP) =  -1136.13540424     A.U. after   19 cycles

 The electronic state is 2-A.
 Alpha  occ. eigenvalues --  -38.44396 -38.43907 -38.43791 -38.43746 -38.43365
 Alpha  occ. eigenvalues --  -38.43179 -38.43135  -2.20210  -2.19780  -2.19627
 Alpha  occ. eigenvalues --   -2.19624  -2.19212  -2.19140  -2.19063  -1.13890
 Alpha  occ. eigenvalues --   -1.13869  -1.13845  -1.13463  -1.13442  -1.13434
 Alpha  occ. eigenvalues --   -1.13319  -1.13309  -1.13284  -1.13251  -1.13247
 Alpha  occ. eigenvalues --   -1.13235  -1.12922  -1.12901  -1.12871  -1.12846
 Alpha  occ. eigenvalues --   -1.12797  -1.12748  -1.12706  -1.12689  -1.12668
 Alpha  occ. eigenvalues --   -0.18719  -0.13307  -0.12185  -0.10816
 Alpha virt. eigenvalues --   -0.05851  -0.05335  -0.04291  -0.03381  -0.02760
 Alpha virt. eigenvalues --   -0.02604  -0.01693  -0.01114  -0.00360  -0.00195
 Alpha virt. eigenvalues --   -0.00004   0.00358   0.00771   0.00849   0.00914

  Beta  occ. eigenvalues --  -38.44393 -38.43902 -38.43787 -38.43652 -38.43359
  Beta  occ. eigenvalues --  -38.43171 -38.43068  -2.20207  -2.19773  -2.19620
  Beta  occ. eigenvalues --   -2.19453  -2.19204  -2.19055  -2.19016  -1.13876
  Beta  occ. eigenvalues --   -1.13861  -1.13843  -1.13463  -1.13440  -1.13407
  Beta  occ. eigenvalues --   -1.13307  -1.13279  -1.13247  -1.13177  -1.13131
  Beta  occ. eigenvalues --   -1.13114  -1.12890  -1.12869  -1.12851  -1.12839
  Beta  occ. eigenvalues --   -1.12718  -1.12690  -1.12677  -1.12655  -1.12619
  Beta  occ. eigenvalues --   -0.17990  -0.13094  -0.11925
  Beta virt. eigenvalues --   -0.06897  -0.05817  -0.05299  -0.04261  -0.02587
  Beta virt. eigenvalues --   -0.02008  -0.01606  -0.01529  -0.01047  -0.00391
  Beta virt. eigenvalues --   -0.00237   0.00128   0.00380   0.00826   0.00857

 Mulliken charges and spin densities:
               1          2
     1  Na   0.252247  -0.028182
     2  Na   0.136749  -0.083589
     3  Na   0.080658  -0.055063
     4  Na   0.074434  -0.020185
     5  Na  -0.446276   0.706580
     6  Na  -0.200630   0.397720
     7  Na   0.102818   0.082719
 Sum of Mulliken charges =  -0.00000   1.00000

 Dipole moment (field-independent basis, Debye):
    X=              0.5321    Y=             -0.0282    Z=              0.2466  Tot=              0.5871
 Quadrupole moment (field-independent basis, Debye-Ang):
   XX=            -54.6472   YY=            -64.5683   ZZ=            -74.2312
   XY=             -0.2999   XZ=             -0.4774   YZ=             -0.5027

 Normal termination of Gaussian 16 at Thu Dec  7 04:45:03 2023.
