 Gaussian 16, Revision B.01,
 Gaussian 16:  ES64L-G16RevB.01 20-Dec-2017

 -------------------------
 #P B3LYP/6-311+g(d) force
 -------------------------

 -----
 DPGEN
 -----
 Symbolic Z-matrix:
 Charge =  0 Multiplicity = 2

                         Standard orientation:
 ---------------------------------------------------------------------
 Center     Atomic      Atomic             Coordinates (Angstroms)
 Number     Number       Type             X           Y           Z
 ---------------------------------------------------------------------
      1         11           0       -0.043819   -2.239937   -0.778084
      2         11           0       -0.016742   -0.091154    2.411277
      3         11           0       -2.859411    2.431719   -0.456756
      4         11           0        2.900691   -1.569113   -0.456829
      5         11           0       -2.968695   -1.711456    0.197838
      6         11           0       -0.034248    1.075151   -1.107612
      7         11           0        3.022224    2.104791    0.190168
 ---------------------------------------------------------------------

 SCF Done:  E(UB3LYP) =  -1136.11772494     A.U. after   22 cycles

 The electronic state is 2-A.
 Alpha  occ. eigenvalues --  -38.44994 -38.44868 -38.44501 -38.44367 -38.44045
 Alpha  occ. eigenvalues --  -38.43360 -38.42860  -2.20782  -2.20630  -2.20307
 Alpha  occ. eigenvalues --   -2.20197  -2.19826  -2.19262  -2.18794  -1.14482
 Alpha  occ. eigenvalues --   -1.14438  -1.14407  -1.14305  -1.14287  -1.14269
 Alpha  occ. eigenvalues --   -1.13959  -1.13942  -1.13909  -1.13908  -1.13853
 Alpha  occ. eigenvalues --   -1.13809  -1.13512  -1.13479  -1.13459  -1.12959
 Alpha  occ. eigenvalues --   -1.12941  -1.12875  -1.12473  -1.12463  -1.12422
 Alpha  occ. eigenvalues --   -0.17869  -0.13105  -0.11960  -0.10748
 Alpha virt. eigenvalues --   -0.06802  -0.06014  -0.03883  -0.03205  -0.02714
 Alpha virt. eigenvalues --   -0.02522  -0.02243  -0.01926  -0.00820  -0.00203
 Alpha virt. eigenvalues --   -0.00062   0.00191   0.00400   0.00548   0.00628

  Beta  occ. eigenvalues --  -38.44995 -38.44867 -38.44386 -38.44352 -38.44031
  Beta  occ. eigenvalues --  -38.43337 -38.42842  -2.20785  -2.20629  -2.20172
  Beta  occ. eigenvalues --   -2.20092  -2.19803  -2.19222  -2.18764  -1.14486
  Beta  occ. eigenvalues --   -1.14425  -1.14411  -1.14302  -1.14281  -1.14269
  Beta  occ. eigenvalues --   -1.13889  -1.13825  -1.13814  -1.13798  -1.13792
  Beta  occ. eigenvalues --   -1.13754  -1.13492  -1.13460  -1.13444  -1.12931
  Beta  occ. eigenvalues --   -1.12901  -1.12846  -1.12453  -1.12446  -1.12377
  Beta  occ. eigenvalues --   -0.17231  -0.12952  -0.11679
  Beta virt. eigenvalues --   -0.07066  -0.06427  -0.05883  -0.03783  -0.02676
  Beta virt. eigenvalues --   -0.02164  -0.01899  -0.01863  -0.01550  -0.00831
  Beta virt. eigenvalues --   -0.00059   0.00033   0.00252   0.00486   0.00637

 Mulliken charges and spin densities:
               1          2
     1  Na   0.034294   0.029115
     2  Na  -0.335663   0.640629
     3  Na   0.193628   0.029208
     4  Na   0.232719   0.055264
     5  Na   0.284384   0.079751
     6  Na  -0.705789   0.128799
     7  Na   0.296426   0.037234
 Sum of Mulliken charges =  -0.00000   1.00000

 Dipole moment (field-independent basis, Debye):
    X=              0.1064    Y=              0.1788    Z=              0.5438  Tot=              0.5822
 Quadrupole moment (field-independent basis, Debye-Ang):
   XX=            -49.4536   YY=            -68.6380   ZZ=            -75.1577
   XY=              3.0994   XZ=             -0.6488   YZ=              0.9962

 Normal termination of Gaussian 16 at Thu Dec  7 09:09:03 2023.
