 Gaussian 16, Revision B.01,
 Gaussian 16:  ES64L-G16RevB.01 20-Dec-2017

 -------------------------
 #P B3LYP/6-311+g(d) force
 -------------------------

 -----
 DPGEN
 -----
 Symbolic Z-matrix:
 Charge =  0 Multiplicity = 2

                         Standard orientation:
 ---------------------------------------------------------------------
 Center     Atomic      Atomic             Coordinates (Angstroms)
 Number     Number       Type             X           Y           Z
 ---------------------------------------------------------------------
      1         11           0       -1.532360    2.687969   -0.507007
      2         11           0       -2.579147   -0.909856   -1.483857
      3         11           0       -1.235545   -1.181933    2.624619
      4         11           0       -0.457320    0.182251    0.189809
      5         11           0        2.187666    1.140765    1.713050
      6         11           0        2.285602    0.475989   -1.723892
      7         11           0        1.331104   -2.395184   -0.812722
 ---------------------------------------------------------------------

 SCF Done:  E(UB3LYP) =  -1136.10877421     A.U. after   28 cycles

 The electronic state is 2-A.
 Alpha  occ. eigenvalues --  -38.45721 -38.44310 -38.44105 -38.43925 -38.43814
 Alpha  occ. eigenvalues --  -38.42905 -38.42082  -2.21559  -2.20136  -2.19921
 Alpha  occ. eigenvalues --   -2.19793  -2.19658  -2.18751  -2.18346  -1.15279
 Alpha  occ. eigenvalues --   -1.15159  -1.15132  -1.13879  -1.13773  -1.13731
 Alpha  occ. eigenvalues --   -1.13620  -1.13563  -1.13545  -1.13481  -1.13441
 Alpha  occ. eigenvalues --   -1.13437  -1.13407  -1.13289  -1.13239  -1.12448
 Alpha  occ. eigenvalues --   -1.12416  -1.12367  -1.12137  -1.11961  -1.11948
 Alpha  occ. eigenvalues --   -0.18368  -0.12591  -0.12355  -0.11175
 Alpha virt. eigenvalues --   -0.05489  -0.04871  -0.04339  -0.03260  -0.02973
 Alpha virt. eigenvalues --   -0.02783  -0.01330  -0.01135  -0.00768   0.00226
 Alpha virt. eigenvalues --    0.00350   0.00425   0.00561   0.00803   0.00869

  Beta  occ. eigenvalues --  -38.45612 -38.44292 -38.44085 -38.43904 -38.43789
  Beta  occ. eigenvalues --  -38.42904 -38.42055  -2.21359  -2.20104  -2.19885
  Beta  occ. eigenvalues --   -2.19755  -2.19613  -2.18751  -2.18310  -1.15141
  Beta  occ. eigenvalues --   -1.15022  -1.14989  -1.13858  -1.13747  -1.13705
  Beta  occ. eigenvalues --   -1.13592  -1.13528  -1.13524  -1.13452  -1.13413
  Beta  occ. eigenvalues --   -1.13409  -1.13381  -1.13254  -1.13205  -1.12449
  Beta  occ. eigenvalues --   -1.12404  -1.12371  -1.12009  -1.11952  -1.11936
  Beta  occ. eigenvalues --   -0.17533  -0.12321  -0.11007
  Beta virt. eigenvalues --   -0.08320  -0.05139  -0.04446  -0.04122  -0.02864
  Beta virt. eigenvalues --   -0.02370  -0.02310  -0.01195  -0.00713  -0.00630
  Beta virt. eigenvalues --    0.00369   0.00431   0.00522   0.00602   0.00846

 Mulliken charges and spin densities:
               1          2
     1  Na   0.333178  -0.388563
     2  Na   0.084752  -0.081997
     3  Na   0.108687   0.653134
     4  Na  -1.118138   0.982165
     5  Na   0.262083  -0.087681
     6  Na   0.149699  -0.394434
     7  Na   0.179739   0.317376
 Sum of Mulliken charges =  -0.00000   1.00000

 Dipole moment (field-independent basis, Debye):
    X=             -0.1524    Y=             -0.1256    Z=              0.3310  Tot=              0.3854
 Quadrupole moment (field-independent basis, Debye-Ang):
   XX=            -63.1625   YY=            -69.3399   ZZ=            -58.6271
   XY=              2.0018   XZ=              1.3767   YZ=             -4.6708

 Normal termination of Gaussian 16 at Thu Dec  7 19:33:28 2023.
