 Gaussian 16, Revision B.01,
 Gaussian 16:  ES64L-G16RevB.01 20-Dec-2017

 -------------------------
 #P B3LYP/6-311+g(d) force
 -------------------------

 -----
 DPGEN
 -----
 Symbolic Z-matrix:
 Charge =  0 Multiplicity = 2

                         Standard orientation:
 ---------------------------------------------------------------------
 Center     Atomic      Atomic             Coordinates (Angstroms)
 Number     Number       Type             X           Y           Z
 ---------------------------------------------------------------------
      1         11           0        2.333529    1.391105    1.058961
      2         11           0       -3.575857    0.970543    0.353725
      3         11           0       -0.364697    3.023505   -0.500080
      4         11           0        3.509006   -1.000315   -1.092080
      5         11           0        0.926545   -1.962634    1.262265
      6         11           0       -2.756124   -2.414635   -0.445483
      7         11           0       -0.072402   -0.007569   -0.637307
 ---------------------------------------------------------------------

 SCF Done:  E(UB3LYP) =  -1136.11921173     A.U. after   22 cycles

 The electronic state is 2-A.
 Alpha  occ. eigenvalues --  -38.44657 -38.44632 -38.44375 -38.43722 -38.43681
 Alpha  occ. eigenvalues --  -38.43320 -38.43146  -2.20501  -2.20435  -2.20147
 Alpha  occ. eigenvalues --   -2.19764  -2.19573  -2.19164  -2.19010  -1.14190
 Alpha  occ. eigenvalues --   -1.14177  -1.14118  -1.14112  -1.14077  -1.14065
 Alpha  occ. eigenvalues --   -1.13837  -1.13797  -1.13787  -1.13619  -1.13452
 Alpha  occ. eigenvalues --   -1.13362  -1.13223  -1.13209  -1.13146  -1.12866
 Alpha  occ. eigenvalues --   -1.12811  -1.12780  -1.12662  -1.12654  -1.12612
 Alpha  occ. eigenvalues --   -0.18035  -0.13820  -0.12314  -0.09671
 Alpha virt. eigenvalues --   -0.06591  -0.06084  -0.04639  -0.03075  -0.02674
 Alpha virt. eigenvalues --   -0.02197  -0.01749  -0.01277  -0.01017  -0.00690
 Alpha virt. eigenvalues --   -0.00143   0.00120   0.00465   0.00574   0.00598

  Beta  occ. eigenvalues --  -38.44624 -38.44618 -38.44379 -38.43713 -38.43639
  Beta  occ. eigenvalues --  -38.43323 -38.43049  -2.20480  -2.20374  -2.20158
  Beta  occ. eigenvalues --   -2.19752  -2.19496  -2.19171  -2.18828  -1.14179
  Beta  occ. eigenvalues --   -1.14140  -1.14093  -1.14066  -1.14037  -1.14022
  Beta  occ. eigenvalues --   -1.13847  -1.13806  -1.13777  -1.13588  -1.13431
  Beta  occ. eigenvalues --   -1.13362  -1.13176  -1.13148  -1.13094  -1.12873
  Beta  occ. eigenvalues --   -1.12812  -1.12780  -1.12538  -1.12527  -1.12493
  Beta  occ. eigenvalues --   -0.17579  -0.13330  -0.12118
  Beta virt. eigenvalues --   -0.06346  -0.06091  -0.05896  -0.04465  -0.02744
  Beta virt. eigenvalues --   -0.02247  -0.01970  -0.01512  -0.00894  -0.00782
  Beta virt. eigenvalues --   -0.00449   0.00130   0.00364   0.00613   0.00654

 Mulliken charges and spin densities:
               1          2
     1  Na   0.262367   0.140211
     2  Na   0.376735   0.219325
     3  Na   0.361867  -0.112440
     4  Na   0.079991   0.551390
     5  Na   0.096241  -0.012823
     6  Na   0.284744   0.027039
     7  Na  -1.461946   0.187297
 Sum of Mulliken charges =  -0.00000   1.00000

 Dipole moment (field-independent basis, Debye):
    X=             -0.9998    Y=              0.1574    Z=              1.2057  Tot=              1.5742
 Quadrupole moment (field-independent basis, Debye-Ang):
   XX=            -67.4069   YY=            -63.4422   ZZ=            -68.8123
   XY=              4.0218   XZ=              4.2693   YZ=              1.9423

 Normal termination of Gaussian 16 at Tue Dec  5 23:51:51 2023.
