 Gaussian 16, Revision B.01,
 Gaussian 16:  ES64L-G16RevB.01 20-Dec-2017

 -------------------------
 #P B3LYP/6-311+g(d) force
 -------------------------

 -----
 DPGEN
 -----
 Symbolic Z-matrix:
 Charge =  0 Multiplicity = 2

                         Standard orientation:
 ---------------------------------------------------------------------
 Center     Atomic      Atomic             Coordinates (Angstroms)
 Number     Number       Type             X           Y           Z
 ---------------------------------------------------------------------
      1         11           0       -0.659821    2.042726    0.084151
      2         11           0        5.603286   -0.194460    0.326812
      3         11           0        2.478070    1.547374   -0.618530
      4         11           0        3.015295   -1.763159   -0.115637
      5         11           0       -0.555069   -1.132235   -0.162969
      6         11           0       -3.636421    0.063902    1.169681
      7         11           0       -6.245339   -0.564148   -0.683507
 ---------------------------------------------------------------------

 SCF Done:  E(UB3LYP) =  -1136.11869374     A.U. after   21 cycles

 The electronic state is 2-A.
 Alpha  occ. eigenvalues --  -38.44490 -38.44269 -38.44239 -38.44045 -38.43982
 Alpha  occ. eigenvalues --  -38.43878 -38.43796  -2.20348  -2.20099  -2.19996
 Alpha  occ. eigenvalues --   -2.19931  -2.19854  -2.19701  -2.19667  -1.14036
 Alpha  occ. eigenvalues --   -1.14024  -1.13960  -1.13821  -1.13749  -1.13732
 Alpha  occ. eigenvalues --   -1.13663  -1.13662  -1.13658  -1.13601  -1.13591
 Alpha  occ. eigenvalues --   -1.13528  -1.13525  -1.13520  -1.13483  -1.13386
 Alpha  occ. eigenvalues --   -1.13365  -1.13326  -1.13321  -1.13305  -1.13288
 Alpha  occ. eigenvalues --   -0.17258  -0.14396  -0.11877  -0.11014
 Alpha virt. eigenvalues --   -0.07101  -0.05048  -0.04357  -0.03979  -0.03028
 Alpha virt. eigenvalues --   -0.02183  -0.02132  -0.01819  -0.00791  -0.00570
 Alpha virt. eigenvalues --   -0.00201   0.00065   0.00121   0.00346   0.00654

  Beta  occ. eigenvalues --  -38.44437 -38.44255 -38.44255 -38.44001 -38.43922
  Beta  occ. eigenvalues --  -38.43872 -38.43769  -2.20255  -2.20073  -2.20025
  Beta  occ. eigenvalues --   -2.19853  -2.19744  -2.19689  -2.19620  -1.13973
  Beta  occ. eigenvalues --   -1.13955  -1.13881  -1.13797  -1.13732  -1.13708
  Beta  occ. eigenvalues --   -1.13683  -1.13682  -1.13676  -1.13552  -1.13542
  Beta  occ. eigenvalues --   -1.13459  -1.13451  -1.13445  -1.13402  -1.13370
  Beta  occ. eigenvalues --   -1.13353  -1.13313  -1.13293  -1.13276  -1.13241
  Beta  occ. eigenvalues --   -0.16555  -0.14315  -0.11676
  Beta virt. eigenvalues --   -0.07195  -0.06786  -0.04445  -0.04223  -0.03803
  Beta virt. eigenvalues --   -0.02420  -0.02072  -0.01748  -0.01606  -0.00507
  Beta virt. eigenvalues --   -0.00420  -0.00090   0.00226   0.00361   0.00551

 Mulliken charges and spin densities:
               1          2
     1  Na  -0.152469   0.310569
     2  Na   0.469185   0.070403
     3  Na   0.033754   0.104026
     4  Na  -0.445907   0.031514
     5  Na  -0.218832   0.442651
     6  Na   0.107103   0.146568
     7  Na   0.207165  -0.105730
 Sum of Mulliken charges =  -0.00000   1.00000

 Dipole moment (field-independent basis, Debye):
    X=              0.9257    Y=              0.1630    Z=             -0.1353  Tot=              0.9496
 Quadrupole moment (field-independent basis, Debye-Ang):
   XX=            -56.6029   YY=            -71.0426   ZZ=            -68.7608
   XY=              0.2070   XZ=              5.0461   YZ=              1.1908

 Normal termination of Gaussian 16 at Tue Nov 28 23:37:35 2023.
