 Gaussian 16, Revision B.01,
 Gaussian 16:  ES64L-G16RevB.01 20-Dec-2017

 -------------------------
 #P B3LYP/6-311+g(d) force
 -------------------------

 -----
 DPGEN
 -----
 Symbolic Z-matrix:
 Charge =  0 Multiplicity = 2

                         Standard orientation:
 ---------------------------------------------------------------------
 Center     Atomic      Atomic             Coordinates (Angstroms)
 Number     Number       Type             X           Y           Z
 ---------------------------------------------------------------------
      1         11           0        2.113420    1.698948   -0.859028
      2         11           0       -1.154783    1.782680   -0.755742
      3         11           0        0.523712   -0.382177    1.580378
      4         11           0        0.827189   -1.241337   -1.536244
      5         11           0       -3.656721    0.759465    1.225200
      6         11           0       -2.737484   -1.929609   -0.653033
      7         11           0        4.084668   -0.687971    0.998470
 ---------------------------------------------------------------------

 SCF Done:  E(UB3LYP) =  -1136.12016650     A.U. after   29 cycles

 The electronic state is 2-A.
 Alpha  occ. eigenvalues --  -38.45504 -38.44521 -38.44514 -38.44289 -38.43930
 Alpha  occ. eigenvalues --  -38.43278 -38.42321  -2.21331  -2.20420  -2.20343
 Alpha  occ. eigenvalues --   -2.20094  -2.19729  -2.19179  -2.18221  -1.15068
 Alpha  occ. eigenvalues --   -1.14995  -1.14923  -1.14121  -1.14045  -1.14024
 Alpha  occ. eigenvalues --   -1.14004  -1.13993  -1.13971  -1.13763  -1.13748
 Alpha  occ. eigenvalues --   -1.13727  -1.13398  -1.13393  -1.13345  -1.12871
 Alpha  occ. eigenvalues --   -1.12855  -1.12789  -1.11922  -1.11891  -1.11844
 Alpha  occ. eigenvalues --   -0.18349  -0.14259  -0.11482  -0.10723
 Alpha virt. eigenvalues --   -0.07007  -0.05365  -0.04831  -0.03167  -0.02886
 Alpha virt. eigenvalues --   -0.02375  -0.02166  -0.01225  -0.01187  -0.00179
 Alpha virt. eigenvalues --   -0.00057   0.00263   0.00299   0.00411   0.00556

  Beta  occ. eigenvalues --  -38.45501 -38.44466 -38.44443 -38.44256 -38.43902
  Beta  occ. eigenvalues --  -38.43278 -38.42314  -2.21327  -2.20279  -2.20255
  Beta  occ. eigenvalues --   -2.20036  -2.19676  -2.19181  -2.18211  -1.15049
  Beta  occ. eigenvalues --   -1.14992  -1.14922  -1.14029  -1.13946  -1.13931
  Beta  occ. eigenvalues --   -1.13926  -1.13925  -1.13916  -1.13727  -1.13704
  Beta  occ. eigenvalues --   -1.13668  -1.13361  -1.13352  -1.13314  -1.12864
  Beta  occ. eigenvalues --   -1.12857  -1.12788  -1.11917  -1.11871  -1.11828
  Beta  occ. eigenvalues --   -0.17737  -0.13840  -0.10594
  Beta virt. eigenvalues --   -0.07678  -0.06827  -0.04888  -0.04470  -0.02798
  Beta virt. eigenvalues --   -0.02710  -0.01880  -0.01637  -0.01139  -0.00745
  Beta virt. eigenvalues --   -0.00066   0.00007   0.00330   0.00400   0.00567

 Mulliken charges and spin densities:
               1          2
     1  Na   0.172772   0.001837
     2  Na  -0.630733   0.128919
     3  Na  -0.760394   0.067144
     4  Na   0.011734   0.298035
     5  Na   0.912558   0.225514
     6  Na  -0.128405   0.107136
     7  Na   0.422467   0.171415
 Sum of Mulliken charges =  -0.00000   1.00000

 Dipole moment (field-independent basis, Debye):
    X=             -0.0829    Y=             -0.0454    Z=             -0.0507  Tot=              0.1073
 Quadrupole moment (field-independent basis, Debye-Ang):
   XX=            -53.9709   YY=            -75.2564   ZZ=            -69.1240
   XY=              1.3434   XZ=             -3.8390   YZ=              5.1845

 Normal termination of Gaussian 16 at Thu Dec  7 01:56:42 2023.
