 Gaussian 16, Revision B.01,
 Gaussian 16:  ES64L-G16RevB.01 20-Dec-2017

 -------------------------
 #P B3LYP/6-311+g(d) force
 -------------------------

 -----
 DPGEN
 -----
 Symbolic Z-matrix:
 Charge =  0 Multiplicity = 2

                         Standard orientation:
 ---------------------------------------------------------------------
 Center     Atomic      Atomic             Coordinates (Angstroms)
 Number     Number       Type             X           Y           Z
 ---------------------------------------------------------------------
      1         11           0       -2.253889   -1.771273   -0.036196
      2         11           0        0.641540    2.874838   -0.321297
      3         11           0       -0.294994    0.321315    1.823811
      4         11           0       -2.484991    1.389115    0.013525
      5         11           0        3.182150    0.383498    0.086411
      6         11           0       -0.082254   -0.452725   -1.778929
      7         11           0        1.292436   -2.744768    0.212675
 ---------------------------------------------------------------------

 SCF Done:  E(UB3LYP) =  -1136.13682409     A.U. after   19 cycles

 The electronic state is 2-A.
 Alpha  occ. eigenvalues --  -38.44095 -38.43651 -38.43548 -38.43508 -38.43437
 Alpha  occ. eigenvalues --  -38.43349 -38.43248  -2.19887  -2.19481  -2.19474
 Alpha  occ. eigenvalues --   -2.19446  -2.19313  -2.19281  -2.19217  -1.13564
 Alpha  occ. eigenvalues --   -1.13544  -1.13531  -1.13262  -1.13202  -1.13171
 Alpha  occ. eigenvalues --   -1.13151  -1.13146  -1.13124  -1.13103  -1.13093
 Alpha  occ. eigenvalues --   -1.13028  -1.12978  -1.12957  -1.12949  -1.12915
 Alpha  occ. eigenvalues --   -1.12913  -1.12904  -1.12881  -1.12832  -1.12828
 Alpha  occ. eigenvalues --   -0.18951  -0.13003  -0.12681  -0.10714
 Alpha virt. eigenvalues --   -0.05560  -0.05079  -0.04848  -0.03119  -0.03023
 Alpha virt. eigenvalues --   -0.02383  -0.01344  -0.01121  -0.00384  -0.00268
 Alpha virt. eigenvalues --    0.00012   0.00367   0.00841   0.00894   0.00925

  Beta  occ. eigenvalues --  -38.44095 -38.43647 -38.43538 -38.43498 -38.43430
  Beta  occ. eigenvalues --  -38.43269 -38.43173  -2.19890  -2.19475  -2.19461
  Beta  occ. eigenvalues --   -2.19433  -2.19270  -2.19168  -2.19079  -1.13551
  Beta  occ. eigenvalues --   -1.13547  -1.13536  -1.13245  -1.13174  -1.13157
  Beta  occ. eigenvalues --   -1.13137  -1.13126  -1.13107  -1.13086  -1.13053
  Beta  occ. eigenvalues --   -1.13024  -1.12950  -1.12921  -1.12910  -1.12877
  Beta  occ. eigenvalues --   -1.12818  -1.12810  -1.12793  -1.12733  -1.12728
  Beta  occ. eigenvalues --   -0.18202  -0.12761  -0.12440
  Beta virt. eigenvalues --   -0.06792  -0.05557  -0.05050  -0.04781  -0.02333
  Beta virt. eigenvalues --   -0.02242  -0.01376  -0.01253  -0.01051  -0.00419
  Beta virt. eigenvalues --   -0.00324   0.00146   0.00394   0.00859   0.00905

 Mulliken charges and spin densities:
               1          2
     1  Na   0.408954  -0.051051
     2  Na  -0.052469  -0.079292
     3  Na  -0.389429   0.679869
     4  Na   0.496554   0.042178
     5  Na  -0.120167  -0.115066
     6  Na  -0.284675   0.649125
     7  Na  -0.058767  -0.125761
 Sum of Mulliken charges =  -0.00000   1.00000

 Dipole moment (field-independent basis, Debye):
    X=              0.2967    Y=             -0.0726    Z=              0.0316  Tot=              0.3071
 Quadrupole moment (field-independent basis, Debye-Ang):
   XX=            -58.0298   YY=            -61.2645   ZZ=            -74.3500
   XY=              0.0355   XZ=              0.5341   YZ=             -1.7621

 Normal termination of Gaussian 16 at Fri Dec  8 02:17:59 2023.
