 Gaussian 16, Revision B.01,
 Gaussian 16:  ES64L-G16RevB.01 20-Dec-2017

 -------------------------
 #P B3LYP/6-311+g(d) force
 -------------------------

 -----
 DPGEN
 -----
 Symbolic Z-matrix:
 Charge =  0 Multiplicity = 2

                         Standard orientation:
 ---------------------------------------------------------------------
 Center     Atomic      Atomic             Coordinates (Angstroms)
 Number     Number       Type             X           Y           Z
 ---------------------------------------------------------------------
      1         11           0        1.382289   -1.798448    0.653770
      2         11           0       -0.835734    0.073590    1.777904
      3         11           0        3.301206    0.190123   -0.626365
      4         11           0        1.088796    2.175709    0.558703
      5         11           0       -0.280022   -0.397829   -1.757650
      6         11           0       -2.634919    1.715316   -0.527614
      7         11           0       -2.021616   -1.958460   -0.078749
 ---------------------------------------------------------------------

 SCF Done:  E(UB3LYP) =  -1136.12536590     A.U. after   20 cycles

 The electronic state is 2-A.
 Alpha  occ. eigenvalues --  -38.44246 -38.43833 -38.43793 -38.43527 -38.43442
 Alpha  occ. eigenvalues --  -38.43207 -38.43139  -2.20122  -2.19806  -2.19676
 Alpha  occ. eigenvalues --   -2.19511  -2.19489  -2.19117  -2.19099  -1.13818
 Alpha  occ. eigenvalues --   -1.13777  -1.13759  -1.13605  -1.13461  -1.13430
 Alpha  occ. eigenvalues --   -1.13356  -1.13327  -1.13307  -1.13300  -1.13221
 Alpha  occ. eigenvalues --   -1.13131  -1.13109  -1.13060  -1.13046  -1.12801
 Alpha  occ. eigenvalues --   -1.12793  -1.12780  -1.12761  -1.12716  -1.12701
 Alpha  occ. eigenvalues --   -0.19532  -0.13730  -0.11960  -0.11438
 Alpha virt. eigenvalues --   -0.05843  -0.05064  -0.03903  -0.03450  -0.02881
 Alpha virt. eigenvalues --   -0.02731  -0.01655  -0.00910  -0.00271   0.00216
 Alpha virt. eigenvalues --    0.00311   0.00338   0.00783   0.00906   0.00909

  Beta  occ. eigenvalues --  -38.44238 -38.43822 -38.43725 -38.43517 -38.43357
  Beta  occ. eigenvalues --  -38.43194 -38.43120  -2.20109  -2.19681  -2.19658
  Beta  occ. eigenvalues --   -2.19482  -2.19352  -2.19087  -2.19079  -1.13812
  Beta  occ. eigenvalues --   -1.13770  -1.13738  -1.13536  -1.13376  -1.13358
  Beta  occ. eigenvalues --   -1.13335  -1.13291  -1.13277  -1.13246  -1.13125
  Beta  occ. eigenvalues --   -1.13090  -1.13055  -1.12990  -1.12975  -1.12780
  Beta  occ. eigenvalues --   -1.12767  -1.12727  -1.12715  -1.12703  -1.12694
  Beta  occ. eigenvalues --   -0.18769  -0.13472  -0.11694
  Beta virt. eigenvalues --   -0.07420  -0.05713  -0.05040  -0.03672  -0.02945
  Beta virt. eigenvalues --   -0.02114  -0.01659  -0.01547  -0.00867  -0.00087
  Beta virt. eigenvalues --    0.00227   0.00296   0.00366   0.00882   0.00912

 Mulliken charges and spin densities:
               1          2
     1  Na  -0.048828  -0.015167
     2  Na   0.275510   0.466768
     3  Na   0.288252   0.026214
     4  Na  -0.396856  -0.045661
     5  Na  -0.355054   0.743420
     6  Na  -0.168219  -0.072632
     7  Na   0.405194  -0.102942
 Sum of Mulliken charges =  -0.00000   1.00000

 Dipole moment (field-independent basis, Debye):
    X=             -0.0140    Y=              0.1330    Z=             -0.3346  Tot=              0.3604
 Quadrupole moment (field-independent basis, Debye-Ang):
   XX=            -53.7351   YY=            -70.1240   ZZ=            -70.4134
   XY=              0.0546   XZ=             -0.4103   YZ=             -1.4512

 Normal termination of Gaussian 16 at Thu Dec  7 10:32:39 2023.
