 Gaussian 16, Revision B.01,
 Gaussian 16:  ES64L-G16RevB.01 20-Dec-2017

 -------------------------
 #P B3LYP/6-311+g(d) force
 -------------------------

 -----
 DPGEN
 -----
 Symbolic Z-matrix:
 Charge =  0 Multiplicity = 2

                         Standard orientation:
 ---------------------------------------------------------------------
 Center     Atomic      Atomic             Coordinates (Angstroms)
 Number     Number       Type             X           Y           Z
 ---------------------------------------------------------------------
      1         11           0       -1.605402   -0.316357    1.889260
      2         11           0        3.824268   -1.407995   -0.647856
      3         11           0        2.006916    0.331720    1.500793
      4         11           0        0.491407    2.969900   -0.166401
      5         11           0       -2.676111    1.066441   -0.944741
      6         11           0        0.243640   -0.171933   -1.453247
      7         11           0       -2.284718   -2.471776   -0.177808
 ---------------------------------------------------------------------

 SCF Done:  E(UB3LYP) =  -1136.12618951     A.U. after   22 cycles

 The electronic state is 2-A.
 Alpha  occ. eigenvalues --  -38.44424 -38.44000 -38.43998 -38.43845 -38.43816
 Alpha  occ. eigenvalues --  -38.43629 -38.43158  -2.20299  -2.19913  -2.19785
 Alpha  occ. eigenvalues --   -2.19743  -2.19693  -2.19504  -2.18979  -1.14007
 Alpha  occ. eigenvalues --   -1.13986  -1.13879  -1.13613  -1.13567  -1.13543
 Alpha  occ. eigenvalues --   -1.13458  -1.13443  -1.13442  -1.13425  -1.13394
 Alpha  occ. eigenvalues --   -1.13364  -1.13343  -1.13342  -1.13312  -1.13189
 Alpha  occ. eigenvalues --   -1.13161  -1.13118  -1.12659  -1.12641  -1.12613
 Alpha  occ. eigenvalues --   -0.18356  -0.13562  -0.11560  -0.11147
 Alpha virt. eigenvalues --   -0.06262  -0.05229  -0.04608  -0.03212  -0.02797
 Alpha virt. eigenvalues --   -0.02592  -0.01954  -0.01208  -0.00562  -0.00172
 Alpha virt. eigenvalues --    0.00168   0.00271   0.00317   0.00663   0.00737

  Beta  occ. eigenvalues --  -38.44399 -38.43989 -38.43928 -38.43843 -38.43767
  Beta  occ. eigenvalues --  -38.43596 -38.43160  -2.20255  -2.19784  -2.19763
  Beta  occ. eigenvalues --   -2.19692  -2.19655  -2.19447  -2.18984  -1.13966
  Beta  occ. eigenvalues --   -1.13945  -1.13853  -1.13543  -1.13473  -1.13456
  Beta  occ. eigenvalues --   -1.13443  -1.13427  -1.13407  -1.13377  -1.13353
  Beta  occ. eigenvalues --   -1.13328  -1.13310  -1.13298  -1.13293  -1.13151
  Beta  occ. eigenvalues --   -1.13122  -1.13058  -1.12664  -1.12629  -1.12616
  Beta  occ. eigenvalues --   -0.17633  -0.13381  -0.11344
  Beta virt. eigenvalues --   -0.07293  -0.06102  -0.05075  -0.04019  -0.03047
  Beta virt. eigenvalues --   -0.02220  -0.01877  -0.01648  -0.01126  -0.00218
  Beta virt. eigenvalues --   -0.00173   0.00258   0.00297   0.00434   0.00747

 Mulliken charges and spin densities:
               1          2
     1  Na  -0.202984   0.412231
     2  Na   0.098522   0.104075
     3  Na   0.146297   0.066023
     4  Na  -0.201972   0.040060
     5  Na   0.829168   0.055087
     6  Na  -0.633728   0.276103
     7  Na  -0.035302   0.046421
 Sum of Mulliken charges =  -0.00000   1.00000

 Dipole moment (field-independent basis, Debye):
    X=             -0.4840    Y=             -0.0297    Z=             -0.2351  Tot=              0.5389
 Quadrupole moment (field-independent basis, Debye-Ang):
   XX=            -57.2952   YY=            -66.8572   ZZ=            -70.3856
   XY=             -0.2297   XZ=              0.6629   YZ=              2.6533

 Normal termination of Gaussian 16 at Wed Nov 29 16:03:21 2023.
