 Gaussian 16, Revision B.01,
 Gaussian 16:  ES64L-G16RevB.01 20-Dec-2017

 -------------------------
 #P B3LYP/6-311+g(d) force
 -------------------------

 -----
 DPGEN
 -----
 Symbolic Z-matrix:
 Charge =  0 Multiplicity = 2

                         Standard orientation:
 ---------------------------------------------------------------------
 Center     Atomic      Atomic             Coordinates (Angstroms)
 Number     Number       Type             X           Y           Z
 ---------------------------------------------------------------------
      1         11           0        2.662908    1.079981   -0.246014
      2         11           0       -0.025476    0.090894   -1.543687
      3         11           0       -0.234834    3.053289    0.325110
      4         11           0        0.039074   -0.494287    2.149863
      5         11           0        2.130024   -2.016400   -0.244114
      6         11           0       -2.802582    0.845318   -0.336379
      7         11           0       -1.769115   -2.558796   -0.104780
 ---------------------------------------------------------------------

 SCF Done:  E(UB3LYP) =  -1136.13758147     A.U. after   19 cycles

 The electronic state is 2-A.
 Alpha  occ. eigenvalues --  -38.43740 -38.43699 -38.43684 -38.43612 -38.43507
 Alpha  occ. eigenvalues --  -38.43461 -38.43072  -2.19612  -2.19563  -2.19511
 Alpha  occ. eigenvalues --   -2.19498  -2.19406  -2.19294  -2.19106  -1.13296
 Alpha  occ. eigenvalues --   -1.13281  -1.13249  -1.13238  -1.13229  -1.13217
 Alpha  occ. eigenvalues --   -1.13196  -1.13184  -1.13168  -1.13159  -1.13140
 Alpha  occ. eigenvalues --   -1.13131  -1.13112  -1.13049  -1.13011  -1.12957
 Alpha  occ. eigenvalues --   -1.12954  -1.12936  -1.12776  -1.12745  -1.12714
 Alpha  occ. eigenvalues --   -0.18794  -0.13014  -0.12584  -0.10869
 Alpha virt. eigenvalues --   -0.05328  -0.04989  -0.04952  -0.03130  -0.03065
 Alpha virt. eigenvalues --   -0.02627  -0.01266  -0.01215  -0.00282  -0.00236
 Alpha virt. eigenvalues --   -0.00003   0.00362   0.00866   0.00874   0.00906

  Beta  occ. eigenvalues --  -38.43691 -38.43681 -38.43641 -38.43604 -38.43500
  Beta  occ. eigenvalues --  -38.43456 -38.43013  -2.19552  -2.19509  -2.19488
  Beta  occ. eigenvalues --   -2.19429  -2.19397  -2.19287  -2.19000  -1.13279
  Beta  occ. eigenvalues --   -1.13235  -1.13203  -1.13193  -1.13178  -1.13166
  Beta  occ. eigenvalues --   -1.13150  -1.13147  -1.13136  -1.13126  -1.13101
  Beta  occ. eigenvalues --   -1.13095  -1.13087  -1.13023  -1.13007  -1.12950
  Beta  occ. eigenvalues --   -1.12938  -1.12930  -1.12702  -1.12666  -1.12642
  Beta  occ. eigenvalues --   -0.18073  -0.12741  -0.12373
  Beta virt. eigenvalues --   -0.06931  -0.05337  -0.04957  -0.04870  -0.02342
  Beta virt. eigenvalues --   -0.02286  -0.01565  -0.01184  -0.01135  -0.00319
  Beta virt. eigenvalues --   -0.00281   0.00143   0.00391   0.00877   0.00899

 Mulliken charges and spin densities:
               1          2
     1  Na   0.240076   0.048181
     2  Na  -0.278502   0.224710
     3  Na   0.023688   0.050425
     4  Na  -0.666483   0.786599
     5  Na   0.314808  -0.026259
     6  Na   0.205425  -0.012153
     7  Na   0.160988  -0.071504
 Sum of Mulliken charges =  -0.00000   1.00000

 Dipole moment (field-independent basis, Debye):
    X=             -0.1068    Y=             -0.1660    Z=              0.2312  Tot=              0.3040
 Quadrupole moment (field-independent basis, Debye-Ang):
   XX=            -60.2460   YY=            -59.8705   ZZ=            -73.7668
   XY=              0.2495   XZ=             -0.0328   YZ=              1.4230

 Normal termination of Gaussian 16 at Thu Dec  7 09:20:00 2023.
