 Gaussian 16, Revision B.01,
 Gaussian 16:  ES64L-G16RevB.01 20-Dec-2017

 -------------------------
 #P B3LYP/6-311+g(d) force
 -------------------------

 -----
 DPGEN
 -----
 Symbolic Z-matrix:
 Charge =  0 Multiplicity = 2

                         Standard orientation:
 ---------------------------------------------------------------------
 Center     Atomic      Atomic             Coordinates (Angstroms)
 Number     Number       Type             X           Y           Z
 ---------------------------------------------------------------------
      1         11           0        0.073736    0.002585    1.768845
      2         11           0       -1.922143    2.279977    0.042443
      3         11           0        0.295246   -2.902889    0.087447
      4         11           0        2.726340   -0.768111    0.041909
      5         11           0        1.697796    2.618014   -0.148944
      6         11           0        0.199786   -0.271251   -1.662696
      7         11           0       -3.070760   -0.958325   -0.129004
 ---------------------------------------------------------------------

 SCF Done:  E(UB3LYP) =  -1136.13785694     A.U. after   19 cycles

 The electronic state is 2-A.
 Alpha  occ. eigenvalues --  -38.43893 -38.43759 -38.43611 -38.43538 -38.43511
 Alpha  occ. eigenvalues --  -38.43069 -38.43064  -2.19700  -2.19593  -2.19553
 Alpha  occ. eigenvalues --   -2.19415  -2.19368  -2.19070  -2.19043  -1.13374
 Alpha  occ. eigenvalues --   -1.13366  -1.13348  -1.13296  -1.13274  -1.13261
 Alpha  occ. eigenvalues --   -1.13227  -1.13217  -1.13193  -1.13109  -1.13078
 Alpha  occ. eigenvalues --   -1.13038  -1.13030  -1.13023  -1.13011  -1.12771
 Alpha  occ. eigenvalues --   -1.12713  -1.12687  -1.12676  -1.12665  -1.12652
 Alpha  occ. eigenvalues --   -0.18995  -0.13084  -0.12652  -0.10499
 Alpha virt. eigenvalues --   -0.05400  -0.05208  -0.05017  -0.03044  -0.02790
 Alpha virt. eigenvalues --   -0.02215  -0.01399  -0.01263  -0.00426  -0.00315
 Alpha virt. eigenvalues --    0.00032   0.00357   0.00855   0.00879   0.00883

  Beta  occ. eigenvalues --  -38.43891 -38.43757 -38.43600 -38.43534 -38.43502
  Beta  occ. eigenvalues --  -38.42991 -38.42985  -2.19701  -2.19591  -2.19538
  Beta  occ. eigenvalues --   -2.19404  -2.19365  -2.18937  -2.18891  -1.13372
  Beta  occ. eigenvalues --   -1.13354  -1.13350  -1.13286  -1.13265  -1.13245
  Beta  occ. eigenvalues --   -1.13221  -1.13189  -1.13171  -1.13099  -1.13037
  Beta  occ. eigenvalues --   -1.13029  -1.13022  -1.13015  -1.13007  -1.12681
  Beta  occ. eigenvalues --   -1.12616  -1.12589  -1.12578  -1.12552  -1.12543
  Beta  occ. eigenvalues --   -0.18256  -0.12831  -0.12407
  Beta virt. eigenvalues --   -0.06569  -0.05398  -0.05194  -0.04981  -0.02230
  Beta virt. eigenvalues --   -0.02040  -0.01337  -0.01231  -0.01128  -0.00470
  Beta virt. eigenvalues --   -0.00378   0.00164   0.00384   0.00862   0.00886

 Mulliken charges and spin densities:
               1          2
     1  Na  -0.304725   0.692157
     2  Na  -0.024634  -0.114826
     3  Na   0.278293  -0.081373
     4  Na   0.504145   0.009184
     5  Na  -0.007883  -0.103967
     6  Na  -0.401801   0.719328
     7  Na  -0.043395  -0.120503
 Sum of Mulliken charges =  -0.00000   1.00000

 Dipole moment (field-independent basis, Debye):
    X=             -0.1947    Y=              0.0347    Z=              0.0387  Tot=              0.2015
 Quadrupole moment (field-independent basis, Debye-Ang):
   XX=            -57.7001   YY=            -58.8117   ZZ=            -75.8838
   XY=              0.7200   XZ=              0.2828   YZ=             -0.6213

 Normal termination of Gaussian 16 at Sun Dec  3 12:52:37 2023.
