 Gaussian 16, Revision B.01,
 Gaussian 16:  ES64L-G16RevB.01 20-Dec-2017

 -------------------------
 #P B3LYP/6-311+g(d) force
 -------------------------

 -----
 DPGEN
 -----
 Symbolic Z-matrix:
 Charge =  0 Multiplicity = 2

                         Standard orientation:
 ---------------------------------------------------------------------
 Center     Atomic      Atomic             Coordinates (Angstroms)
 Number     Number       Type             X           Y           Z
 ---------------------------------------------------------------------
      1         11           0        4.122453   -0.697022    0.743588
      2         11           0        0.681351   -1.602636   -1.148330
      3         11           0       -1.021345    1.914713   -0.165528
      4         11           0        0.590226   -0.179723    1.876688
      5         11           0        2.171111    1.990157   -1.222617
      6         11           0       -4.283182    0.749675    0.541254
      7         11           0       -2.260612   -2.175163   -0.625055
 ---------------------------------------------------------------------

 SCF Done:  E(UB3LYP) =  -1136.11449846     A.U. after   25 cycles

 The electronic state is 2-A.
 Alpha  occ. eigenvalues --  -38.46664 -38.44757 -38.44482 -38.44266 -38.43415
 Alpha  occ. eigenvalues --  -38.43079 -38.42976  -2.22461  -2.20544  -2.20273
 Alpha  occ. eigenvalues --   -2.20089  -2.19244  -2.18977  -2.18830  -1.16163
 Alpha  occ. eigenvalues --   -1.16111  -1.16075  -1.14204  -1.14194  -1.14159
 Alpha  occ. eigenvalues --   -1.13930  -1.13914  -1.13892  -1.13759  -1.13735
 Alpha  occ. eigenvalues --   -1.13709  -1.12987  -1.12908  -1.12872  -1.12662
 Alpha  occ. eigenvalues --   -1.12622  -1.12583  -1.12557  -1.12502  -1.12447
 Alpha  occ. eigenvalues --   -0.17840  -0.13798  -0.11584  -0.10804
 Alpha virt. eigenvalues --   -0.07742  -0.05088  -0.04447  -0.03296  -0.03190
 Alpha virt. eigenvalues --   -0.02539  -0.02033  -0.01595  -0.01187  -0.00449
 Alpha virt. eigenvalues --   -0.00250   0.00119   0.00244   0.00533   0.00716

  Beta  occ. eigenvalues --  -38.46653 -38.44698 -38.44418 -38.44219 -38.43415
  Beta  occ. eigenvalues --  -38.43049 -38.42981  -2.22441  -2.20434  -2.20153
  Beta  occ. eigenvalues --   -2.20002  -2.19249  -2.18926  -2.18843  -1.16137
  Beta  occ. eigenvalues --   -1.16110  -1.16057  -1.14123  -1.14118  -1.14088
  Beta  occ. eigenvalues --   -1.13847  -1.13834  -1.13814  -1.13692  -1.13676
  Beta  occ. eigenvalues --   -1.13650  -1.12967  -1.12913  -1.12875  -1.12629
  Beta  occ. eigenvalues --   -1.12576  -1.12572  -1.12549  -1.12504  -1.12428
  Beta  occ. eigenvalues --   -0.17412  -0.13176  -0.11145
  Beta virt. eigenvalues --   -0.07507  -0.07442  -0.05013  -0.03829  -0.03049
  Beta virt. eigenvalues --   -0.02902  -0.02163  -0.01705  -0.01310  -0.00770
  Beta virt. eigenvalues --   -0.00250  -0.00122   0.00193   0.00403   0.00640

 Mulliken charges and spin densities:
               1          2
     1  Na   0.254959   0.364649
     2  Na  -0.059813   0.142889
     3  Na  -0.487675   0.019232
     4  Na   0.049206   0.105141
     5  Na   0.233315   0.095263
     6  Na   0.193898   0.380838
     7  Na  -0.183890  -0.108012
 Sum of Mulliken charges =  -0.00000   1.00000

 Dipole moment (field-independent basis, Debye):
    X=              0.7702    Y=             -0.0230    Z=              0.3096  Tot=              0.8304
 Quadrupole moment (field-independent basis, Debye-Ang):
   XX=            -53.9681   YY=            -78.6199   ZZ=            -66.6782
   XY=              3.1748   XZ=             -3.5658   YZ=             -1.6125

 Normal termination of Gaussian 16 at Sun Dec  3 14:02:58 2023.
