 Gaussian 16, Revision B.01,
 Gaussian 16:  ES64L-G16RevB.01 20-Dec-2017

 -------------------------
 #P B3LYP/6-311+g(d) force
 -------------------------

 -----
 DPGEN
 -----
 Symbolic Z-matrix:
 Charge =  0 Multiplicity = 2

                         Standard orientation:
 ---------------------------------------------------------------------
 Center     Atomic      Atomic             Coordinates (Angstroms)
 Number     Number       Type             X           Y           Z
 ---------------------------------------------------------------------
      1         11           0        0.089796    2.510708    0.403056
      2         11           0       -1.480210   -0.942702    2.001479
      3         11           0       -2.883305    1.940798   -0.648847
      4         11           0       -2.357875   -1.889963   -1.253767
      5         11           0        1.102437   -1.467854   -1.604142
      6         11           0        1.771764   -0.858319    2.152289
      7         11           0        3.757393    0.707332   -1.050069
 ---------------------------------------------------------------------

 SCF Done:  E(UB3LYP) =  -1136.12191101     A.U. after   22 cycles

 The electronic state is 2-A.
 Alpha  occ. eigenvalues --  -38.45172 -38.44803 -38.44651 -38.44249 -38.43546
 Alpha  occ. eigenvalues --  -38.43530 -38.43173  -2.20992  -2.20632  -2.20422
 Alpha  occ. eigenvalues --   -2.20056  -2.19357  -2.19331  -2.18961  -1.14686
 Alpha  occ. eigenvalues --   -1.14636  -1.14593  -1.14318  -1.14261  -1.14258
 Alpha  occ. eigenvalues --   -1.14097  -1.14073  -1.14048  -1.13742  -1.13720
 Alpha  occ. eigenvalues --   -1.13666  -1.13030  -1.13014  -1.13003  -1.12998
 Alpha  occ. eigenvalues --   -1.12992  -1.12962  -1.12648  -1.12637  -1.12580
 Alpha  occ. eigenvalues --   -0.17386  -0.13118  -0.12285  -0.11394
 Alpha virt. eigenvalues --   -0.05992  -0.05285  -0.04989  -0.03600  -0.03075
 Alpha virt. eigenvalues --   -0.02862  -0.01826  -0.01097  -0.00828  -0.00230
 Alpha virt. eigenvalues --    0.00053   0.00104   0.00335   0.00436   0.00561

  Beta  occ. eigenvalues --  -38.45094 -38.44750 -38.44628 -38.44212 -38.43523
  Beta  occ. eigenvalues --  -38.43521 -38.43176  -2.20853  -2.20540  -2.20380
  Beta  occ. eigenvalues --   -2.19988  -2.19318  -2.19312  -2.18968  -1.14580
  Beta  occ. eigenvalues --   -1.14545  -1.14484  -1.14246  -1.14203  -1.14175
  Beta  occ. eigenvalues --   -1.14061  -1.14045  -1.14024  -1.13696  -1.13674
  Beta  occ. eigenvalues --   -1.13611  -1.13005  -1.12994  -1.12982  -1.12982
  Beta  occ. eigenvalues --   -1.12968  -1.12949  -1.12650  -1.12635  -1.12588
  Beta  occ. eigenvalues --   -0.16616  -0.12890  -0.11230
  Beta virt. eigenvalues --   -0.08268  -0.05770  -0.05037  -0.04528  -0.03248
  Beta virt. eigenvalues --   -0.02432  -0.02394  -0.01710  -0.00859  -0.00527
  Beta virt. eigenvalues --   -0.00076   0.00161   0.00179   0.00363   0.00561

 Mulliken charges and spin densities:
               1          2
     1  Na  -0.588952   0.141716
     2  Na  -0.004125   0.070768
     3  Na   0.279726  -0.080526
     4  Na   0.088356   0.276901
     5  Na  -0.396653   0.240372
     6  Na   0.094223   0.297182
     7  Na   0.527424   0.053587
 Sum of Mulliken charges =  -0.00000   1.00000

 Dipole moment (field-independent basis, Debye):
    X=              0.8123    Y=             -0.4306    Z=              0.2120  Tot=              0.9434
 Quadrupole moment (field-independent basis, Debye-Ang):
   XX=            -54.7179   YY=            -78.0037   ZZ=            -64.8801
   XY=              3.0608   XZ=              1.0269   YZ=             -1.9692

 Normal termination of Gaussian 16 at Sun Dec  3 16:20:19 2023.
