 Gaussian 16, Revision B.01,
 Gaussian 16:  ES64L-G16RevB.01 20-Dec-2017

 -------------------------
 #P B3LYP/6-311+g(d) force
 -------------------------

 -----
 DPGEN
 -----
 Symbolic Z-matrix:
 Charge =  0 Multiplicity = 2

                         Standard orientation:
 ---------------------------------------------------------------------
 Center     Atomic      Atomic             Coordinates (Angstroms)
 Number     Number       Type             X           Y           Z
 ---------------------------------------------------------------------
      1         11           0        1.577587    2.070454    0.095346
      2         11           0       -0.638514    0.433240    1.192074
      3         11           0       -1.528866   -2.996883   -0.081469
      4         11           0        1.789957   -1.254197   -0.770121
      5         11           0        4.735146   -0.582342    0.181372
      6         11           0       -4.245099   -0.535692    0.014623
      7         11           0       -1.690210    2.865420   -0.631825
 ---------------------------------------------------------------------

 SCF Done:  E(UB3LYP) =  -1136.12290790     A.U. after   20 cycles

 The electronic state is 2-A.
 Alpha  occ. eigenvalues --  -38.44368 -38.44274 -38.44235 -38.43930 -38.43716
 Alpha  occ. eigenvalues --  -38.43645 -38.43606  -2.20221  -2.20183  -2.20130
 Alpha  occ. eigenvalues --   -2.19718  -2.19547  -2.19479  -2.19430  -1.14047
 Alpha  occ. eigenvalues --   -1.13938  -1.13875  -1.13855  -1.13821  -1.13810
 Alpha  occ. eigenvalues --   -1.13792  -1.13746  -1.13671  -1.13385  -1.13355
 Alpha  occ. eigenvalues --   -1.13337  -1.13253  -1.13187  -1.13173  -1.13162
 Alpha  occ. eigenvalues --   -1.13151  -1.13112  -1.13086  -1.13069  -1.13056
 Alpha  occ. eigenvalues --   -0.17580  -0.13731  -0.12553  -0.10320
 Alpha virt. eigenvalues --   -0.06184  -0.05500  -0.05108  -0.03360  -0.02717
 Alpha virt. eigenvalues --   -0.02265  -0.01899  -0.01223  -0.00842  -0.00689
 Alpha virt. eigenvalues --   -0.00399  -0.00149   0.00498   0.00598   0.00659

  Beta  occ. eigenvalues --  -38.44368 -38.44250 -38.44229 -38.43861 -38.43639
  Beta  occ. eigenvalues --  -38.43633 -38.43594  -2.20184  -2.20182  -2.20120
  Beta  occ. eigenvalues --   -2.19588  -2.19466  -2.19410  -2.19402  -1.14014
  Beta  occ. eigenvalues --   -1.13923  -1.13865  -1.13844  -1.13809  -1.13798
  Beta  occ. eigenvalues --   -1.13771  -1.13731  -1.13664  -1.13297  -1.13266
  Beta  occ. eigenvalues --   -1.13251  -1.13192  -1.13155  -1.13131  -1.13101
  Beta  occ. eigenvalues --   -1.13083  -1.13073  -1.13066  -1.13041  -1.12996
  Beta  occ. eigenvalues --   -0.17137  -0.13026  -0.12307
  Beta virt. eigenvalues --   -0.06942  -0.05961  -0.05391  -0.04594  -0.02875
  Beta virt. eigenvalues --   -0.02438  -0.02128  -0.01515  -0.01045  -0.00649
  Beta virt. eigenvalues --   -0.00459  -0.00103   0.00125   0.00638   0.00698

 Mulliken charges and spin densities:
               1          2
     1  Na   0.095711  -0.080648
     2  Na   0.486563  -0.069774
     3  Na   0.050343   0.034224
     4  Na  -0.715047   0.124333
     5  Na   0.387213   0.371176
     6  Na  -0.060943   0.492623
     7  Na  -0.243841   0.128066
 Sum of Mulliken charges =  -0.00000   1.00000

 Dipole moment (field-independent basis, Debye):
    X=             -0.0432    Y=              0.7533    Z=             -0.1394  Tot=              0.7673
 Quadrupole moment (field-independent basis, Debye-Ang):
   XX=            -70.6954   YY=            -64.0401   ZZ=            -67.6507
   XY=              1.7912   XZ=              2.7798   YZ=             -1.1691

 Normal termination of Gaussian 16 at Tue Nov 28 23:49:41 2023.
