 Gaussian 16, Revision B.01,
 Gaussian 16:  ES64L-G16RevB.01 20-Dec-2017

 -------------------------
 #P B3LYP/6-311+g(d) force
 -------------------------

 -----
 DPGEN
 -----
 Symbolic Z-matrix:
 Charge =  0 Multiplicity = 2

                         Standard orientation:
 ---------------------------------------------------------------------
 Center     Atomic      Atomic             Coordinates (Angstroms)
 Number     Number       Type             X           Y           Z
 ---------------------------------------------------------------------
      1         11           0        0.216067    0.168500   -1.635313
      2         11           0       -0.166086    2.308474    0.274874
      3         11           0        2.639748    0.851231   -0.153522
      4         11           0        1.518626   -1.802625    0.169833
      5         11           0       -0.234313   -0.330430    1.931625
      6         11           0       -1.376672   -1.920371   -0.431726
      7         11           0       -2.597370    0.725221   -0.155772
 ---------------------------------------------------------------------

 SCF Done:  E(UB3LYP) =  -1136.10436482     A.U. after   19 cycles

 The electronic state is 2-A.
 Alpha  occ. eigenvalues --  -38.43981 -38.43743 -38.43722 -38.43698 -38.43320
 Alpha  occ. eigenvalues --  -38.43278 -38.43057  -2.20077  -2.19966  -2.19743
 Alpha  occ. eigenvalues --   -2.19721  -2.19434  -2.19372  -2.19113  -1.13849
 Alpha  occ. eigenvalues --   -1.13769  -1.13748  -1.13703  -1.13688  -1.13657
 Alpha  occ. eigenvalues --   -1.13476  -1.13455  -1.13418  -1.13359  -1.13355
 Alpha  occ. eigenvalues --   -1.13330  -1.13173  -1.13058  -1.13032  -1.13005
 Alpha  occ. eigenvalues --   -1.12979  -1.12891  -1.12793  -1.12753  -1.12703
 Alpha  occ. eigenvalues --   -0.21025  -0.13729  -0.12833  -0.11998
 Alpha virt. eigenvalues --   -0.05225  -0.04395  -0.04115  -0.03599  -0.03169
 Alpha virt. eigenvalues --   -0.02901  -0.01161  -0.00552  -0.00080   0.00366
 Alpha virt. eigenvalues --    0.00626   0.00662   0.01022   0.01114   0.01132

  Beta  occ. eigenvalues --  -38.43884 -38.43737 -38.43690 -38.43642 -38.43305
  Beta  occ. eigenvalues --  -38.43259 -38.43044  -2.19900  -2.19824  -2.19734
  Beta  occ. eigenvalues --   -2.19710  -2.19413  -2.19344  -2.19094  -1.13755
  Beta  occ. eigenvalues --   -1.13689  -1.13639  -1.13604  -1.13565  -1.13561
  Beta  occ. eigenvalues --   -1.13465  -1.13448  -1.13396  -1.13344  -1.13309
  Beta  occ. eigenvalues --   -1.13279  -1.13155  -1.13028  -1.12982  -1.12978
  Beta  occ. eigenvalues --   -1.12920  -1.12877  -1.12782  -1.12700  -1.12691
  Beta  occ. eigenvalues --   -0.20211  -0.13392  -0.12506
  Beta virt. eigenvalues --   -0.07837  -0.05224  -0.04389  -0.04104  -0.02683
  Beta virt. eigenvalues --   -0.02293  -0.01757  -0.01088  -0.00509   0.00074
  Beta virt. eigenvalues --    0.00393   0.00603   0.00635   0.01053   0.01117

 Mulliken charges and spin densities:
               1          2
     1  Na  -0.325271   0.315826
     2  Na   0.152019   0.088264
     3  Na   0.037846  -0.014621
     4  Na   0.384203   0.120563
     5  Na  -0.459419   0.505824
     6  Na   0.208642   0.033138
     7  Na   0.001980  -0.048993
 Sum of Mulliken charges =  -0.00000   1.00000

 Dipole moment (field-independent basis, Debye):
    X=             -0.0228    Y=              0.1530    Z=              0.2937  Tot=              0.3320
 Quadrupole moment (field-independent basis, Debye-Ang):
   XX=            -59.1414   YY=            -68.5560   ZZ=            -69.1454
   XY=              0.3662   XZ=              0.6973   YZ=              0.7587

 Normal termination of Gaussian 16 at Thu Dec  7 13:58:20 2023.
