 Gaussian 16, Revision B.01,
 Gaussian 16:  ES64L-G16RevB.01 20-Dec-2017

 -------------------------
 #P B3LYP/6-311+g(d) force
 -------------------------

 -----
 DPGEN
 -----
 Symbolic Z-matrix:
 Charge =  0 Multiplicity = 2

                         Standard orientation:
 ---------------------------------------------------------------------
 Center     Atomic      Atomic             Coordinates (Angstroms)
 Number     Number       Type             X           Y           Z
 ---------------------------------------------------------------------
      1         11           0        1.557641    2.332570   -0.067254
      2         11           0       -2.858010   -0.740171    0.226243
      3         11           0       -1.495183    2.501272   -0.387154
      4         11           0       -0.174004   -0.317581   -1.473880
      5         11           0        3.250296   -0.860564   -0.032618
      6         11           0       -0.026680   -0.034107    2.035203
      7         11           0       -0.254060   -2.881419   -0.300539
 ---------------------------------------------------------------------

 SCF Done:  E(UB3LYP) =  -1136.13289256     A.U. after   19 cycles

 The electronic state is 2-A.
 Alpha  occ. eigenvalues --  -38.44061 -38.43836 -38.43734 -38.43545 -38.43479
 Alpha  occ. eigenvalues --  -38.43273 -38.43107  -2.19839  -2.19738  -2.19626
 Alpha  occ. eigenvalues --   -2.19454  -2.19368  -2.19178  -2.19171  -1.13578
 Alpha  occ. eigenvalues --   -1.13515  -1.13494  -1.13482  -1.13379  -1.13344
 Alpha  occ. eigenvalues --   -1.13309  -1.13294  -1.13243  -1.13135  -1.13100
 Alpha  occ. eigenvalues --   -1.13078  -1.13063  -1.13028  -1.13008  -1.12878
 Alpha  occ. eigenvalues --   -1.12835  -1.12805  -1.12798  -1.12784  -1.12756
 Alpha  occ. eigenvalues --   -0.19002  -0.13048  -0.12624  -0.10771
 Alpha virt. eigenvalues --   -0.05642  -0.04966  -0.04782  -0.03126  -0.02857
 Alpha virt. eigenvalues --   -0.02490  -0.01525  -0.01142  -0.00312  -0.00182
 Alpha virt. eigenvalues --    0.00018   0.00342   0.00854   0.00881   0.00926

  Beta  occ. eigenvalues --  -38.44064 -38.43824 -38.43724 -38.43474 -38.43447
  Beta  occ. eigenvalues --  -38.43264 -38.43047  -2.19845  -2.19720  -2.19612
  Beta  occ. eigenvalues --   -2.19362  -2.19273  -2.19157  -2.19071  -1.13553
  Beta  occ. eigenvalues --   -1.13512  -1.13496  -1.13488  -1.13350  -1.13332
  Beta  occ. eigenvalues --   -1.13302  -1.13249  -1.13238  -1.13101  -1.13020
  Beta  occ. eigenvalues --   -1.13011  -1.12995  -1.12946  -1.12929  -1.12846
  Beta  occ. eigenvalues --   -1.12794  -1.12777  -1.12758  -1.12717  -1.12686
  Beta  occ. eigenvalues --   -0.18269  -0.12784  -0.12393
  Beta virt. eigenvalues --   -0.06811  -0.05621  -0.04918  -0.04772  -0.02302
  Beta virt. eigenvalues --   -0.02132  -0.01520  -0.01336  -0.01061  -0.00355
  Beta virt. eigenvalues --   -0.00213   0.00147   0.00372   0.00856   0.00904

 Mulliken charges and spin densities:
               1          2
     1  Na   0.098950  -0.017043
     2  Na   0.381067   0.095171
     3  Na   0.202215   0.027037
     4  Na  -0.450393   0.299722
     5  Na  -0.025296  -0.077935
     6  Na  -0.498430   0.722959
     7  Na   0.291886  -0.049910
 Sum of Mulliken charges =  -0.00000   1.00000

 Dipole moment (field-independent basis, Debye):
    X=              0.1122    Y=             -0.2499    Z=              0.2738  Tot=              0.3874
 Quadrupole moment (field-independent basis, Debye-Ang):
   XX=            -56.9127   YY=            -61.5694   ZZ=            -74.6984
   XY=             -0.5418   XZ=             -0.2656   YZ=             -0.6086

 Normal termination of Gaussian 16 at Tue Dec  5 15:53:26 2023.
