 Gaussian 16, Revision B.01,
 Gaussian 16:  ES64L-G16RevB.01 20-Dec-2017

 -------------------------
 #P B3LYP/6-311+g(d) force
 -------------------------

 -----
 DPGEN
 -----
 Symbolic Z-matrix:
 Charge =  0 Multiplicity = 2

                         Standard orientation:
 ---------------------------------------------------------------------
 Center     Atomic      Atomic             Coordinates (Angstroms)
 Number     Number       Type             X           Y           Z
 ---------------------------------------------------------------------
      1         11           0        1.339119    2.767120    0.096312
      2         11           0        0.291694   -0.140673   -1.758843
      3         11           0        3.014951   -0.549122   -0.165143
      4         11           0       -0.056381   -0.471328    2.007550
      5         11           0       -2.984972   -0.858961   -0.405125
      6         11           0        0.255081   -2.832035    0.096812
      7         11           0       -1.859492    2.085001    0.128437
 ---------------------------------------------------------------------

 SCF Done:  E(UB3LYP) =  -1136.13737437     A.U. after   19 cycles

 The electronic state is 2-A.
 Alpha  occ. eigenvalues --  -38.43980 -38.43732 -38.43685 -38.43561 -38.43457
 Alpha  occ. eigenvalues --  -38.43380 -38.43309  -2.19826  -2.19603  -2.19574
 Alpha  occ. eigenvalues --   -2.19459  -2.19346  -2.19286  -2.19193  -1.13536
 Alpha  occ. eigenvalues --   -1.13485  -1.13449  -1.13350  -1.13268  -1.13243
 Alpha  occ. eigenvalues --   -1.13237  -1.13216  -1.13198  -1.13149  -1.13100
 Alpha  occ. eigenvalues --   -1.13057  -1.13018  -1.12989  -1.12971  -1.12964
 Alpha  occ. eigenvalues --   -1.12947  -1.12923  -1.12855  -1.12852  -1.12817
 Alpha  occ. eigenvalues --   -0.18802  -0.12995  -0.12611  -0.10935
 Alpha virt. eigenvalues --   -0.05549  -0.04937  -0.04817  -0.03217  -0.03058
 Alpha virt. eigenvalues --   -0.02647  -0.01426  -0.01073  -0.00296  -0.00172
 Alpha virt. eigenvalues --   -0.00019   0.00363   0.00840   0.00901   0.00943

  Beta  occ. eigenvalues --  -38.43973 -38.43724 -38.43593 -38.43550 -38.43456
  Beta  occ. eigenvalues --  -38.43310 -38.43305  -2.19818  -2.19561  -2.19448
  Beta  occ. eigenvalues --   -2.19431  -2.19287  -2.19217  -2.19189  -1.13520
  Beta  occ. eigenvalues --   -1.13465  -1.13447  -1.13270  -1.13260  -1.13211
  Beta  occ. eigenvalues --   -1.13198  -1.13130  -1.13113  -1.13094  -1.13050
  Beta  occ. eigenvalues --   -1.13033  -1.12992  -1.12940  -1.12936  -1.12924
  Beta  occ. eigenvalues --   -1.12885  -1.12864  -1.12850  -1.12828  -1.12814
  Beta  occ. eigenvalues --   -0.18069  -0.12740  -0.12371
  Beta virt. eigenvalues --   -0.07021  -0.05520  -0.04906  -0.04757  -0.02421
  Beta virt. eigenvalues --   -0.02274  -0.01608  -0.01331  -0.01008  -0.00348
  Beta virt. eigenvalues --   -0.00209   0.00117   0.00393   0.00857   0.00925

 Mulliken charges and spin densities:
               1          2
     1  Na  -0.069628  -0.078280
     2  Na  -0.262250   0.600792
     3  Na   0.227808  -0.094013
     4  Na  -0.428348   0.693552
     5  Na   0.126333  -0.020055
     6  Na   0.391931  -0.072695
     7  Na   0.014154  -0.029301
 Sum of Mulliken charges =  -0.00000   1.00000

 Dipole moment (field-independent basis, Debye):
    X=              0.2212    Y=             -0.2282    Z=              0.0538  Tot=              0.3224
 Quadrupole moment (field-independent basis, Debye-Ang):
   XX=            -58.4321   YY=            -62.7721   ZZ=            -73.3061
   XY=              0.7588   XZ=              0.8829   YZ=              0.9804

 Normal termination of Gaussian 16 at Thu Dec  7 08:35:39 2023.
