 Gaussian 16, Revision B.01,
 Gaussian 16:  ES64L-G16RevB.01 20-Dec-2017

 -------------------------
 #P B3LYP/6-311+g(d) force
 -------------------------

 -----
 DPGEN
 -----
 Symbolic Z-matrix:
 Charge =  0 Multiplicity = 2

                         Standard orientation:
 ---------------------------------------------------------------------
 Center     Atomic      Atomic             Coordinates (Angstroms)
 Number     Number       Type             X           Y           Z
 ---------------------------------------------------------------------
      1         11           0       -0.104310    0.305836   -1.854107
      2         11           0        1.183460    2.481822    0.315236
      3         11           0        3.848037   -0.266244    0.006491
      4         11           0       -2.644347    1.828994   -0.172461
      5         11           0       -0.654514   -0.226908    1.972450
      6         11           0        0.926211   -2.219745   -0.126444
      7         11           0       -2.554538   -1.903755   -0.141165
 ---------------------------------------------------------------------

 SCF Done:  E(UB3LYP) =  -1136.13177262     A.U. after   21 cycles

 The electronic state is 2-A.
 Alpha  occ. eigenvalues --  -38.44951 -38.44052 -38.43825 -38.43582 -38.43556
 Alpha  occ. eigenvalues --  -38.43543 -38.42972  -2.20702  -2.19871  -2.19673
 Alpha  occ. eigenvalues --   -2.19513  -2.19476  -2.19358  -2.18868  -1.14375
 Alpha  occ. eigenvalues --   -1.14368  -1.14335  -1.13553  -1.13536  -1.13504
 Alpha  occ. eigenvalues --   -1.13361  -1.13331  -1.13314  -1.13207  -1.13162
 Alpha  occ. eigenvalues --   -1.13151  -1.13126  -1.13103  -1.13089  -1.13035
 Alpha  occ. eigenvalues --   -1.13033  -1.12961  -1.12577  -1.12553  -1.12457
 Alpha  occ. eigenvalues --   -0.18489  -0.13050  -0.12019  -0.10781
 Alpha virt. eigenvalues --   -0.06521  -0.05276  -0.03937  -0.03202  -0.02832
 Alpha virt. eigenvalues --   -0.02586  -0.02152  -0.01323  -0.00417  -0.00132
 Alpha virt. eigenvalues --    0.00008   0.00244   0.00653   0.00711   0.00808

  Beta  occ. eigenvalues --  -38.44958 -38.44045 -38.43820 -38.43535 -38.43504
  Beta  occ. eigenvalues --  -38.43470 -38.42961  -2.20716  -2.19862  -2.19668
  Beta  occ. eigenvalues --   -2.19370  -2.19346  -2.19318  -2.18851  -1.14382
  Beta  occ. eigenvalues --   -1.14377  -1.14345  -1.13538  -1.13514  -1.13501
  Beta  occ. eigenvalues --   -1.13348  -1.13317  -1.13304  -1.13119  -1.13078
  Beta  occ. eigenvalues --   -1.13047  -1.13028  -1.13019  -1.12996  -1.12991
  Beta  occ. eigenvalues --   -1.12966  -1.12955  -1.12566  -1.12504  -1.12452
  Beta  occ. eigenvalues --   -0.17722  -0.12902  -0.11766
  Beta virt. eigenvalues --   -0.06839  -0.06433  -0.05268  -0.03902  -0.02523
  Beta virt. eigenvalues --   -0.02121  -0.02003  -0.01526  -0.01288  -0.00433
  Beta virt. eigenvalues --   -0.00023   0.00038   0.00269   0.00760   0.00807

 Mulliken charges and spin densities:
               1          2
     1  Na  -0.335980   0.669187
     2  Na   0.030897  -0.085126
     3  Na  -0.088382  -0.098365
     4  Na   0.200372  -0.100864
     5  Na  -0.433194   0.696254
     6  Na   0.183206  -0.038717
     7  Na   0.443079  -0.042369
 Sum of Mulliken charges =  -0.00000   1.00000

 Dipole moment (field-independent basis, Debye):
    X=              0.1331    Y=              0.1645    Z=              0.0134  Tot=              0.2120
 Quadrupole moment (field-independent basis, Debye-Ang):
   XX=            -49.1502   YY=            -68.9051   ZZ=            -74.0289
   XY=              0.5429   XZ=              1.0767   YZ=              1.1440

 Normal termination of Gaussian 16 at Tue Dec  5 22:23:37 2023.
