 Gaussian 16, Revision B.01,
 Gaussian 16:  ES64L-G16RevB.01 20-Dec-2017

 -------------------------
 #P B3LYP/6-311+g(d) force
 -------------------------

 -----
 DPGEN
 -----
 Symbolic Z-matrix:
 Charge =  0 Multiplicity = 2

                         Standard orientation:
 ---------------------------------------------------------------------
 Center     Atomic      Atomic             Coordinates (Angstroms)
 Number     Number       Type             X           Y           Z
 ---------------------------------------------------------------------
      1         11           0       -3.300551    2.056341   -0.378260
      2         11           0       -0.693978    3.435621    1.054457
      3         11           0        2.719784   -2.450578    0.912587
      4         11           0        4.021035   -0.606954   -1.000612
      5         11           0        2.532629    2.659671   -0.388914
      6         11           0       -4.071596   -1.882066   -0.617667
      7         11           0       -1.207322   -3.212034    0.418410
 ---------------------------------------------------------------------

 SCF Done:  E(UB3LYP) =  -1136.10551981     A.U. after   23 cycles

 The electronic state is 2-A.
 Alpha  occ. eigenvalues --  -38.45177 -38.45007 -38.44732 -38.44348 -38.44224
 Alpha  occ. eigenvalues --  -38.44106 -38.44093  -2.20928  -2.20820  -2.20517
 Alpha  occ. eigenvalues --   -2.20128  -2.20004  -2.19940  -2.19886  -1.14608
 Alpha  occ. eigenvalues --   -1.14598  -1.14562  -1.14550  -1.14479  -1.14459
 Alpha  occ. eigenvalues --   -1.14177  -1.14172  -1.14143  -1.13791  -1.13775
 Alpha  occ. eigenvalues --   -1.13774  -1.13680  -1.13673  -1.13657  -1.13603
 Alpha  occ. eigenvalues --   -1.13571  -1.13564  -1.13543  -1.13528  -1.13500
 Alpha  occ. eigenvalues --   -0.15542  -0.13946  -0.13353  -0.10604
 Alpha virt. eigenvalues --   -0.07785  -0.04815  -0.04595  -0.03605  -0.03483
 Alpha virt. eigenvalues --   -0.02272  -0.02091  -0.01922  -0.01213  -0.01052
 Alpha virt. eigenvalues --   -0.00853  -0.00079   0.00167   0.00305   0.00711

  Beta  occ. eigenvalues --  -38.45163 -38.45010 -38.44675 -38.44324 -38.44230
  Beta  occ. eigenvalues --  -38.44055 -38.44011  -2.20907  -2.20831  -2.20414
  Beta  occ. eigenvalues --   -2.20086  -2.20020  -2.19845  -2.19733  -1.14597
  Beta  occ. eigenvalues --   -1.14587  -1.14543  -1.14522  -1.14493  -1.14441
  Beta  occ. eigenvalues --   -1.14106  -1.14105  -1.14069  -1.13763  -1.13749
  Beta  occ. eigenvalues --   -1.13733  -1.13696  -1.13688  -1.13631  -1.13545
  Beta  occ. eigenvalues --   -1.13504  -1.13499  -1.13438  -1.13426  -1.13401
  Beta  occ. eigenvalues --   -0.15010  -0.13324  -0.12673
  Beta virt. eigenvalues --   -0.07829  -0.07432  -0.04384  -0.04198  -0.03390
  Beta virt. eigenvalues --   -0.03158  -0.02049  -0.01882  -0.01717  -0.01037
  Beta virt. eigenvalues --   -0.00809  -0.00524   0.00065   0.00213   0.00409

 Mulliken charges and spin densities:
               1          2
     1  Na  -0.152492   0.289328
     2  Na   0.024998  -0.089169
     3  Na  -0.312568   0.248718
     4  Na   0.304801   0.004170
     5  Na  -0.103525   0.400962
     6  Na   0.466504   0.065484
     7  Na  -0.227719   0.080508
 Sum of Mulliken charges =  -0.00000   1.00000

 Dipole moment (field-independent basis, Debye):
    X=             -0.2729    Y=             -0.4308    Z=             -0.1534  Tot=              0.5325
 Quadrupole moment (field-independent basis, Debye-Ang):
   XX=            -61.1030   YY=            -72.8974   ZZ=            -68.2555
   XY=             -1.0584   XZ=              0.8543   YZ=             -0.2111

 Normal termination of Gaussian 16 at Mon Dec  4 01:14:06 2023.
