 Gaussian 16, Revision B.01,
 Gaussian 16:  ES64L-G16RevB.01 20-Dec-2017

 -------------------------
 #P B3LYP/6-311+g(d) force
 -------------------------

 -----
 DPGEN
 -----
 Symbolic Z-matrix:
 Charge =  0 Multiplicity = 2

                         Standard orientation:
 ---------------------------------------------------------------------
 Center     Atomic      Atomic             Coordinates (Angstroms)
 Number     Number       Type             X           Y           Z
 ---------------------------------------------------------------------
      1         11           0       -7.643415   -0.133337   -0.193180
      2         11           0        6.066124   -1.090334   -0.608153
      3         11           0       -4.752828   -0.456697   -0.571431
      4         11           0       -0.364981   -0.307731    0.884683
      5         11           0       -2.018587    2.155668    0.203012
      6         11           0        6.330230    2.042894   -0.114043
      7         11           0        2.383457   -2.210463    0.399112
 ---------------------------------------------------------------------

 SCF Done:  E(UB3LYP) =  -1136.10612165     A.U. after   18 cycles

 The electronic state is 2-A.
 Alpha  occ. eigenvalues --  -38.45092 -38.44912 -38.44757 -38.44575 -38.43800
 Alpha  occ. eigenvalues --  -38.43605 -38.43591  -2.20879  -2.20744  -2.20559
 Alpha  occ. eigenvalues --   -2.20348  -2.19630  -2.19434  -2.19410  -1.14527
 Alpha  occ. eigenvalues --   -1.14525  -1.14520  -1.14418  -1.14380  -1.14359
 Alpha  occ. eigenvalues --   -1.14204  -1.14200  -1.14172  -1.14021  -1.14010
 Alpha  occ. eigenvalues --   -1.14001  -1.13317  -1.13297  -1.13286  -1.13263
 Alpha  occ. eigenvalues --   -1.13102  -1.13090  -1.13041  -1.13038  -1.12945
 Alpha  occ. eigenvalues --   -0.15501  -0.14242  -0.12673  -0.11413
 Alpha virt. eigenvalues --   -0.06648  -0.05190  -0.04400  -0.03512  -0.03032
 Alpha virt. eigenvalues --   -0.02649  -0.02257  -0.01947  -0.01407  -0.01013
 Alpha virt. eigenvalues --   -0.00813  -0.00519  -0.00139   0.00346   0.00516

  Beta  occ. eigenvalues --  -38.45041 -38.44847 -38.44658 -38.44589 -38.43803
  Beta  occ. eigenvalues --  -38.43607 -38.43561  -2.20783  -2.20623  -2.20378
  Beta  occ. eigenvalues --   -2.20373  -2.19644  -2.19438  -2.19359  -1.14465
  Beta  occ. eigenvalues --   -1.14460  -1.14456  -1.14339  -1.14297  -1.14278
  Beta  occ. eigenvalues --   -1.14078  -1.14078  -1.14051  -1.14044  -1.14029
  Beta  occ. eigenvalues --   -1.13994  -1.13319  -1.13314  -1.13252  -1.13241
  Beta  occ. eigenvalues --   -1.13106  -1.13089  -1.13007  -1.13005  -1.12921
  Beta  occ. eigenvalues --   -0.14848  -0.13700  -0.12001
  Beta virt. eigenvalues --   -0.08334  -0.06211  -0.04947  -0.04021  -0.03285
  Beta virt. eigenvalues --   -0.02719  -0.02490  -0.02014  -0.01715  -0.01126
  Beta virt. eigenvalues --   -0.00852  -0.00397  -0.00313   0.00052   0.00368

 Mulliken charges and spin densities:
               1          2
     1  Na   0.778306   0.082559
     2  Na  -0.036708  -0.044723
     3  Na  -0.768481   0.043109
     4  Na  -0.682181  -0.026179
     5  Na   0.816618   0.234067
     6  Na  -0.003397   0.231934
     7  Na  -0.104156   0.479234
 Sum of Mulliken charges =  -0.00000   1.00000

 Dipole moment (field-independent basis, Debye):
    X=              1.6873    Y=              1.2263    Z=              0.0593  Tot=              2.0867
 Quadrupole moment (field-independent basis, Debye-Ang):
   XX=            -65.3838   YY=            -58.4796   ZZ=            -74.7169
   XY=             -2.2525   XZ=             -2.2488   YZ=              1.5415

 Normal termination of Gaussian 16 at Sun Dec  3 13:08:40 2023.
