 Gaussian 16, Revision B.01,
 Gaussian 16:  ES64L-G16RevB.01 20-Dec-2017

 -------------------------
 #P B3LYP/6-311+g(d) force
 -------------------------

 -----
 DPGEN
 -----
 Symbolic Z-matrix:
 Charge =  0 Multiplicity = 2

                         Standard orientation:
 ---------------------------------------------------------------------
 Center     Atomic      Atomic             Coordinates (Angstroms)
 Number     Number       Type             X           Y           Z
 ---------------------------------------------------------------------
      1         11           0       -0.248962    0.637788    0.614640
      2         11           0        6.772592    0.292411    0.564745
      3         11           0        3.816469    0.107512   -0.553294
      4         11           0        0.801356   -1.856435   -0.260311
      5         11           0       -2.672742   -0.844423   -0.841072
      6         11           0       -2.994630    2.461445   -0.402396
      7         11           0       -5.474082   -0.798298    0.877688
 ---------------------------------------------------------------------

 SCF Done:  E(UB3LYP) =  -1136.11218679     A.U. after   20 cycles

 The electronic state is 2-A.
 Alpha  occ. eigenvalues --  -38.44759 -38.44676 -38.44670 -38.44556 -38.43933
 Alpha  occ. eigenvalues --  -38.43338 -38.43234  -2.20617  -2.20557  -2.20520
 Alpha  occ. eigenvalues --   -2.20466  -2.19833  -2.19113  -2.19049  -1.14372
 Alpha  occ. eigenvalues --   -1.14308  -1.14264  -1.14235  -1.14205  -1.14196
 Alpha  occ. eigenvalues --   -1.14177  -1.14165  -1.14143  -1.14139  -1.14102
 Alpha  occ. eigenvalues --   -1.14043  -1.13502  -1.13464  -1.13448  -1.12819
 Alpha  occ. eigenvalues --   -1.12776  -1.12775  -1.12732  -1.12718  -1.12627
 Alpha  occ. eigenvalues --   -0.17682  -0.14017  -0.11782  -0.11444
 Alpha virt. eigenvalues --   -0.06661  -0.05663  -0.04580  -0.03327  -0.02869
 Alpha virt. eigenvalues --   -0.02795  -0.01968  -0.01360  -0.01147  -0.00813
 Alpha virt. eigenvalues --   -0.00610  -0.00339   0.00199   0.00481   0.00521

  Beta  occ. eigenvalues --  -38.44690 -38.44646 -38.44595 -38.44537 -38.43916
  Beta  occ. eigenvalues --  -38.43349 -38.43231  -2.20579  -2.20437  -2.20430
  Beta  occ. eigenvalues --   -2.20370  -2.19800  -2.19134  -2.19042  -1.14330
  Beta  occ. eigenvalues --   -1.14265  -1.14236  -1.14162  -1.14124  -1.14120
  Beta  occ. eigenvalues --   -1.14115  -1.14090  -1.14070  -1.14043  -1.14017
  Beta  occ. eigenvalues --   -1.14000  -1.13483  -1.13443  -1.13418  -1.12830
  Beta  occ. eigenvalues --   -1.12790  -1.12789  -1.12726  -1.12713  -1.12633
  Beta  occ. eigenvalues --   -0.17013  -0.13759  -0.11420
  Beta virt. eigenvalues --   -0.07683  -0.06366  -0.05444  -0.04218  -0.02939
  Beta virt. eigenvalues --   -0.02768  -0.02175  -0.01650  -0.01111  -0.00908
  Beta virt. eigenvalues --   -0.00619  -0.00345  -0.00187   0.00378   0.00530

 Mulliken charges and spin densities:
               1          2
     1  Na  -0.422131   0.287741
     2  Na   0.223720  -0.036809
     3  Na  -0.548313  -0.119296
     4  Na   0.402932   0.107322
     5  Na  -0.137120   0.395833
     6  Na   0.202740   0.250232
     7  Na   0.278172   0.114977
 Sum of Mulliken charges =  -0.00000   1.00000

 Dipole moment (field-independent basis, Debye):
    X=             -2.5099    Y=              0.0514    Z=              0.3379  Tot=              2.5331
 Quadrupole moment (field-independent basis, Debye-Ang):
   XX=            -68.5497   YY=            -67.6284   ZZ=            -67.8791
   XY=             -3.0869   XZ=              0.3730   YZ=              1.0480

 Normal termination of Gaussian 16 at Tue Nov 28 21:05:16 2023.
