 Gaussian 16, Revision B.01,
 Gaussian 16:  ES64L-G16RevB.01 20-Dec-2017

 -------------------------
 #P B3LYP/6-311+g(d) force
 -------------------------

 -----
 DPGEN
 -----
 Symbolic Z-matrix:
 Charge =  0 Multiplicity = 2

                         Standard orientation:
 ---------------------------------------------------------------------
 Center     Atomic      Atomic             Coordinates (Angstroms)
 Number     Number       Type             X           Y           Z
 ---------------------------------------------------------------------
      1         11           0        2.934809   -0.791427    0.046219
      2         11           0       -0.601324   -0.350341    1.981665
      3         11           0       -3.315685   -0.367893   -0.621863
      4         11           0        0.073045   -2.939829    0.233602
      5         11           0       -1.078144    2.610267    0.432305
      6         11           0        0.099339   -0.250922   -1.875644
      7         11           0        1.887960    2.090145   -0.196284
 ---------------------------------------------------------------------

 SCF Done:  E(UB3LYP) =  -1136.13361863     A.U. after   19 cycles

 The electronic state is 2-A.
 Alpha  occ. eigenvalues --  -38.44463 -38.43904 -38.43730 -38.43686 -38.43568
 Alpha  occ. eigenvalues --  -38.43418 -38.43175  -2.20241  -2.19767  -2.19647
 Alpha  occ. eigenvalues --   -2.19585  -2.19422  -2.19287  -2.19092  -1.13915
 Alpha  occ. eigenvalues --   -1.13886  -1.13881  -1.13479  -1.13432  -1.13401
 Alpha  occ. eigenvalues --   -1.13324  -1.13300  -1.13277  -1.13257  -1.13245
 Alpha  occ. eigenvalues --   -1.13201  -1.13087  -1.13079  -1.13036  -1.13015
 Alpha  occ. eigenvalues --   -1.12951  -1.12914  -1.12751  -1.12744  -1.12712
 Alpha  occ. eigenvalues --   -0.18602  -0.12878  -0.12595  -0.11063
 Alpha virt. eigenvalues --   -0.05906  -0.04837  -0.04609  -0.03357  -0.03099
 Alpha virt. eigenvalues --   -0.02746  -0.01671  -0.00986  -0.00265  -0.00148
 Alpha virt. eigenvalues --   -0.00011   0.00351   0.00789   0.00843   0.00931

  Beta  occ. eigenvalues --  -38.44444 -38.43904 -38.43658 -38.43607 -38.43559
  Beta  occ. eigenvalues --  -38.43408 -38.43172  -2.20208  -2.19768  -2.19514
  Beta  occ. eigenvalues --   -2.19440  -2.19409  -2.19272  -2.19090  -1.13876
  Beta  occ. eigenvalues --   -1.13865  -1.13861  -1.13481  -1.13420  -1.13393
  Beta  occ. eigenvalues --   -1.13240  -1.13213  -1.13190  -1.13157  -1.13146
  Beta  occ. eigenvalues --   -1.13101  -1.13062  -1.13038  -1.13030  -1.13009
  Beta  occ. eigenvalues --   -1.12923  -1.12897  -1.12752  -1.12737  -1.12694
  Beta  occ. eigenvalues --   -0.17894  -0.12620  -0.12338
  Beta virt. eigenvalues --   -0.07205  -0.05830  -0.04719  -0.04583  -0.02652
  Beta virt. eigenvalues --   -0.02345  -0.01744  -0.01518  -0.00903  -0.00313
  Beta virt. eigenvalues --   -0.00129   0.00095   0.00394   0.00835   0.00883

 Mulliken charges and spin densities:
               1          2
     1  Na   0.113021  -0.008173
     2  Na  -0.258291   0.469630
     3  Na   0.000233  -0.023263
     4  Na   0.253193  -0.050726
     5  Na   0.115274   0.053323
     6  Na  -0.284127   0.587793
     7  Na   0.060698  -0.028584
 Sum of Mulliken charges =  -0.00000   1.00000

 Dipole moment (field-independent basis, Debye):
    X=             -0.3819    Y=             -0.3961    Z=             -0.0369  Tot=              0.5515
 Quadrupole moment (field-independent basis, Debye-Ang):
   XX=            -57.8415   YY=            -64.7905   ZZ=            -72.3872
   XY=             -0.5264   XZ=              1.4706   YZ=              0.2768

 Normal termination of Gaussian 16 at Tue Dec  5 21:05:07 2023.
