 Gaussian 16, Revision B.01,
 Gaussian 16:  ES64L-G16RevB.01 20-Dec-2017

 -------------------------
 #P B3LYP/6-311+g(d) force
 -------------------------

 -----
 DPGEN
 -----
 Symbolic Z-matrix:
 Charge =  0 Multiplicity = 2

                         Standard orientation:
 ---------------------------------------------------------------------
 Center     Atomic      Atomic             Coordinates (Angstroms)
 Number     Number       Type             X           Y           Z
 ---------------------------------------------------------------------
      1         11           0       -0.523663    0.206320    1.829526
      2         11           0       -2.522740    1.473346   -0.460992
      3         11           0       -2.025555   -2.117206   -0.123616
      4         11           0        0.536273    2.828481    0.262487
      5         11           0        1.248207   -2.532794    0.432371
      6         11           0        0.289258   -0.278964   -1.727644
      7         11           0        2.998220    0.420816   -0.212132
 ---------------------------------------------------------------------

 SCF Done:  E(UB3LYP) =  -1136.14015902     A.U. after   18 cycles

 The electronic state is 2-A.
 Alpha  occ. eigenvalues --  -38.43591 -38.43512 -38.43490 -38.43490 -38.43474
 Alpha  occ. eigenvalues --  -38.43286 -38.43160  -2.19463  -2.19401  -2.19372
 Alpha  occ. eigenvalues --   -2.19365  -2.19335  -2.19252  -2.19153  -1.13161
 Alpha  occ. eigenvalues --   -1.13134  -1.13123  -1.13108  -1.13084  -1.13074
 Alpha  occ. eigenvalues --   -1.13070  -1.13051  -1.13040  -1.13032  -1.13018
 Alpha  occ. eigenvalues --   -1.13001  -1.12985  -1.12969  -1.12946  -1.12911
 Alpha  occ. eigenvalues --   -1.12871  -1.12858  -1.12818  -1.12771  -1.12765
 Alpha  occ. eigenvalues --   -0.19066  -0.12952  -0.12821  -0.10849
 Alpha virt. eigenvalues --   -0.05149  -0.05046  -0.04916  -0.03229  -0.03036
 Alpha virt. eigenvalues --   -0.02450  -0.01199  -0.01154  -0.00233  -0.00114
 Alpha virt. eigenvalues --    0.00035   0.00377   0.00900   0.00922   0.00937

  Beta  occ. eigenvalues --  -38.43580 -38.43501 -38.43483 -38.43483 -38.43470
  Beta  occ. eigenvalues --  -38.43209 -38.43089  -2.19445  -2.19384  -2.19364
  Beta  occ. eigenvalues --   -2.19355  -2.19331  -2.19111  -2.19023  -1.13149
  Beta  occ. eigenvalues --   -1.13113  -1.13108  -1.13086  -1.13071  -1.13058
  Beta  occ. eigenvalues --   -1.13036  -1.13029  -1.13022  -1.13011  -1.12995
  Beta  occ. eigenvalues --   -1.12994  -1.12974  -1.12960  -1.12945  -1.12824
  Beta  occ. eigenvalues --   -1.12775  -1.12757  -1.12733  -1.12683  -1.12670
  Beta  occ. eigenvalues --   -0.18333  -0.12701  -0.12563
  Beta virt. eigenvalues --   -0.06926  -0.05148  -0.05031  -0.04831  -0.02438
  Beta virt. eigenvalues --   -0.02263  -0.01415  -0.01116  -0.01076  -0.00237
  Beta virt. eigenvalues --   -0.00164   0.00144   0.00402   0.00914   0.00917

 Mulliken charges and spin densities:
               1          2
     1  Na  -0.293833   0.575750
     2  Na   0.082141  -0.019164
     3  Na   0.180725  -0.051851
     4  Na   0.129593  -0.046307
     5  Na   0.097555   0.008402
     6  Na  -0.302092   0.594818
     7  Na   0.105911  -0.061649
 Sum of Mulliken charges =  -0.00000   1.00000

 Dipole moment (field-independent basis, Debye):
    X=             -0.0845    Y=             -0.0049    Z=              0.0358  Tot=              0.0919
 Quadrupole moment (field-independent basis, Debye-Ang):
   XX=            -59.6192   YY=            -60.5992   ZZ=            -73.4928
   XY=              0.1686   XZ=              1.8206   YZ=             -1.0505

 Normal termination of Gaussian 16 at Fri Dec  8 03:22:44 2023.
