 Gaussian 16, Revision B.01,
 Gaussian 16:  ES64L-G16RevB.01 20-Dec-2017

 -------------------------
 #P B3LYP/6-311+g(d) force
 -------------------------

 -----
 DPGEN
 -----
 Symbolic Z-matrix:
 Charge =  0 Multiplicity = 2

                         Standard orientation:
 ---------------------------------------------------------------------
 Center     Atomic      Atomic             Coordinates (Angstroms)
 Number     Number       Type             X           Y           Z
 ---------------------------------------------------------------------
      1         11           0        0.611558    3.045304   -0.099270
      2         11           0        0.151405   -0.359950    2.011481
      3         11           0        0.184036    0.092180   -1.571787
      4         11           0       -2.525502   -2.081740   -0.205864
      5         11           0       -2.994410    1.462806    0.067350
      6         11           0        1.583044   -2.666918   -0.235192
      7         11           0        2.989869    0.508318    0.033282
 ---------------------------------------------------------------------

 SCF Done:  E(UB3LYP) =  -1136.13630117     A.U. after   19 cycles

 The electronic state is 2-A.
 Alpha  occ. eigenvalues --  -38.44312 -38.44165 -38.43953 -38.43634 -38.43436
 Alpha  occ. eigenvalues --  -38.43421 -38.43103  -2.20083  -2.19945  -2.19827
 Alpha  occ. eigenvalues --   -2.19474  -2.19298  -2.19260  -2.19066  -1.13762
 Alpha  occ. eigenvalues --   -1.13740  -1.13727  -1.13623  -1.13601  -1.13582
 Alpha  occ. eigenvalues --   -1.13522  -1.13493  -1.13457  -1.13156  -1.13139
 Alpha  occ. eigenvalues --   -1.13110  -1.12971  -1.12954  -1.12923  -1.12915
 Alpha  occ. eigenvalues --   -1.12913  -1.12896  -1.12755  -1.12694  -1.12688
 Alpha  occ. eigenvalues --   -0.18322  -0.12975  -0.12347  -0.10370
 Alpha virt. eigenvalues --   -0.05703  -0.05580  -0.04898  -0.03048  -0.02735
 Alpha virt. eigenvalues --   -0.02322  -0.01569  -0.01343  -0.00729  -0.00625
 Alpha virt. eigenvalues --    0.00002   0.00343   0.00773   0.00783   0.00840

  Beta  occ. eigenvalues --  -38.44313 -38.44163 -38.43946 -38.43626 -38.43434
  Beta  occ. eigenvalues --  -38.43327 -38.43043  -2.20086  -2.19943  -2.19817
  Beta  occ. eigenvalues --   -2.19464  -2.19259  -2.19123  -2.18957  -1.13751
  Beta  occ. eigenvalues --   -1.13743  -1.13732  -1.13607  -1.13600  -1.13583
  Beta  occ. eigenvalues --   -1.13514  -1.13459  -1.13451  -1.13147  -1.13108
  Beta  occ. eigenvalues --   -1.13104  -1.12947  -1.12905  -1.12897  -1.12853
  Beta  occ. eigenvalues --   -1.12795  -1.12789  -1.12678  -1.12613  -1.12608
  Beta  occ. eigenvalues --   -0.17601  -0.12786  -0.12125
  Beta virt. eigenvalues --   -0.06460  -0.05713  -0.05525  -0.04844  -0.02309
  Beta virt. eigenvalues --   -0.02008  -0.01496  -0.01268  -0.01258  -0.00776
  Beta virt. eigenvalues --   -0.00679   0.00156   0.00380   0.00784   0.00829

 Mulliken charges and spin densities:
               1          2
     1  Na   0.001216  -0.082390
     2  Na  -0.416711   0.781319
     3  Na  -0.122808   0.513520
     4  Na  -0.002975  -0.105334
     5  Na  -0.046928  -0.077203
     6  Na   0.182845  -0.076033
     7  Na   0.405361   0.046121
 Sum of Mulliken charges =  -0.00000   1.00000

 Dipole moment (field-independent basis, Debye):
    X=             -0.2144    Y=             -0.1016    Z=              0.0864  Tot=              0.2525
 Quadrupole moment (field-independent basis, Debye-Ang):
   XX=            -55.8217   YY=            -59.8527   ZZ=            -76.6704
   XY=             -0.3831   XZ=             -0.0000   YZ=              1.2002

 Normal termination of Gaussian 16 at Tue Dec  5 21:22:50 2023.
