 Gaussian 16, Revision B.01,
 Gaussian 16:  ES64L-G16RevB.01 20-Dec-2017

 -------------------------
 #P B3LYP/6-311+g(d) force
 -------------------------

 -----
 DPGEN
 -----
 Symbolic Z-matrix:
 Charge =  0 Multiplicity = 2

                         Standard orientation:
 ---------------------------------------------------------------------
 Center     Atomic      Atomic             Coordinates (Angstroms)
 Number     Number       Type             X           Y           Z
 ---------------------------------------------------------------------
      1         11           0        0.454757   -1.804231   -0.240208
      2         11           0       -2.499652   -1.472975   -1.194107
      3         11           0        3.611217   -1.063573    0.168373
      4         11           0        2.702393    1.907438   -0.355501
      5         11           0       -0.075409    1.320868   -0.670550
      6         11           0       -3.158844    1.376813    0.095338
      7         11           0       -1.034460   -0.264340    2.196655
 ---------------------------------------------------------------------

 SCF Done:  E(UB3LYP) =  -1136.11057206     A.U. after   25 cycles

 The electronic state is 2-A.
 Alpha  occ. eigenvalues --  -38.45574 -38.44737 -38.44027 -38.43968 -38.43926
 Alpha  occ. eigenvalues --  -38.43809 -38.42710  -2.21386  -2.20626  -2.19937
 Alpha  occ. eigenvalues --   -2.19880  -2.19819  -2.19786  -2.18672  -1.15058
 Alpha  occ. eigenvalues --   -1.15047  -1.15040  -1.14299  -1.14288  -1.14270
 Alpha  occ. eigenvalues --   -1.13715  -1.13623  -1.13573  -1.13565  -1.13558
 Alpha  occ. eigenvalues --   -1.13500  -1.13490  -1.13480  -1.13462  -1.13422
 Alpha  occ. eigenvalues --   -1.13413  -1.13311  -1.12374  -1.12331  -1.12296
 Alpha  occ. eigenvalues --   -0.19024  -0.14569  -0.11424  -0.10953
 Alpha virt. eigenvalues --   -0.07350  -0.05691  -0.03667  -0.03347  -0.02901
 Alpha virt. eigenvalues --   -0.02473  -0.02287  -0.01421  -0.00412  -0.00354
 Alpha virt. eigenvalues --   -0.00036   0.00235   0.00503   0.00596   0.00710

  Beta  occ. eigenvalues --  -38.45590 -38.44705 -38.43966 -38.43934 -38.43857
  Beta  occ. eigenvalues --  -38.43812 -38.42690  -2.21418  -2.20573  -2.19832
  Beta  occ. eigenvalues --   -2.19826  -2.19795  -2.19677  -2.18640  -1.15084
  Beta  occ. eigenvalues --   -1.15066  -1.15058  -1.14270  -1.14255  -1.14192
  Beta  occ. eigenvalues --   -1.13731  -1.13541  -1.13507  -1.13493  -1.13471
  Beta  occ. eigenvalues --   -1.13459  -1.13440  -1.13417  -1.13386  -1.13360
  Beta  occ. eigenvalues --   -1.13334  -1.13323  -1.12362  -1.12278  -1.12264
  Beta  occ. eigenvalues --   -0.18305  -0.14338  -0.11210
  Beta virt. eigenvalues --   -0.07207  -0.06931  -0.05542  -0.03353  -0.03106
  Beta virt. eigenvalues --   -0.02758  -0.01614  -0.01584  -0.01206  -0.00265
  Beta virt. eigenvalues --   -0.00100   0.00062   0.00224   0.00630   0.00682

 Mulliken charges and spin densities:
               1          2
     1  Na   0.060796   0.077162
     2  Na   0.204929   0.208683
     3  Na  -0.016399  -0.085309
     4  Na   0.367877  -0.016331
     5  Na  -1.511891   0.203926
     6  Na   1.307633   0.175077
     7  Na  -0.412945   0.436792
 Sum of Mulliken charges =  -0.00000   1.00000

 Dipole moment (field-independent basis, Debye):
    X=              0.3404    Y=             -0.2410    Z=              0.6261  Tot=              0.7523
 Quadrupole moment (field-independent basis, Debye-Ang):
   XX=            -45.0736   YY=            -75.8878   ZZ=            -72.7317
   XY=             -2.6405   XZ=              0.9725   YZ=              0.8657

 Normal termination of Gaussian 16 at Fri Dec  8 18:03:11 2023.
