 Gaussian 16, Revision B.01,
 Gaussian 16:  ES64L-G16RevB.01 20-Dec-2017

 -------------------------
 #P B3LYP/6-311+g(d) force
 -------------------------

 -----
 DPGEN
 -----
 Symbolic Z-matrix:
 Charge =  0 Multiplicity = 2

                         Standard orientation:
 ---------------------------------------------------------------------
 Center     Atomic      Atomic             Coordinates (Angstroms)
 Number     Number       Type             X           Y           Z
 ---------------------------------------------------------------------
      1         11           0       -1.216714   -2.534203   -0.558806
      2         11           0        2.161607   -2.180458    0.043029
      3         11           0        0.872031    0.430065   -1.612355
      4         11           0       -0.580929   -0.222880    2.279409
      5         11           0        3.296219    1.520524    0.278288
      6         11           0       -3.257633    0.040080   -0.248340
      7         11           0       -1.274581    2.946873   -0.181224
 ---------------------------------------------------------------------

 SCF Done:  E(UB3LYP) =  -1136.12961075     A.U. after   20 cycles

 The electronic state is 2-A.
 Alpha  occ. eigenvalues --  -38.44797 -38.44290 -38.44069 -38.43947 -38.43904
 Alpha  occ. eigenvalues --  -38.43565 -38.43126  -2.20568  -2.20108  -2.19888
 Alpha  occ. eigenvalues --   -2.19729  -2.19724  -2.19455  -2.18980  -1.14247
 Alpha  occ. eigenvalues --   -1.14222  -1.14208  -1.13785  -1.13773  -1.13751
 Alpha  occ. eigenvalues --   -1.13582  -1.13554  -1.13516  -1.13402  -1.13389
 Alpha  occ. eigenvalues --   -1.13377  -1.13364  -1.13358  -1.13346  -1.13138
 Alpha  occ. eigenvalues --   -1.13095  -1.13088  -1.12654  -1.12633  -1.12629
 Alpha  occ. eigenvalues --   -0.17825  -0.13169  -0.12087  -0.10531
 Alpha virt. eigenvalues --   -0.06413  -0.05454  -0.04568  -0.03397  -0.02810
 Alpha virt. eigenvalues --   -0.02573  -0.01825  -0.01258  -0.00848  -0.00409
 Alpha virt. eigenvalues --   -0.00080   0.00315   0.00609   0.00718   0.00759

  Beta  occ. eigenvalues --  -38.44798 -38.44285 -38.44066 -38.43944 -38.43800
  Beta  occ. eigenvalues --  -38.43525 -38.43113  -2.20571  -2.20102  -2.19885
  Beta  occ. eigenvalues --   -2.19722  -2.19534  -2.19381  -2.18957  -1.14244
  Beta  occ. eigenvalues --   -1.14222  -1.14212  -1.13781  -1.13750  -1.13749
  Beta  occ. eigenvalues --   -1.13576  -1.13535  -1.13517  -1.13393  -1.13377
  Beta  occ. eigenvalues --   -1.13365  -1.13247  -1.13223  -1.13209  -1.13087
  Beta  occ. eigenvalues --   -1.13038  -1.13034  -1.12639  -1.12617  -1.12596
  Beta  occ. eigenvalues --   -0.17150  -0.13016  -0.11907
  Beta virt. eigenvalues --   -0.06684  -0.06326  -0.05327  -0.04483  -0.02735
  Beta virt. eigenvalues --   -0.02145  -0.01707  -0.01550  -0.01175  -0.00882
  Beta virt. eigenvalues --   -0.00423   0.00115   0.00379   0.00727   0.00741

 Mulliken charges and spin densities:
               1          2
     1  Na  -0.010886   0.064876
     2  Na   0.007110   0.032046
     3  Na   0.337123   0.237089
     4  Na  -0.488748   0.740411
     5  Na  -0.011459  -0.057694
     6  Na   0.181493   0.063520
     7  Na  -0.014633  -0.080248
 Sum of Mulliken charges =  -0.00000   1.00000

 Dipole moment (field-independent basis, Debye):
    X=              0.5477    Y=              0.3399    Z=              0.1537  Tot=              0.6627
 Quadrupole moment (field-independent basis, Debye-Ang):
   XX=            -54.6719   YY=            -64.6926   ZZ=            -75.0258
   XY=              0.4099   XZ=              2.9311   YZ=              1.3013

 Normal termination of Gaussian 16 at Thu Dec  7 14:17:28 2023.
