 Gaussian 16, Revision B.01,
 Gaussian 16:  ES64L-G16RevB.01 20-Dec-2017

 -------------------------
 #P B3LYP/6-311+g(d) force
 -------------------------

 -----
 DPGEN
 -----
 Symbolic Z-matrix:
 Charge =  0 Multiplicity = 2

                         Standard orientation:
 ---------------------------------------------------------------------
 Center     Atomic      Atomic             Coordinates (Angstroms)
 Number     Number       Type             X           Y           Z
 ---------------------------------------------------------------------
      1         11           0        0.275644    3.274640    0.485557
      2         11           0        0.127689   -0.783532    2.248055
      3         11           0        0.006431   -0.487901   -1.772711
      4         11           0        1.878497   -2.159520   -0.291130
      5         11           0       -2.196577   -2.065180    0.172081
      6         11           0       -3.019074    1.308727   -0.501106
      7         11           0        2.927392    0.912765   -0.340746
 ---------------------------------------------------------------------

 SCF Done:  E(UB3LYP) =  -1136.12873376     A.U. after   19 cycles

 The electronic state is 2-A.
 Alpha  occ. eigenvalues --  -38.44265 -38.44164 -38.43923 -38.43890 -38.43802
 Alpha  occ. eigenvalues --  -38.43672 -38.43653  -2.20123  -2.19937  -2.19875
 Alpha  occ. eigenvalues --   -2.19721  -2.19652  -2.19603  -2.19407  -1.13774
 Alpha  occ. eigenvalues --   -1.13763  -1.13740  -1.13665  -1.13619  -1.13596
 Alpha  occ. eigenvalues --   -1.13575  -1.13513  -1.13509  -1.13402  -1.13394
 Alpha  occ. eigenvalues --   -1.13364  -1.13330  -1.13315  -1.13273  -1.13251
 Alpha  occ. eigenvalues --   -1.13240  -1.13193  -1.13085  -1.13062  -1.13051
 Alpha  occ. eigenvalues --   -0.18272  -0.13035  -0.12191  -0.11204
 Alpha virt. eigenvalues --   -0.05628  -0.05371  -0.04777  -0.03436  -0.03116
 Alpha virt. eigenvalues --   -0.02860  -0.01366  -0.01070  -0.00547  -0.00384
 Alpha virt. eigenvalues --   -0.00075   0.00354   0.00751   0.00834   0.00863

  Beta  occ. eigenvalues --  -38.44162 -38.44159 -38.43887 -38.43858 -38.43797
  Beta  occ. eigenvalues --  -38.43659 -38.43649  -2.19934  -2.19930  -2.19756
  Beta  occ. eigenvalues --   -2.19719  -2.19645  -2.19584  -2.19400  -1.13653
  Beta  occ. eigenvalues --   -1.13632  -1.13607  -1.13603  -1.13596  -1.13589
  Beta  occ. eigenvalues --   -1.13570  -1.13442  -1.13428  -1.13398  -1.13379
  Beta  occ. eigenvalues --   -1.13352  -1.13314  -1.13295  -1.13261  -1.13226
  Beta  occ. eigenvalues --   -1.13204  -1.13169  -1.13075  -1.13059  -1.13047
  Beta  occ. eigenvalues --   -0.17537  -0.12781  -0.11987
  Beta virt. eigenvalues --   -0.07299  -0.05546  -0.05361  -0.04571  -0.02654
  Beta virt. eigenvalues --   -0.02368  -0.01966  -0.01279  -0.01044  -0.00524
  Beta virt. eigenvalues --   -0.00430   0.00104   0.00403   0.00833   0.00868

 Mulliken charges and spin densities:
               1          2
     1  Na  -0.174912   0.000555
     2  Na  -0.292390   0.724183
     3  Na   0.179550   0.302177
     4  Na   0.599974   0.033635
     5  Na   0.172820  -0.030525
     6  Na  -0.217540  -0.026003
     7  Na  -0.267504  -0.004022
 Sum of Mulliken charges =  -0.00000   1.00000

 Dipole moment (field-independent basis, Debye):
    X=             -0.1477    Y=             -0.3162    Z=              0.1312  Tot=              0.3729
 Quadrupole moment (field-independent basis, Debye-Ang):
   XX=            -59.3956   YY=            -65.4109   ZZ=            -71.8441
   XY=             -0.4152   XZ=              0.0638   YZ=              0.3703

 Normal termination of Gaussian 16 at Thu Dec  7 10:29:36 2023.
