 Gaussian 16, Revision B.01,
 Gaussian 16:  ES64L-G16RevB.01 20-Dec-2017

 -------------------------
 #P B3LYP/6-311+g(d) force
 -------------------------

 -----
 DPGEN
 -----
 Symbolic Z-matrix:
 Charge =  0 Multiplicity = 2

                         Standard orientation:
 ---------------------------------------------------------------------
 Center     Atomic      Atomic             Coordinates (Angstroms)
 Number     Number       Type             X           Y           Z
 ---------------------------------------------------------------------
      1         11           0       -0.248225    0.166640   -1.826048
      2         11           0        0.129511   -0.038403    1.873127
      3         11           0       -2.198136    1.544675    0.138806
      4         11           0       -2.065200   -1.509075    0.002497
      5         11           0        0.645859   -2.165934   -0.065124
      6         11           0        0.989501    2.148347    0.002834
      7         11           0        2.746690   -0.146250   -0.126092
 ---------------------------------------------------------------------

 SCF Done:  E(UB3LYP) =  -1136.11042864     A.U. after   20 cycles

 The electronic state is 2-A.
 Alpha  occ. eigenvalues --  -38.43845 -38.43782 -38.43772 -38.43456 -38.43366
 Alpha  occ. eigenvalues --  -38.43150 -38.43145  -2.19963  -2.19905  -2.19792
 Alpha  occ. eigenvalues --   -2.19514  -2.19350  -2.19261  -2.19209  -1.13732
 Alpha  occ. eigenvalues --   -1.13654  -1.13625  -1.13601  -1.13588  -1.13549
 Alpha  occ. eigenvalues --   -1.13534  -1.13479  -1.13398  -1.13338  -1.13198
 Alpha  occ. eigenvalues --   -1.13128  -1.13020  -1.12997  -1.12958  -1.12894
 Alpha  occ. eigenvalues --   -1.12874  -1.12871  -1.12854  -1.12804  -1.12779
 Alpha  occ. eigenvalues --   -0.20897  -0.13658  -0.12820  -0.11956
 Alpha virt. eigenvalues --   -0.05150  -0.04551  -0.04081  -0.03597  -0.03184
 Alpha virt. eigenvalues --   -0.02915  -0.01139  -0.00595  -0.00085   0.00334
 Alpha virt. eigenvalues --    0.00594   0.00637   0.00980   0.01086   0.01095

  Beta  occ. eigenvalues --  -38.43775 -38.43752 -38.43683 -38.43446 -38.43358
  Beta  occ. eigenvalues --  -38.43137 -38.43130  -2.19794  -2.19784  -2.19744
  Beta  occ. eigenvalues --   -2.19501  -2.19340  -2.19241  -2.19193  -1.13648
  Beta  occ. eigenvalues --   -1.13560  -1.13546  -1.13521  -1.13502  -1.13481
  Beta  occ. eigenvalues --   -1.13440  -1.13411  -1.13348  -1.13321  -1.13186
  Beta  occ. eigenvalues --   -1.13071  -1.13014  -1.12959  -1.12949  -1.12884
  Beta  occ. eigenvalues --   -1.12864  -1.12801  -1.12800  -1.12788  -1.12775
  Beta  occ. eigenvalues --   -0.20067  -0.13329  -0.12476
  Beta virt. eigenvalues --   -0.07830  -0.05157  -0.04550  -0.04082  -0.02674
  Beta virt. eigenvalues --   -0.02273  -0.01808  -0.01067  -0.00549   0.00061
  Beta virt. eigenvalues --    0.00345   0.00548   0.00602   0.01028   0.01080

 Mulliken charges and spin densities:
               1          2
     1  Na  -1.365212   0.431394
     2  Na  -1.373413   0.476639
     3  Na   0.498216  -0.019295
     4  Na   0.439453   0.006381
     5  Na   0.879922   0.107336
     6  Na   0.851784   0.041586
     7  Na   0.069251  -0.044039
 Sum of Mulliken charges =  -0.00000   1.00000

 Dipole moment (field-independent basis, Debye):
    X=             -0.0528    Y=              0.2164    Z=              0.0494  Tot=              0.2281
 Quadrupole moment (field-independent basis, Debye-Ang):
   XX=            -59.3759   YY=            -68.5358   ZZ=            -68.9856
   XY=             -0.4157   XZ=             -0.8129   YZ=              0.4483

 Normal termination of Gaussian 16 at Fri Dec  8 17:10:48 2023.
