 Gaussian 16, Revision B.01,
 Gaussian 16:  ES64L-G16RevB.01 20-Dec-2017

 -------------------------
 #P B3LYP/6-311+g(d) force
 -------------------------

 -----
 DPGEN
 -----
 Symbolic Z-matrix:
 Charge =  0 Multiplicity = 2

                         Standard orientation:
 ---------------------------------------------------------------------
 Center     Atomic      Atomic             Coordinates (Angstroms)
 Number     Number       Type             X           Y           Z
 ---------------------------------------------------------------------
      1         11           0       -1.761775   -0.827508    2.007333
      2         11           0        2.511430    2.050801   -0.365488
      3         11           0        3.190345   -1.601672    0.236870
      4         11           0        0.594455   -0.075511    0.106707
      5         11           0       -1.365972    2.314780    0.710645
      6         11           0       -1.975492    0.653866   -1.775809
      7         11           0       -1.192990   -2.514756   -0.920259
 ---------------------------------------------------------------------

 SCF Done:  E(UB3LYP) =  -1136.11990948     A.U. after   21 cycles

 The electronic state is 2-A.
 Alpha  occ. eigenvalues --  -38.44466 -38.44379 -38.43938 -38.43921 -38.43302
 Alpha  occ. eigenvalues --  -38.43128 -38.42305  -2.20268  -2.20203  -2.19847
 Alpha  occ. eigenvalues --   -2.19840  -2.19175  -2.19049  -2.18521  -1.13984
 Alpha  occ. eigenvalues --   -1.13956  -1.13925  -1.13876  -1.13859  -1.13784
 Alpha  occ. eigenvalues --   -1.13546  -1.13529  -1.13509  -1.13456  -1.13449
 Alpha  occ. eigenvalues --   -1.13444  -1.12873  -1.12819  -1.12803  -1.12753
 Alpha  occ. eigenvalues --   -1.12718  -1.12656  -1.12223  -1.12180  -1.12156
 Alpha  occ. eigenvalues --   -0.18714  -0.13203  -0.12011  -0.11198
 Alpha virt. eigenvalues --   -0.05872  -0.05026  -0.04067  -0.03062  -0.02903
 Alpha virt. eigenvalues --   -0.02634  -0.01508  -0.01140  -0.00449   0.00027
 Alpha virt. eigenvalues --    0.00117   0.00357   0.00683   0.00782   0.00924

  Beta  occ. eigenvalues --  -38.44470 -38.44380 -38.43853 -38.43851 -38.43281
  Beta  occ. eigenvalues --  -38.43112 -38.42286  -2.20275  -2.20205  -2.19717
  Beta  occ. eigenvalues --   -2.19686  -2.19140  -2.19025  -2.18494  -1.13988
  Beta  occ. eigenvalues --   -1.13958  -1.13927  -1.13883  -1.13857  -1.13788
  Beta  occ. eigenvalues --   -1.13453  -1.13435  -1.13408  -1.13361  -1.13349
  Beta  occ. eigenvalues --   -1.13332  -1.12851  -1.12791  -1.12763  -1.12741
  Beta  occ. eigenvalues --   -1.12685  -1.12620  -1.12181  -1.12149  -1.12130
  Beta  occ. eigenvalues --   -0.17981  -0.13015  -0.11826
  Beta virt. eigenvalues --   -0.07075  -0.05833  -0.04769  -0.03984  -0.02512
  Beta virt. eigenvalues --   -0.02317  -0.01803  -0.01307  -0.01071  -0.00112
  Beta virt. eigenvalues --    0.00074   0.00148   0.00423   0.00744   0.00787

 Mulliken charges and spin densities:
               1          2
     1  Na  -0.081186   0.023944
     2  Na   0.188019  -0.102572
     3  Na   0.177497  -0.290809
     4  Na  -2.325084   0.826530
     5  Na   1.319275   0.300277
     6  Na   0.444232   0.189687
     7  Na   0.277247   0.052943
 Sum of Mulliken charges =  -0.00000   1.00000

 Dipole moment (field-independent basis, Debye):
    X=              0.4955    Y=             -0.0929    Z=             -0.0363  Tot=              0.5054
 Quadrupole moment (field-independent basis, Debye-Ang):
   XX=            -58.0249   YY=            -62.8312   ZZ=            -69.5588
   XY=             -0.3356   XZ=             -0.4214   YZ=             -0.4198

 Normal termination of Gaussian 16 at Thu Dec  7 17:39:49 2023.
