 Gaussian 16, Revision B.01,
 Gaussian 16:  ES64L-G16RevB.01 20-Dec-2017

 -------------------------
 #P B3LYP/6-311+g(d) force
 -------------------------

 -----
 DPGEN
 -----
 Symbolic Z-matrix:
 Charge =  0 Multiplicity = 2

                         Standard orientation:
 ---------------------------------------------------------------------
 Center     Atomic      Atomic             Coordinates (Angstroms)
 Number     Number       Type             X           Y           Z
 ---------------------------------------------------------------------
      1         11           0       -0.173289   -0.357412   -1.761137
      2         11           0       -0.011141    0.154441    2.085448
      3         11           0        0.824345   -2.644673    0.514911
      4         11           0       -3.003410   -1.512342   -0.441066
      5         11           0       -2.419602    2.145895    0.231707
      6         11           0        1.498082    2.520174   -0.335006
      7         11           0        3.285015   -0.306083   -0.294858
 ---------------------------------------------------------------------

 SCF Done:  E(UB3LYP) =  -1136.13524973     A.U. after   19 cycles

 The electronic state is 2-A.
 Alpha  occ. eigenvalues --  -38.44227 -38.44197 -38.43979 -38.43862 -38.43715
 Alpha  occ. eigenvalues --  -38.43308 -38.43165  -2.20022  -2.20020  -2.19762
 Alpha  occ. eigenvalues --   -2.19737  -2.19618  -2.19134  -2.19027  -1.13711
 Alpha  occ. eigenvalues --   -1.13689  -1.13683  -1.13669  -1.13667  -1.13656
 Alpha  occ. eigenvalues --   -1.13446  -1.13423  -1.13405  -1.13398  -1.13366
 Alpha  occ. eigenvalues --   -1.13351  -1.13304  -1.13260  -1.13238  -1.12812
 Alpha  occ. eigenvalues --   -1.12806  -1.12763  -1.12715  -1.12692  -1.12645
 Alpha  occ. eigenvalues --   -0.18216  -0.13045  -0.12050  -0.10968
 Alpha virt. eigenvalues --   -0.05841  -0.05486  -0.04305  -0.03294  -0.02957
 Alpha virt. eigenvalues --   -0.02724  -0.01790  -0.01223  -0.00407  -0.00335
 Alpha virt. eigenvalues --   -0.00054   0.00319   0.00702   0.00819   0.00878

  Beta  occ. eigenvalues --  -38.44217 -38.44192 -38.43976 -38.43767 -38.43657
  Beta  occ. eigenvalues --  -38.43302 -38.43149  -2.20014  -2.20004  -2.19758
  Beta  occ. eigenvalues --   -2.19561  -2.19512  -2.19126  -2.19002  -1.13685
  Beta  occ. eigenvalues --   -1.13684  -1.13672  -1.13656  -1.13655  -1.13647
  Beta  occ. eigenvalues --   -1.13429  -1.13418  -1.13395  -1.13291  -1.13246
  Beta  occ. eigenvalues --   -1.13231  -1.13222  -1.13188  -1.13156  -1.12805
  Beta  occ. eigenvalues --   -1.12795  -1.12750  -1.12696  -1.12652  -1.12629
  Beta  occ. eigenvalues --   -0.17502  -0.12794  -0.11800
  Beta virt. eigenvalues --   -0.07110  -0.05741  -0.05448  -0.04236  -0.02595
  Beta virt. eigenvalues --   -0.02214  -0.01758  -0.01630  -0.01158  -0.00432
  Beta virt. eigenvalues --   -0.00335   0.00076   0.00360   0.00787   0.00828

 Mulliken charges and spin densities:
               1          2
     1  Na  -0.131713   0.522529
     2  Na  -0.222515   0.620068
     3  Na   0.198666   0.034867
     4  Na   0.110232  -0.038190
     5  Na  -0.036177  -0.068675
     6  Na  -0.028258  -0.040885
     7  Na   0.109764  -0.029715
 Sum of Mulliken charges =  -0.00000   1.00000

 Dipole moment (field-independent basis, Debye):
    X=             -0.2129    Y=             -0.0689    Z=              0.0031  Tot=              0.2238
 Quadrupole moment (field-independent basis, Debye-Ang):
   XX=            -54.7075   YY=            -66.0693   ZZ=            -73.2295
   XY=             -0.4535   XZ=             -0.5498   YZ=             -0.6599

 Normal termination of Gaussian 16 at Tue Dec  5 10:32:53 2023.
