 Gaussian 16, Revision B.01,
 Gaussian 16:  ES64L-G16RevB.01 20-Dec-2017

 -------------------------
 #P B3LYP/6-311+g(d) force
 -------------------------

 -----
 DPGEN
 -----
 Symbolic Z-matrix:
 Charge =  0 Multiplicity = 2

                         Standard orientation:
 ---------------------------------------------------------------------
 Center     Atomic      Atomic             Coordinates (Angstroms)
 Number     Number       Type             X           Y           Z
 ---------------------------------------------------------------------
      1         11           0        0.313989   -2.672949    0.098527
      2         11           0        2.999615   -0.871582   -0.540703
      3         11           0        1.802222    2.515381    0.172560
      4         11           0        0.315758    0.105160    1.775095
      5         11           0       -2.201585    2.167504   -0.304586
      6         11           0       -0.309132    0.010341   -1.324312
      7         11           0       -2.920867   -1.253856    0.123418
 ---------------------------------------------------------------------

 SCF Done:  E(UB3LYP) =  -1136.13335145     A.U. after   22 cycles

 The electronic state is 2-A.
 Alpha  occ. eigenvalues --  -38.44069 -38.43916 -38.43876 -38.43705 -38.43019
 Alpha  occ. eigenvalues --  -38.42992 -38.42886  -2.19918  -2.19772  -2.19727
 Alpha  occ. eigenvalues --   -2.19538  -2.18983  -2.18974  -2.18954  -1.13608
 Alpha  occ. eigenvalues --   -1.13577  -1.13555  -1.13456  -1.13441  -1.13434
 Alpha  occ. eigenvalues --   -1.13409  -1.13376  -1.13335  -1.13231  -1.13198
 Alpha  occ. eigenvalues --   -1.13166  -1.12808  -1.12707  -1.12659  -1.12608
 Alpha  occ. eigenvalues --   -1.12586  -1.12569  -1.12562  -1.12557  -1.12551
 Alpha  occ. eigenvalues --   -0.19032  -0.13308  -0.12538  -0.10287
 Alpha virt. eigenvalues --   -0.05610  -0.05524  -0.04535  -0.03036  -0.02644
 Alpha virt. eigenvalues --   -0.01926  -0.01725  -0.01292  -0.00478  -0.00224
 Alpha virt. eigenvalues --    0.00041   0.00324   0.00773   0.00842   0.00896

  Beta  occ. eigenvalues --  -38.44067 -38.43896 -38.43866 -38.43699 -38.43009
  Beta  occ. eigenvalues --  -38.42905 -38.42838  -2.19916  -2.19738  -2.19712
  Beta  occ. eigenvalues --   -2.19529  -2.18943  -2.18893  -2.18818  -1.13605
  Beta  occ. eigenvalues --   -1.13574  -1.13540  -1.13439  -1.13418  -1.13402
  Beta  occ. eigenvalues --   -1.13379  -1.13356  -1.13324  -1.13215  -1.13178
  Beta  occ. eigenvalues --   -1.13164  -1.12756  -1.12646  -1.12607  -1.12552
  Beta  occ. eigenvalues --   -1.12521  -1.12511  -1.12503  -1.12468  -1.12454
  Beta  occ. eigenvalues --   -0.18349  -0.13019  -0.12254
  Beta virt. eigenvalues --   -0.06467  -0.05563  -0.05426  -0.04524  -0.02314
  Beta virt. eigenvalues --   -0.01907  -0.01607  -0.01232  -0.00942  -0.00489
  Beta virt. eigenvalues --   -0.00257   0.00174   0.00378   0.00822   0.00863

 Mulliken charges and spin densities:
               1          2
     1  Na   0.361820   0.091304
     2  Na   0.110864   0.116243
     3  Na   0.066064  -0.038229
     4  Na  -0.247949   0.615639
     5  Na   0.188656  -0.047139
     6  Na  -0.691256   0.267739
     7  Na   0.211802  -0.005556
 Sum of Mulliken charges =  -0.00000   1.00000

 Dipole moment (field-independent basis, Debye):
    X=             -0.1508    Y=              0.2015    Z=              0.1635  Tot=              0.3001
 Quadrupole moment (field-independent basis, Debye-Ang):
   XX=            -53.2414   YY=            -61.2522   ZZ=            -76.4757
   XY=              0.9207   XZ=             -1.7169   YZ=             -0.3927

 Normal termination of Gaussian 16 at Tue Nov 28 21:05:59 2023.
