 Gaussian 16, Revision B.01,
 Gaussian 16:  ES64L-G16RevB.01 20-Dec-2017

 -------------------------
 #P B3LYP/6-311+g(d) force
 -------------------------

 -----
 DPGEN
 -----
 Symbolic Z-matrix:
 Charge =  0 Multiplicity = 2

                         Standard orientation:
 ---------------------------------------------------------------------
 Center     Atomic      Atomic             Coordinates (Angstroms)
 Number     Number       Type             X           Y           Z
 ---------------------------------------------------------------------
      1         11           0        5.558738   -3.188260   -0.706596
      2         11           0       -7.496415   -1.700096    0.610815
      3         11           0       -2.185573    1.421916    0.018189
      4         11           0       -5.421556   -0.280132   -0.940143
      5         11           0        1.445160    3.254779    0.281899
      6         11           0        4.010718    1.886523   -0.425088
      7         11           0        4.088929   -1.394731    1.160925
 ---------------------------------------------------------------------

 SCF Done:  E(UB3LYP) =  -1136.10458335     A.U. after   17 cycles

 The electronic state is 2-A.
 Alpha  occ. eigenvalues --  -38.44958 -38.44585 -38.44527 -38.44471 -38.44449
 Alpha  occ. eigenvalues --  -38.44074 -38.43812  -2.20736  -2.20423  -2.20336
 Alpha  occ. eigenvalues --   -2.20299  -2.20271  -2.19874  -2.19628  -1.14383
 Alpha  occ. eigenvalues --   -1.14382  -1.14329  -1.14121  -1.14117  -1.14071
 Alpha  occ. eigenvalues --   -1.14057  -1.14002  -1.13983  -1.13979  -1.13925
 Alpha  occ. eigenvalues --   -1.13924  -1.13923  -1.13913  -1.13837  -1.13546
 Alpha  occ. eigenvalues --   -1.13533  -1.13518  -1.13301  -1.13288  -1.13274
 Alpha  occ. eigenvalues --   -0.15310  -0.14321  -0.12885  -0.11345
 Alpha virt. eigenvalues --   -0.06483  -0.05544  -0.04184  -0.03468  -0.03012
 Alpha virt. eigenvalues --   -0.02609  -0.02549  -0.01861  -0.01504  -0.01211
 Alpha virt. eigenvalues --   -0.00573  -0.00528  -0.00111   0.00311   0.00584

  Beta  occ. eigenvalues --  -38.44842 -38.44543 -38.44510 -38.44451 -38.44409
  Beta  occ. eigenvalues --  -38.44083 -38.43819  -2.20518  -2.20345  -2.20306
  Beta  occ. eigenvalues --   -2.20276  -2.20184  -2.19895  -2.19647  -1.14235
  Beta  occ. eigenvalues --   -1.14235  -1.14186  -1.14108  -1.14069  -1.14019
  Beta  occ. eigenvalues --   -1.14005  -1.13966  -1.13960  -1.13930  -1.13925
  Beta  occ. eigenvalues --   -1.13911  -1.13847  -1.13844  -1.13827  -1.13557
  Beta  occ. eigenvalues --   -1.13548  -1.13507  -1.13308  -1.13308  -1.13249
  Beta  occ. eigenvalues --   -0.14915  -0.13518  -0.12468
  Beta virt. eigenvalues --   -0.07999  -0.06114  -0.05234  -0.03896  -0.03277
  Beta virt. eigenvalues --   -0.02715  -0.02429  -0.02373  -0.01696  -0.01330
  Beta virt. eigenvalues --   -0.00714  -0.00431  -0.00126   0.00089   0.00469

 Mulliken charges and spin densities:
               1          2
     1  Na   0.392692   0.053214
     2  Na   0.328377   0.262311
     3  Na  -0.238330   0.623054
     4  Na  -0.342603  -0.067471
     5  Na  -0.032626  -0.067218
     6  Na   0.296278   0.169814
     7  Na  -0.403788   0.026296
 Sum of Mulliken charges =  -0.00000   1.00000

 Dipole moment (field-independent basis, Debye):
    X=              1.0313    Y=             -0.7472    Z=              0.0948  Tot=              1.2770
 Quadrupole moment (field-independent basis, Debye-Ang):
   XX=            -59.4705   YY=            -67.6855   ZZ=            -67.6393
   XY=              0.0492   XZ=             -8.8761   YZ=              1.0757

 Normal termination of Gaussian 16 at Mon Dec  4 05:02:19 2023.
