 Gaussian 16, Revision B.01,
 Gaussian 16:  ES64L-G16RevB.01 20-Dec-2017

 -------------------------
 #P B3LYP/6-311+g(d) force
 -------------------------

 -----
 DPGEN
 -----
 Symbolic Z-matrix:
 Charge =  0 Multiplicity = 2

                         Standard orientation:
 ---------------------------------------------------------------------
 Center     Atomic      Atomic             Coordinates (Angstroms)
 Number     Number       Type             X           Y           Z
 ---------------------------------------------------------------------
      1         11           0        0.508135   -1.428897    0.959906
      2         11           0        3.470714   -3.068004   -0.135923
      3         11           0        3.260021    0.434833   -0.539657
      4         11           0        0.038067    1.435242   -0.991352
      5         11           0       -2.642924   -0.783128   -0.096906
      6         11           0        2.464706    3.350118    0.756194
      7         11           0       -7.098719    0.059836    0.047739
 ---------------------------------------------------------------------

 SCF Done:  E(UB3LYP) =  -1136.11956820     A.U. after   19 cycles

 The electronic state is 2-A.
 Alpha  occ. eigenvalues --  -38.45670 -38.44366 -38.44047 -38.43931 -38.43730
 Alpha  occ. eigenvalues --  -38.43358 -38.43160  -2.21450  -2.20214  -2.19856
 Alpha  occ. eigenvalues --   -2.19782  -2.19608  -2.19151  -2.18956  -1.15070
 Alpha  occ. eigenvalues --   -1.15070  -1.15051  -1.13936  -1.13907  -1.13789
 Alpha  occ. eigenvalues --   -1.13536  -1.13518  -1.13489  -1.13482  -1.13472
 Alpha  occ. eigenvalues --   -1.13371  -1.13326  -1.13299  -1.13172  -1.12833
 Alpha  occ. eigenvalues --   -1.12824  -1.12786  -1.12623  -1.12620  -1.12584
 Alpha  occ. eigenvalues --   -0.16908  -0.13419  -0.12159  -0.11688
 Alpha virt. eigenvalues --   -0.06083  -0.05296  -0.04898  -0.03469  -0.02599
 Alpha virt. eigenvalues --   -0.02351  -0.02076  -0.01832  -0.01318  -0.01211
 Alpha virt. eigenvalues --   -0.00426  -0.00266   0.00277   0.00459   0.00535

  Beta  occ. eigenvalues --  -38.45505 -38.44356 -38.44041 -38.43920 -38.43723
  Beta  occ. eigenvalues --  -38.43364 -38.43153  -2.21142  -2.20197  -2.19846
  Beta  occ. eigenvalues --   -2.19762  -2.19594  -2.19167  -2.18943  -1.14862
  Beta  occ. eigenvalues --   -1.14861  -1.14843  -1.13926  -1.13895  -1.13771
  Beta  occ. eigenvalues --   -1.13527  -1.13511  -1.13478  -1.13476  -1.13459
  Beta  occ. eigenvalues --   -1.13350  -1.13315  -1.13291  -1.13161  -1.12848
  Beta  occ. eigenvalues --   -1.12838  -1.12770  -1.12614  -1.12610  -1.12576
  Beta  occ. eigenvalues --   -0.16722  -0.12479  -0.11964
  Beta virt. eigenvalues --   -0.07582  -0.05999  -0.05032  -0.04633  -0.03341
  Beta virt. eigenvalues --   -0.02356  -0.01933  -0.01624  -0.01309  -0.00846
  Beta virt. eigenvalues --   -0.00561  -0.00365   0.00029   0.00384   0.00595

 Mulliken charges and spin densities:
               1          2
     1  Na  -0.600335  -0.056200
     2  Na   0.361586   0.014423
     3  Na  -0.065716   0.120888
     4  Na  -0.155026  -0.024206
     5  Na   0.162399   0.154871
     6  Na   0.182956   0.016080
     7  Na   0.114136   0.774144
 Sum of Mulliken charges =  -0.00000   1.00000

 Dipole moment (field-independent basis, Debye):
    X=              0.0975    Y=              0.8364    Z=              0.1908  Tot=              0.8634
 Quadrupole moment (field-independent basis, Debye-Ang):
   XX=            -65.2480   YY=            -65.1753   ZZ=            -67.8624
   XY=              0.6320   XZ=              0.4954   YZ=              1.8238

 Normal termination of Gaussian 16 at Tue Nov 28 20:08:16 2023.
