 Gaussian 16, Revision B.01,
 Gaussian 16:  ES64L-G16RevB.01 20-Dec-2017

 -------------------------
 #P B3LYP/6-311+g(d) force
 -------------------------

 -----
 DPGEN
 -----
 Symbolic Z-matrix:
 Charge =  0 Multiplicity = 2

                         Standard orientation:
 ---------------------------------------------------------------------
 Center     Atomic      Atomic             Coordinates (Angstroms)
 Number     Number       Type             X           Y           Z
 ---------------------------------------------------------------------
      1         11           0       -1.578952   -2.600689    0.166567
      2         11           0       -0.032635    2.977217    0.057389
      3         11           0        2.246518   -1.939487    0.062154
      4         11           0       -0.257608   -0.044459   -1.702908
      5         11           0       -3.122325    0.536883   -0.259621
      6         11           0       -0.064352    0.346155    2.030032
      7         11           0        2.809354    0.724380   -0.353613
 ---------------------------------------------------------------------

 SCF Done:  E(UB3LYP) =  -1136.13322558     A.U. after   20 cycles

 The electronic state is 2-A.
 Alpha  occ. eigenvalues --  -38.44383 -38.43911 -38.43720 -38.43618 -38.43576
 Alpha  occ. eigenvalues --  -38.43345 -38.43210  -2.20211  -2.19840  -2.19615
 Alpha  occ. eigenvalues --   -2.19473  -2.19440  -2.19308  -2.19056  -1.13906
 Alpha  occ. eigenvalues --   -1.13868  -1.13833  -1.13764  -1.13483  -1.13451
 Alpha  occ. eigenvalues --   -1.13241  -1.13232  -1.13185  -1.13144  -1.13123
 Alpha  occ. eigenvalues --   -1.13115  -1.13100  -1.13089  -1.13074  -1.12985
 Alpha  occ. eigenvalues --   -1.12945  -1.12931  -1.12732  -1.12717  -1.12687
 Alpha  occ. eigenvalues --   -0.18754  -0.13320  -0.12293  -0.10859
 Alpha virt. eigenvalues --   -0.05810  -0.04993  -0.04628  -0.03371  -0.02899
 Alpha virt. eigenvalues --   -0.02611  -0.01596  -0.01079  -0.00280  -0.00266
 Alpha virt. eigenvalues --   -0.00014   0.00368   0.00806   0.00887   0.00927

  Beta  occ. eigenvalues --  -38.44375 -38.43901 -38.43717 -38.43615 -38.43483
  Beta  occ. eigenvalues --  -38.43280 -38.43205  -2.20200  -2.19826  -2.19612
  Beta  occ. eigenvalues --   -2.19436  -2.19302  -2.19190  -2.19052  -1.13887
  Beta  occ. eigenvalues --   -1.13851  -1.13829  -1.13762  -1.13462  -1.13427
  Beta  occ. eigenvalues --   -1.13233  -1.13216  -1.13181  -1.13117  -1.13092
  Beta  occ. eigenvalues --   -1.13070  -1.13032  -1.12980  -1.12974  -1.12905
  Beta  occ. eigenvalues --   -1.12856  -1.12849  -1.12721  -1.12694  -1.12687
  Beta  occ. eigenvalues --   -0.18019  -0.13072  -0.12058
  Beta virt. eigenvalues --   -0.06952  -0.05772  -0.04954  -0.04599  -0.02574
  Beta virt. eigenvalues --   -0.02128  -0.01566  -0.01496  -0.01006  -0.00325
  Beta virt. eigenvalues --   -0.00305   0.00123   0.00396   0.00834   0.00918

 Mulliken charges and spin densities:
               1          2
     1  Na   0.002402  -0.035876
     2  Na   0.199388  -0.096854
     3  Na  -0.015457  -0.034419
     4  Na  -0.171545   0.467040
     5  Na   0.183342  -0.099559
     6  Na  -0.510303   0.759857
     7  Na   0.312173   0.039811
 Sum of Mulliken charges =  -0.00000   1.00000

 Dipole moment (field-independent basis, Debye):
    X=             -0.5439    Y=              0.0471    Z=              0.0894  Tot=              0.5532
 Quadrupole moment (field-independent basis, Debye-Ang):
   XX=            -57.6912   YY=            -62.9856   ZZ=            -73.8663
   XY=             -0.1611   XZ=             -0.3698   YZ=             -1.2977

 Normal termination of Gaussian 16 at Thu Dec  7 06:04:35 2023.
