 Gaussian 16, Revision B.01,
 Gaussian 16:  ES64L-G16RevB.01 20-Dec-2017

 -------------------------
 #P B3LYP/6-311+g(d) force
 -------------------------

 -----
 DPGEN
 -----
 Symbolic Z-matrix:
 Charge =  0 Multiplicity = 2

                         Standard orientation:
 ---------------------------------------------------------------------
 Center     Atomic      Atomic             Coordinates (Angstroms)
 Number     Number       Type             X           Y           Z
 ---------------------------------------------------------------------
      1         11           0       -0.617990    0.623785   -1.398927
      2         11           0        1.836167   -0.856737    1.335447
      3         11           0       -0.276976   -2.005723   -0.569131
      4         11           0       -2.817308    0.071136   -0.020469
      5         11           0       -0.735765    0.083998    1.721222
      6         11           0        1.805024   -0.015851   -1.406253
      7         11           0        0.806849    2.099392    0.338110
 ---------------------------------------------------------------------

 SCF Done:  E(UB3LYP) =  -1136.06291059     A.U. after   29 cycles

 The electronic state is 2-A.
 Alpha  occ. eigenvalues --  -38.45020 -38.44768 -38.44722 -38.44359 -38.44256
 Alpha  occ. eigenvalues --  -38.42937 -38.42693  -2.21468  -2.20982  -2.20974
 Alpha  occ. eigenvalues --   -2.20400  -2.20358  -2.19063  -2.18830  -1.15721
 Alpha  occ. eigenvalues --   -1.15169  -1.15094  -1.14901  -1.14670  -1.14645
 Alpha  occ. eigenvalues --   -1.14553  -1.14509  -1.14492  -1.14075  -1.14022
 Alpha  occ. eigenvalues --   -1.13967  -1.13954  -1.13909  -1.13902  -1.12802
 Alpha  occ. eigenvalues --   -1.12715  -1.12609  -1.12597  -1.12472  -1.12385
 Alpha  occ. eigenvalues --   -0.21791  -0.13764  -0.13448  -0.12208
 Alpha virt. eigenvalues --   -0.05214  -0.04265  -0.04236  -0.03475  -0.03310
 Alpha virt. eigenvalues --   -0.03023  -0.00983  -0.00390  -0.00260   0.00314
 Alpha virt. eigenvalues --    0.00831   0.00896   0.01078   0.01134   0.01268

  Beta  occ. eigenvalues --  -38.44943 -38.44711 -38.44639 -38.44354 -38.44207
  Beta  occ. eigenvalues --  -38.42924 -38.42672  -2.21337  -2.20875  -2.20833
  Beta  occ. eigenvalues --   -2.20392  -2.20272  -2.19046  -2.18799  -1.15610
  Beta  occ. eigenvalues --   -1.15088  -1.14985  -1.14779  -1.14585  -1.14579
  Beta  occ. eigenvalues --   -1.14449  -1.14433  -1.14415  -1.14018  -1.13993
  Beta  occ. eigenvalues --   -1.13924  -1.13907  -1.13880  -1.13841  -1.12795
  Beta  occ. eigenvalues --   -1.12652  -1.12603  -1.12571  -1.12409  -1.12371
  Beta  occ. eigenvalues --   -0.20959  -0.13561  -0.11895
  Beta virt. eigenvalues --   -0.08929  -0.05163  -0.03555  -0.03481  -0.03391
  Beta virt. eigenvalues --   -0.02508  -0.02333  -0.00958  -0.00250  -0.00124
  Beta virt. eigenvalues --    0.00343   0.00913   0.01055   0.01100   0.01200

 Mulliken charges and spin densities:
               1          2
     1  Na  -1.033651   0.211571
     2  Na   0.212422   0.059137
     3  Na  -0.336748   0.132037
     4  Na   0.739932   0.039798
     5  Na  -0.289453   0.329806
     6  Na   0.624966   0.031020
     7  Na   0.082531   0.196630
 Sum of Mulliken charges =  -0.00000   1.00000

 Dipole moment (field-independent basis, Debye):
    X=             -0.0143    Y=             -0.2352    Z=              0.4374  Tot=              0.4968
 Quadrupole moment (field-independent basis, Debye-Ang):
   XX=            -60.5809   YY=            -74.3867   ZZ=            -62.9943
   XY=              0.0178   XZ=              0.5027   YZ=              0.4419

 Normal termination of Gaussian 16 at Fri Dec  8 19:26:07 2023.
