 Gaussian 16, Revision B.01,
 Gaussian 16:  ES64L-G16RevB.01 20-Dec-2017

 -------------------------
 #P B3LYP/6-311+g(d) force
 -------------------------

 -----
 DPGEN
 -----
 Symbolic Z-matrix:
 Charge =  0 Multiplicity = 2

                         Standard orientation:
 ---------------------------------------------------------------------
 Center     Atomic      Atomic             Coordinates (Angstroms)
 Number     Number       Type             X           Y           Z
 ---------------------------------------------------------------------
      1         11           0       -0.041825    2.990730   -0.250003
      2         11           0        0.102119   -0.061733    1.787702
      3         11           0        2.853413    0.976030    0.233470
      4         11           0        0.274598   -0.052323   -1.672579
      5         11           0       -2.972741    0.818882    0.093508
      6         11           0        1.596608   -2.543622   -0.137894
      7         11           0       -1.812172   -2.127963   -0.054203
 ---------------------------------------------------------------------

 SCF Done:  E(UB3LYP) =  -1136.13986534     A.U. after   19 cycles

 The electronic state is 2-A.
 Alpha  occ. eigenvalues --  -38.43834 -38.43636 -38.43605 -38.43518 -38.43370
 Alpha  occ. eigenvalues --  -38.43131 -38.42995  -2.19695  -2.19485  -2.19445
 Alpha  occ. eigenvalues --   -2.19395  -2.19285  -2.19103  -2.19001  -1.13382
 Alpha  occ. eigenvalues --   -1.13369  -1.13319  -1.13192  -1.13148  -1.13141
 Alpha  occ. eigenvalues --   -1.13125  -1.13104  -1.13099  -1.13070  -1.13062
 Alpha  occ. eigenvalues --   -1.13029  -1.12967  -1.12951  -1.12897  -1.12790
 Alpha  occ. eigenvalues --   -1.12725  -1.12714  -1.12674  -1.12622  -1.12619
 Alpha  occ. eigenvalues --   -0.19050  -0.13030  -0.12747  -0.10608
 Alpha virt. eigenvalues --   -0.05429  -0.05078  -0.04905  -0.03063  -0.02877
 Alpha virt. eigenvalues --   -0.02295  -0.01363  -0.01253  -0.00344  -0.00210
 Alpha virt. eigenvalues --    0.00029   0.00363   0.00853   0.00906   0.00919

  Beta  occ. eigenvalues --  -38.43825 -38.43635 -38.43599 -38.43511 -38.43363
  Beta  occ. eigenvalues --  -38.43049 -38.42921  -2.19683  -2.19485  -2.19436
  Beta  occ. eigenvalues --   -2.19386  -2.19276  -2.18953  -2.18867  -1.13374
  Beta  occ. eigenvalues --   -1.13333  -1.13315  -1.13194  -1.13143  -1.13124
  Beta  occ. eigenvalues --   -1.13112  -1.13089  -1.13085  -1.13068  -1.13040
  Beta  occ. eigenvalues --   -1.13016  -1.12962  -1.12916  -1.12891  -1.12693
  Beta  occ. eigenvalues --   -1.12618  -1.12605  -1.12581  -1.12529  -1.12518
  Beta  occ. eigenvalues --   -0.18323  -0.12768  -0.12482
  Beta virt. eigenvalues --   -0.06692  -0.05415  -0.05059  -0.04889  -0.02249
  Beta virt. eigenvalues --   -0.02105  -0.01295  -0.01237  -0.01175  -0.00394
  Beta virt. eigenvalues --   -0.00268   0.00153   0.00388   0.00871   0.00907

 Mulliken charges and spin densities:
               1          2
     1  Na   0.032079  -0.086097
     2  Na  -0.352131   0.722937
     3  Na   0.160656  -0.085285
     4  Na  -0.335629   0.643643
     5  Na  -0.023294  -0.074688
     6  Na   0.312963  -0.075665
     7  Na   0.205355  -0.044844
 Sum of Mulliken charges =  -0.00000   1.00000

 Dipole moment (field-independent basis, Debye):
    X=              0.2021    Y=              0.1347    Z=              0.0606  Tot=              0.2503
 Quadrupole moment (field-independent basis, Debye-Ang):
   XX=            -57.7200   YY=            -59.6694   ZZ=            -75.2759
   XY=             -0.6729   XZ=              0.3590   YZ=              0.0241

 Normal termination of Gaussian 16 at Thu Dec  7 17:40:09 2023.
