 Gaussian 16, Revision B.01,
 Gaussian 16:  ES64L-G16RevB.01 20-Dec-2017

 -------------------------
 #P B3LYP/6-311+g(d) force
 -------------------------

 -----
 DPGEN
 -----
 Symbolic Z-matrix:
 Charge =  0 Multiplicity = 2

                         Standard orientation:
 ---------------------------------------------------------------------
 Center     Atomic      Atomic             Coordinates (Angstroms)
 Number     Number       Type             X           Y           Z
 ---------------------------------------------------------------------
      1         11           0        2.546452   -3.006218   -0.570258
      2         11           0       -1.184257   -3.341525   -0.165789
      3         11           0       -4.058227   -1.645607    0.643783
      4         11           0       -0.557879    3.660195    0.208433
      5         11           0        4.334705   -0.448357    0.647387
      6         11           0        2.549563    2.971520   -0.257855
      7         11           0       -3.630357    1.809993   -0.505702
 ---------------------------------------------------------------------

 SCF Done:  E(UB3LYP) =  -1136.10669416     A.U. after   25 cycles

 The electronic state is 2-A.
 Alpha  occ. eigenvalues --  -38.45165 -38.45014 -38.44903 -38.44503 -38.44281
 Alpha  occ. eigenvalues --  -38.44248 -38.44183  -2.20918  -2.20789  -2.20666
 Alpha  occ. eigenvalues --   -2.20285  -2.20078  -2.20029  -2.19972  -1.14602
 Alpha  occ. eigenvalues --   -1.14588  -1.14567  -1.14452  -1.14450  -1.14431
 Alpha  occ. eigenvalues --   -1.14343  -1.14332  -1.14295  -1.13975  -1.13960
 Alpha  occ. eigenvalues --   -1.13943  -1.13733  -1.13723  -1.13701  -1.13691
 Alpha  occ. eigenvalues --   -1.13682  -1.13651  -1.13626  -1.13614  -1.13593
 Alpha  occ. eigenvalues --   -0.15368  -0.13835  -0.13566  -0.10736
 Alpha virt. eigenvalues --   -0.08018  -0.04789  -0.04636  -0.03523  -0.03364
 Alpha virt. eigenvalues --   -0.02553  -0.02330  -0.01944  -0.01422  -0.00788
 Alpha virt. eigenvalues --   -0.00470  -0.00172   0.00087   0.00246   0.00394

  Beta  occ. eigenvalues --  -38.45174 -38.44978 -38.44899 -38.44496 -38.44232
  Beta  occ. eigenvalues --  -38.44191 -38.44106  -2.20939  -2.20723  -2.20662
  Beta  occ. eigenvalues --   -2.20279  -2.19990  -2.19924  -2.19827  -1.14621
  Beta  occ. eigenvalues --   -1.14606  -1.14547  -1.14410  -1.14406  -1.14380
  Beta  occ. eigenvalues --   -1.14343  -1.14331  -1.14265  -1.13966  -1.13961
  Beta  occ. eigenvalues --   -1.13903  -1.13674  -1.13666  -1.13634  -1.13619
  Beta  occ. eigenvalues --   -1.13611  -1.13583  -1.13526  -1.13517  -1.13499
  Beta  occ. eigenvalues --   -0.14828  -0.13127  -0.12826
  Beta virt. eigenvalues --   -0.08159  -0.07642  -0.04312  -0.04205  -0.03286
  Beta virt. eigenvalues --   -0.03045  -0.02278  -0.02134  -0.01815  -0.01324
  Beta virt. eigenvalues --   -0.00531  -0.00169   0.00021   0.00232   0.00257

 Mulliken charges and spin densities:
               1          2
     1  Na   0.065493   0.044749
     2  Na  -0.009818   0.268979
     3  Na   0.180547  -0.070875
     4  Na  -0.108647   0.011821
     5  Na   0.001195   0.157630
     6  Na  -0.041493   0.205625
     7  Na  -0.087277   0.382071
 Sum of Mulliken charges =  -0.00000   1.00000

 Dipole moment (field-independent basis, Debye):
    X=              0.4278    Y=             -0.3949    Z=              0.1734  Tot=              0.6075
 Quadrupole moment (field-independent basis, Debye-Ang):
   XX=            -58.5962   YY=            -69.6575   ZZ=            -71.7380
   XY=              1.9441   XZ=             -0.9330   YZ=              1.2181

 Normal termination of Gaussian 16 at Sun Dec  3 13:38:09 2023.
