 Gaussian 16, Revision B.01,
 Gaussian 16:  ES64L-G16RevB.01 20-Dec-2017

 -------------------------
 #P B3LYP/6-311+g(d) force
 -------------------------

 -----
 DPGEN
 -----
 Symbolic Z-matrix:
 Charge =  0 Multiplicity = 2

                         Standard orientation:
 ---------------------------------------------------------------------
 Center     Atomic      Atomic             Coordinates (Angstroms)
 Number     Number       Type             X           Y           Z
 ---------------------------------------------------------------------
      1         11           0        2.027149    2.186003   -0.209336
      2         11           0        3.322723   -0.920666    0.040429
      3         11           0       -3.142082   -0.274445   -0.241854
      4         11           0       -0.164526   -0.290282   -1.848861
      5         11           0       -0.216490   -0.244040    1.975163
      6         11           0       -1.434769    2.411033    0.225341
      7         11           0       -0.392007   -2.867603    0.059116
 ---------------------------------------------------------------------

 SCF Done:  E(UB3LYP) =  -1136.13525081     A.U. after   20 cycles

 The electronic state is 2-A.
 Alpha  occ. eigenvalues --  -38.44612 -38.44345 -38.43601 -38.43585 -38.43468
 Alpha  occ. eigenvalues --  -38.43257 -38.43019  -2.20383  -2.20204  -2.19512
 Alpha  occ. eigenvalues --   -2.19507  -2.19296  -2.19117  -2.18904  -1.14058
 Alpha  occ. eigenvalues --   -1.14047  -1.14020  -1.13888  -1.13868  -1.13835
 Alpha  occ. eigenvalues --   -1.13205  -1.13174  -1.13160  -1.13154  -1.13127
 Alpha  occ. eigenvalues --   -1.13123  -1.12970  -1.12961  -1.12940  -1.12794
 Alpha  occ. eigenvalues --   -1.12790  -1.12727  -1.12581  -1.12561  -1.12548
 Alpha  occ. eigenvalues --   -0.18568  -0.13087  -0.12261  -0.10859
 Alpha virt. eigenvalues --   -0.06175  -0.04932  -0.04484  -0.03230  -0.02924
 Alpha virt. eigenvalues --   -0.02692  -0.01854  -0.00961  -0.00455  -0.00230
 Alpha virt. eigenvalues --   -0.00039   0.00347   0.00788   0.00813   0.00860

  Beta  occ. eigenvalues --  -38.44616 -38.44336 -38.43510 -38.43510 -38.43465
  Beta  occ. eigenvalues --  -38.43250 -38.43012  -2.20390  -2.20191  -2.19373
  Beta  occ. eigenvalues --   -2.19344  -2.19294  -2.19107  -2.18894  -1.14058
  Beta  occ. eigenvalues --   -1.14048  -1.14026  -1.13880  -1.13834  -1.13827
  Beta  occ. eigenvalues --   -1.13113  -1.13069  -1.13061  -1.13035  -1.13025
  Beta  occ. eigenvalues --   -1.13006  -1.12962  -1.12950  -1.12939  -1.12788
  Beta  occ. eigenvalues --   -1.12750  -1.12723  -1.12576  -1.12547  -1.12524
  Beta  occ. eigenvalues --   -0.17815  -0.12897  -0.12005
  Beta virt. eigenvalues --   -0.06926  -0.06135  -0.04926  -0.04434  -0.02496
  Beta virt. eigenvalues --   -0.02114  -0.01788  -0.01603  -0.00900  -0.00513
  Beta virt. eigenvalues --   -0.00260   0.00100   0.00376   0.00814   0.00886

 Mulliken charges and spin densities:
               1          2
     1  Na  -0.034187  -0.063927
     2  Na  -0.014354  -0.121232
     3  Na   0.409403  -0.008629
     4  Na  -0.190743   0.668114
     5  Na  -0.265291   0.733395
     6  Na   0.029499  -0.007592
     7  Na   0.065673  -0.200130
 Sum of Mulliken charges =  -0.00000   1.00000

 Dipole moment (field-independent basis, Debye):
    X=              0.1326    Y=             -0.3450    Z=             -0.0043  Tot=              0.3697
 Quadrupole moment (field-independent basis, Debye-Ang):
   XX=            -54.4406   YY=            -65.6388   ZZ=            -73.8318
   XY=             -0.7066   XZ=              0.3980   YZ=             -0.1715

 Normal termination of Gaussian 16 at Tue Dec  5 17:08:42 2023.
