 Gaussian 16, Revision B.01,
 Gaussian 16:  ES64L-G16RevB.01 20-Dec-2017

 -------------------------
 #P B3LYP/6-311+g(d) force
 -------------------------

 -----
 DPGEN
 -----
 Symbolic Z-matrix:
 Charge =  0 Multiplicity = 2

                         Standard orientation:
 ---------------------------------------------------------------------
 Center     Atomic      Atomic             Coordinates (Angstroms)
 Number     Number       Type             X           Y           Z
 ---------------------------------------------------------------------
      1         11           0        1.335169    3.115570    0.034515
      2         11           0        0.920876   -3.036010   -0.566861
      3         11           0        3.135427   -0.187226    0.138741
      4         11           0        0.232501    0.023522   -1.192582
      5         11           0       -2.177376    2.067066   -0.131357
      6         11           0       -0.222053   -0.891160    1.855282
      7         11           0       -3.224545   -1.091762   -0.137739
 ---------------------------------------------------------------------

 SCF Done:  E(UB3LYP) =  -1136.13156083     A.U. after   20 cycles

 The electronic state is 2-A.
 Alpha  occ. eigenvalues --  -38.44519 -38.44348 -38.43847 -38.43846 -38.43726
 Alpha  occ. eigenvalues --  -38.43006 -38.42825  -2.20343  -2.20153  -2.19699
 Alpha  occ. eigenvalues --   -2.19686  -2.19518  -2.18914  -2.18860  -1.14045
 Alpha  occ. eigenvalues --   -1.14005  -1.13958  -1.13820  -1.13818  -1.13799
 Alpha  occ. eigenvalues --   -1.13391  -1.13379  -1.13352  -1.13349  -1.13323
 Alpha  occ. eigenvalues --   -1.13309  -1.13191  -1.13175  -1.13163  -1.12664
 Alpha  occ. eigenvalues --   -1.12542  -1.12527  -1.12513  -1.12498  -1.12477
 Alpha  occ. eigenvalues --   -0.18342  -0.13207  -0.12534  -0.09811
 Alpha virt. eigenvalues --   -0.06051  -0.05315  -0.05257  -0.02892  -0.02576
 Alpha virt. eigenvalues --   -0.01854  -0.01739  -0.01498  -0.00825  -0.00694
 Alpha virt. eigenvalues --    0.00021   0.00309   0.00719   0.00772   0.00801

  Beta  occ. eigenvalues --  -38.44513 -38.44346 -38.43840 -38.43824 -38.43728
  Beta  occ. eigenvalues --  -38.42919 -38.42782  -2.20335  -2.20153  -2.19678
  Beta  occ. eigenvalues --   -2.19660  -2.19523  -2.18786  -2.18753  -1.14038
  Beta  occ. eigenvalues --   -1.13980  -1.13954  -1.13823  -1.13803  -1.13795
  Beta  occ. eigenvalues --   -1.13373  -1.13361  -1.13329  -1.13308  -1.13302
  Beta  occ. eigenvalues --   -1.13300  -1.13188  -1.13178  -1.13164  -1.12573
  Beta  occ. eigenvalues --   -1.12452  -1.12435  -1.12432  -1.12416  -1.12392
  Beta  occ. eigenvalues --   -0.17687  -0.12963  -0.12338
  Beta virt. eigenvalues --   -0.06063  -0.05958  -0.05274  -0.05135  -0.02179
  Beta virt. eigenvalues --   -0.01959  -0.01750  -0.01429  -0.00877  -0.00836
  Beta virt. eigenvalues --   -0.00635   0.00212   0.00380   0.00737   0.00789

 Mulliken charges and spin densities:
               1          2
     1  Na  -0.061777  -0.044177
     2  Na   0.189805   0.010683
     3  Na   0.217478   0.055830
     4  Na  -0.224103   0.361813
     5  Na   0.013719  -0.011958
     6  Na  -0.408591   0.659242
     7  Na   0.273469  -0.031432
 Sum of Mulliken charges =  -0.00000   1.00000

 Dipole moment (field-independent basis, Debye):
    X=              0.0328    Y=             -0.1648    Z=              0.1174  Tot=              0.2050
 Quadrupole moment (field-independent basis, Debye-Ang):
   XX=            -53.5178   YY=            -57.9563   ZZ=            -78.9861
   XY=              0.9098   XZ=              1.2368   YZ=              1.8441

 Normal termination of Gaussian 16 at Thu Dec  7 06:11:45 2023.
