 Gaussian 16, Revision B.01,
 Gaussian 16:  ES64L-G16RevB.01 20-Dec-2017

 -------------------------
 #P B3LYP/6-311+g(d) force
 -------------------------

 -----
 DPGEN
 -----
 Symbolic Z-matrix:
 Charge =  0 Multiplicity = 2

                         Standard orientation:
 ---------------------------------------------------------------------
 Center     Atomic      Atomic             Coordinates (Angstroms)
 Number     Number       Type             X           Y           Z
 ---------------------------------------------------------------------
      1         11           0       -0.421176   -2.795954   -0.514757
      2         11           0       -2.565339    2.124874   -0.173234
      3         11           0       -3.073816   -0.862377    0.287002
      4         11           0       -0.278741    0.146190    0.240517
      5         11           0        2.283136   -0.827745    1.585943
      6         11           0        2.347470   -0.361535   -1.404574
      7         11           0        1.708465    2.576548   -0.020897
 ---------------------------------------------------------------------

 SCF Done:  E(UB3LYP) =  -1136.11638989     A.U. after   21 cycles

 The electronic state is 2-A.
 Alpha  occ. eigenvalues --  -38.44344 -38.44236 -38.44165 -38.43821 -38.43555
 Alpha  occ. eigenvalues --  -38.43358 -38.42657  -2.20261  -2.20100  -2.20011
 Alpha  occ. eigenvalues --   -2.19775  -2.19496  -2.19229  -2.18905  -1.14025
 Alpha  occ. eigenvalues --   -1.13931  -1.13895  -1.13787  -1.13738  -1.13719
 Alpha  occ. eigenvalues --   -1.13699  -1.13673  -1.13636  -1.13506  -1.13459
 Alpha  occ. eigenvalues --   -1.13361  -1.13194  -1.13121  -1.13069  -1.12976
 Alpha  occ. eigenvalues --   -1.12871  -1.12848  -1.12582  -1.12571  -1.12528
 Alpha  occ. eigenvalues --   -0.18886  -0.14237  -0.12366  -0.09895
 Alpha virt. eigenvalues --   -0.06153  -0.05690  -0.04606  -0.03204  -0.02261
 Alpha virt. eigenvalues --   -0.01953  -0.01459  -0.01188  -0.00781  -0.00447
 Alpha virt. eigenvalues --   -0.00114   0.00332   0.00674   0.00740   0.00841

  Beta  occ. eigenvalues --  -38.44344 -38.44239 -38.44153 -38.43774 -38.43475
  Beta  occ. eigenvalues --  -38.43347 -38.42633  -2.20263  -2.20106  -2.19994
  Beta  occ. eigenvalues --   -2.19690  -2.19348  -2.19209  -2.18870  -1.14026
  Beta  occ. eigenvalues --   -1.13936  -1.13887  -1.13792  -1.13737  -1.13711
  Beta  occ. eigenvalues --   -1.13703  -1.13644  -1.13615  -1.13444  -1.13384
  Beta  occ. eigenvalues --   -1.13299  -1.13092  -1.13018  -1.12972  -1.12959
  Beta  occ. eigenvalues --   -1.12838  -1.12837  -1.12566  -1.12514  -1.12473
  Beta  occ. eigenvalues --   -0.18274  -0.14007  -0.12167
  Beta virt. eigenvalues --   -0.06121  -0.05898  -0.05566  -0.04469  -0.02705
  Beta virt. eigenvalues --   -0.01801  -0.01639  -0.01217  -0.00729  -0.00561
  Beta virt. eigenvalues --   -0.00420   0.00221   0.00440   0.00724   0.00845

 Mulliken charges and spin densities:
               1          2
     1  Na   0.552316   0.073375
     2  Na  -0.039296  -0.314686
     3  Na   0.159866  -0.245756
     4  Na  -2.772655   0.798449
     5  Na   0.527175   0.208176
     6  Na   0.324038   0.203814
     7  Na   1.248555   0.276628
 Sum of Mulliken charges =  -0.00000   1.00000

 Dipole moment (field-independent basis, Debye):
    X=             -0.5856    Y=              0.3396    Z=             -0.2238  Tot=              0.7129
 Quadrupole moment (field-independent basis, Debye-Ang):
   XX=            -53.8889   YY=            -60.3676   ZZ=            -76.9069
   XY=              0.8122   XZ=             -0.7022   YZ=              0.2900

 Normal termination of Gaussian 16 at Thu Dec  7 07:26:02 2023.
