 Gaussian 16, Revision B.01,
 Gaussian 16:  ES64L-G16RevB.01 20-Dec-2017

 -------------------------
 #P B3LYP/6-311+g(d) force
 -------------------------

 -----
 DPGEN
 -----
 Symbolic Z-matrix:
 Charge =  0 Multiplicity = 2

                         Standard orientation:
 ---------------------------------------------------------------------
 Center     Atomic      Atomic             Coordinates (Angstroms)
 Number     Number       Type             X           Y           Z
 ---------------------------------------------------------------------
      1         11           0       -2.644802    2.380245   -0.901163
      2         11           0        0.676132   -3.307702   -0.695252
      3         11           0       -1.891505   -2.568790    1.318534
      4         11           0        3.768234    1.664122    1.164818
      5         11           0        0.446827    3.718760   -0.010637
      6         11           0        4.058632   -1.485609   -0.905488
      7         11           0       -4.413519   -0.401027    0.029187
 ---------------------------------------------------------------------

 SCF Done:  E(UB3LYP) =  -1136.10310902     A.U. after   21 cycles

 The electronic state is 2-A.
 Alpha  occ. eigenvalues --  -38.45498 -38.45157 -38.45007 -38.44827 -38.44215
 Alpha  occ. eigenvalues --  -38.43887 -38.43824  -2.21219  -2.20894  -2.20782
 Alpha  occ. eigenvalues --   -2.20598  -2.19996  -2.19663  -2.19637  -1.14903
 Alpha  occ. eigenvalues --   -1.14880  -1.14849  -1.14574  -1.14551  -1.14523
 Alpha  occ. eigenvalues --   -1.14458  -1.14453  -1.14421  -1.14283  -1.14270
 Alpha  occ. eigenvalues --   -1.14240  -1.13660  -1.13656  -1.13624  -1.13324
 Alpha  occ. eigenvalues --   -1.13317  -1.13287  -1.13286  -1.13280  -1.13269
 Alpha  occ. eigenvalues --   -0.15355  -0.13616  -0.13243  -0.10633
 Alpha virt. eigenvalues --   -0.07934  -0.05048  -0.04655  -0.03488  -0.03461
 Alpha virt. eigenvalues --   -0.02271  -0.02018  -0.01582  -0.01423  -0.01217
 Alpha virt. eigenvalues --   -0.01001  -0.00259   0.00119   0.00210   0.00637

  Beta  occ. eigenvalues --  -38.45485 -38.45139 -38.44992 -38.44810 -38.44178
  Beta  occ. eigenvalues --  -38.43831 -38.43759  -2.21197  -2.20861  -2.20760
  Beta  occ. eigenvalues --   -2.20575  -2.19928  -2.19560  -2.19517  -1.14890
  Beta  occ. eigenvalues --   -1.14867  -1.14821  -1.14553  -1.14532  -1.14491
  Beta  occ. eigenvalues --   -1.14447  -1.14438  -1.14377  -1.14274  -1.14261
  Beta  occ. eigenvalues --   -1.14174  -1.13615  -1.13610  -1.13573  -1.13255
  Beta  occ. eigenvalues --   -1.13248  -1.13212  -1.13205  -1.13198  -1.13190
  Beta  occ. eigenvalues --   -0.14785  -0.12984  -0.12424
  Beta virt. eigenvalues --   -0.08171  -0.07551  -0.04590  -0.04167  -0.03307
  Beta virt. eigenvalues --   -0.03222  -0.02063  -0.01759  -0.01268  -0.01182
  Beta virt. eigenvalues --   -0.01054  -0.00812  -0.00113   0.00183   0.00291

 Mulliken charges and spin densities:
               1          2
     1  Na  -0.008734   0.113736
     2  Na  -0.182512   0.120607
     3  Na  -0.134683   0.083872
     4  Na  -0.039277   0.068419
     5  Na   0.014682   0.212859
     6  Na   0.130433   0.130107
     7  Na   0.220092   0.270399
 Sum of Mulliken charges =  -0.00000   1.00000

 Dipole moment (field-independent basis, Debye):
    X=              0.6529    Y=             -0.4640    Z=              0.2077  Tot=              0.8275
 Quadrupole moment (field-independent basis, Debye-Ang):
   XX=            -64.5483   YY=            -70.6545   ZZ=            -66.3050
   XY=              1.2716   XZ=             -0.2124   YZ=              1.9719

 Normal termination of Gaussian 16 at Mon Dec  4 04:58:19 2023.
