 Gaussian 16, Revision B.01,
 Gaussian 16:  ES64L-G16RevB.01 20-Dec-2017

 -------------------------
 #P B3LYP/6-311+g(d) force
 -------------------------

 -----
 DPGEN
 -----
 Symbolic Z-matrix:
 Charge =  0 Multiplicity = 2

                         Standard orientation:
 ---------------------------------------------------------------------
 Center     Atomic      Atomic             Coordinates (Angstroms)
 Number     Number       Type             X           Y           Z
 ---------------------------------------------------------------------
      1         11           0        2.887559   -0.361208    0.582048
      2         11           0        2.898988    2.939957   -0.252881
      3         11           0       -3.745258    0.552855    0.539118
      4         11           0        5.105116   -2.668807   -0.354301
      5         11           0       -6.716995   -1.072470   -0.452742
      6         11           0        0.147608    1.881353   -0.270643
      7         11           0       -0.577020   -1.271680    0.209402
 ---------------------------------------------------------------------

 SCF Done:  E(UB3LYP) =  -1136.11125259     A.U. after   24 cycles

 The electronic state is 2-A.
 Alpha  occ. eigenvalues --  -38.45591 -38.45352 -38.44570 -38.44318 -38.43892
 Alpha  occ. eigenvalues --  -38.43504 -38.43118  -2.21421  -2.21133  -2.20333
 Alpha  occ. eigenvalues --   -2.20197  -2.19799  -2.19257  -2.18984  -1.15090
 Alpha  occ. eigenvalues --   -1.15078  -1.15010  -1.14772  -1.14771  -1.14742
 Alpha  occ. eigenvalues --   -1.14030  -1.14017  -1.13967  -1.13919  -1.13829
 Alpha  occ. eigenvalues --   -1.13820  -1.13480  -1.13461  -1.13413  -1.12929
 Alpha  occ. eigenvalues --   -1.12927  -1.12911  -1.12694  -1.12671  -1.12574
 Alpha  occ. eigenvalues --   -0.17167  -0.14161  -0.11974  -0.11520
 Alpha virt. eigenvalues --   -0.06755  -0.05193  -0.04675  -0.03856  -0.03029
 Alpha virt. eigenvalues --   -0.02645  -0.02044  -0.01656  -0.01089  -0.00930
 Alpha virt. eigenvalues --   -0.00489  -0.00256  -0.00106   0.00431   0.00520

  Beta  occ. eigenvalues --  -38.45514 -38.45251 -38.44584 -38.44258 -38.43882
  Beta  occ. eigenvalues --  -38.43523 -38.43107  -2.21281  -2.20945  -2.20365
  Beta  occ. eigenvalues --   -2.20087  -2.19787  -2.19291  -2.18967  -1.14996
  Beta  occ. eigenvalues --   -1.14983  -1.14911  -1.14644  -1.14643  -1.14618
  Beta  occ. eigenvalues --   -1.14057  -1.14045  -1.13944  -1.13851  -1.13750
  Beta  occ. eigenvalues --   -1.13745  -1.13468  -1.13458  -1.13365  -1.12952
  Beta  occ. eigenvalues --   -1.12950  -1.12933  -1.12661  -1.12657  -1.12575
  Beta  occ. eigenvalues --   -0.16481  -0.13341  -0.11388
  Beta virt. eigenvalues --   -0.08554  -0.06383  -0.04800  -0.04324  -0.03563
  Beta virt. eigenvalues --   -0.02605  -0.02414  -0.01584  -0.01505  -0.00994
  Beta virt. eigenvalues --   -0.00431  -0.00297  -0.00187   0.00048   0.00524

 Mulliken charges and spin densities:
               1          2
     1  Na  -0.394711   0.071287
     2  Na   1.443522   0.099153
     3  Na   0.006186   0.083480
     4  Na   0.160673  -0.107706
     5  Na   0.239180   0.392379
     6  Na  -1.418226   0.198608
     7  Na  -0.036624   0.262800
 Sum of Mulliken charges =  -0.00000   1.00000

 Dipole moment (field-independent basis, Debye):
    X=             -1.6795    Y=              0.3564    Z=             -0.3925  Tot=              1.7612
 Quadrupole moment (field-independent basis, Debye-Ang):
   XX=            -58.6033   YY=            -65.8923   ZZ=            -72.6727
   XY=              6.8084   XZ=             -0.4291   YZ=              2.1588

 Normal termination of Gaussian 16 at Wed Nov 29 03:40:27 2023.
