 Gaussian 16, Revision B.01,
 Gaussian 16:  ES64L-G16RevB.01 20-Dec-2017

 -------------------------
 #P B3LYP/6-311+g(d) force
 -------------------------

 -----
 DPGEN
 -----
 Symbolic Z-matrix:
 Charge =  0 Multiplicity = 2

                         Standard orientation:
 ---------------------------------------------------------------------
 Center     Atomic      Atomic             Coordinates (Angstroms)
 Number     Number       Type             X           Y           Z
 ---------------------------------------------------------------------
      1         11           0       -0.417632   -1.839002   -0.139246
      2         11           0       -3.079795    1.092033    0.496230
      3         11           0        1.414594    1.226758   -0.891995
      4         11           0        2.869113   -0.645955    2.121023
      5         11           0        3.118026   -1.435328   -1.281347
      6         11           0       -0.106574    3.595241   -0.139596
      7         11           0       -3.797733   -1.993748   -0.165068
 ---------------------------------------------------------------------

 SCF Done:  E(UB3LYP) =  -1136.11944425     A.U. after   26 cycles

 The electronic state is 2-A.
 Alpha  occ. eigenvalues --  -38.45251 -38.44957 -38.44516 -38.44426 -38.43564
 Alpha  occ. eigenvalues --  -38.43485 -38.43110  -2.21029  -2.20756  -2.20364
 Alpha  occ. eigenvalues --   -2.20250  -2.19415  -2.19401  -2.18943  -1.14722
 Alpha  occ. eigenvalues --   -1.14699  -1.14648  -1.14465  -1.14454  -1.14347
 Alpha  occ. eigenvalues --   -1.14061  -1.14011  -1.13989  -1.13916  -1.13904
 Alpha  occ. eigenvalues --   -1.13888  -1.13150  -1.13087  -1.13064  -1.13048
 Alpha  occ. eigenvalues --   -1.13036  -1.13000  -1.12612  -1.12581  -1.12557
 Alpha  occ. eigenvalues --   -0.17321  -0.14297  -0.12296  -0.10171
 Alpha virt. eigenvalues --   -0.06688  -0.06008  -0.04815  -0.03444  -0.02648
 Alpha virt. eigenvalues --   -0.02247  -0.02082  -0.01463  -0.01234  -0.00618
 Alpha virt. eigenvalues --   -0.00406   0.00132   0.00305   0.00546   0.00612

  Beta  occ. eigenvalues --  -38.45244 -38.44944 -38.44494 -38.44428 -38.43463
  Beta  occ. eigenvalues --  -38.43447 -38.43112  -2.21016  -2.20734  -2.20329
  Beta  occ. eigenvalues --   -2.20253  -2.19377  -2.19183  -2.18947  -1.14713
  Beta  occ. eigenvalues --   -1.14690  -1.14640  -1.14451  -1.14420  -1.14334
  Beta  occ. eigenvalues --   -1.14037  -1.13974  -1.13946  -1.13915  -1.13905
  Beta  occ. eigenvalues --   -1.13890  -1.13121  -1.13063  -1.13020  -1.12898
  Beta  occ. eigenvalues --   -1.12887  -1.12856  -1.12610  -1.12581  -1.12560
  Beta  occ. eigenvalues --   -0.16836  -0.13998  -0.12198
  Beta virt. eigenvalues --   -0.06614  -0.06183  -0.05736  -0.04685  -0.03118
  Beta virt. eigenvalues --   -0.02489  -0.01902  -0.01394  -0.01273  -0.01135
  Beta virt. eigenvalues --   -0.00461   0.00040   0.00271   0.00608   0.00679

 Mulliken charges and spin densities:
               1          2
     1  Na  -1.072720   0.032353
     2  Na  -0.379286   0.040097
     3  Na  -1.560074   0.147364
     4  Na  -0.091575   0.570891
     5  Na   1.940237   0.266579
     6  Na   0.621728  -0.007867
     7  Na   0.541689  -0.049417
 Sum of Mulliken charges =  -0.00000   1.00000

 Dipole moment (field-independent basis, Debye):
    X=             -1.5058    Y=             -0.9991    Z=             -0.6137  Tot=              1.9085
 Quadrupole moment (field-independent basis, Debye-Ang):
   XX=            -54.6205   YY=            -65.7808   ZZ=            -76.5021
   XY=              0.1103   XZ=             -6.2736   YZ=              3.3510

 Normal termination of Gaussian 16 at Wed Nov 29 01:35:04 2023.
