 Gaussian 16, Revision B.01,
 Gaussian 16:  ES64L-G16RevB.01 20-Dec-2017

 -------------------------
 #P B3LYP/6-311+g(d) force
 -------------------------

 -----
 DPGEN
 -----
 Symbolic Z-matrix:
 Charge =  0 Multiplicity = 2

                         Standard orientation:
 ---------------------------------------------------------------------
 Center     Atomic      Atomic             Coordinates (Angstroms)
 Number     Number       Type             X           Y           Z
 ---------------------------------------------------------------------
      1         11           0        1.114022   -2.592354    0.212983
      2         11           0       -0.302038    0.359553    1.898467
      3         11           0        0.991024    2.879558   -0.302221
      4         11           0       -2.109362   -1.910978   -0.395406
      5         11           0       -2.799373    1.268508    0.183585
      6         11           0        2.906471   -0.124200    0.234119
      7         11           0        0.199256    0.119913   -1.831527
 ---------------------------------------------------------------------

 SCF Done:  E(UB3LYP) =  -1136.13777510     A.U. after   19 cycles

 The electronic state is 2-A.
 Alpha  occ. eigenvalues --  -38.43910 -38.43766 -38.43566 -38.43536 -38.43435
 Alpha  occ. eigenvalues --  -38.43402 -38.43125  -2.19766  -2.19657  -2.19496
 Alpha  occ. eigenvalues --   -2.19376  -2.19362  -2.19319  -2.19028  -1.13483
 Alpha  occ. eigenvalues --   -1.13426  -1.13396  -1.13371  -1.13318  -1.13294
 Alpha  occ. eigenvalues --   -1.13163  -1.13124  -1.13119  -1.13102  -1.13051
 Alpha  occ. eigenvalues --   -1.13029  -1.13006  -1.12999  -1.12982  -1.12975
 Alpha  occ. eigenvalues --   -1.12954  -1.12945  -1.12698  -1.12676  -1.12670
 Alpha  occ. eigenvalues --   -0.18957  -0.13140  -0.12550  -0.11019
 Alpha virt. eigenvalues --   -0.05510  -0.04975  -0.04625  -0.03340  -0.03041
 Alpha virt. eigenvalues --   -0.02659  -0.01336  -0.01106  -0.00240  -0.00062
 Alpha virt. eigenvalues --    0.00002   0.00373   0.00861   0.00911   0.00929

  Beta  occ. eigenvalues --  -38.43904 -38.43758 -38.43528 -38.43487 -38.43425
  Beta  occ. eigenvalues --  -38.43323 -38.43120  -2.19759  -2.19647  -2.19365
  Beta  occ. eigenvalues --   -2.19351  -2.19303  -2.19218  -2.19022  -1.13465
  Beta  occ. eigenvalues --   -1.13409  -1.13390  -1.13367  -1.13293  -1.13280
  Beta  occ. eigenvalues --   -1.13080  -1.13061  -1.13031  -1.13016  -1.13005
  Beta  occ. eigenvalues --   -1.13001  -1.12988  -1.12965  -1.12936  -1.12926
  Beta  occ. eigenvalues --   -1.12886  -1.12858  -1.12696  -1.12674  -1.12638
  Beta  occ. eigenvalues --   -0.18221  -0.12878  -0.12281
  Beta virt. eigenvalues --   -0.07115  -0.05481  -0.04914  -0.04606  -0.02530
  Beta virt. eigenvalues --   -0.02263  -0.01626  -0.01241  -0.01022  -0.00277
  Beta virt. eigenvalues --   -0.00095   0.00116   0.00396   0.00875   0.00925

 Mulliken charges and spin densities:
               1          2
     1  Na   0.008542   0.004466
     2  Na  -0.381414   0.609069
     3  Na   0.131574  -0.117390
     4  Na   0.159527   0.033982
     5  Na   0.212329  -0.087691
     6  Na   0.169776  -0.018189
     7  Na  -0.300334   0.575754
 Sum of Mulliken charges =  -0.00000   1.00000

 Dipole moment (field-independent basis, Debye):
    X=             -0.1298    Y=              0.3390    Z=              0.0435  Tot=              0.3655
 Quadrupole moment (field-independent basis, Debye-Ang):
   XX=            -59.1723   YY=            -62.5876   ZZ=            -72.8974
   XY=              0.0397   XZ=              1.1894   YZ=             -0.3267

 Normal termination of Gaussian 16 at Wed Nov 29 17:19:05 2023.
