 Gaussian 16, Revision B.01,
 Gaussian 16:  ES64L-G16RevB.01 20-Dec-2017

 -------------------------
 #P B3LYP/6-311+g(d) force
 -------------------------

 -----
 DPGEN
 -----
 Symbolic Z-matrix:
 Charge =  0 Multiplicity = 2

                         Standard orientation:
 ---------------------------------------------------------------------
 Center     Atomic      Atomic             Coordinates (Angstroms)
 Number     Number       Type             X           Y           Z
 ---------------------------------------------------------------------
      1         11           0       -0.696861   -0.060029   -1.841094
      2         11           0       -1.004168   -1.025578    1.819479
      3         11           0       -2.249320    2.427563   -0.398766
      4         11           0        2.087313   -1.336751   -0.636694
      5         11           0        0.806802    1.072947    1.515575
      6         11           0       -3.706168   -1.351803   -0.228715
      7         11           0        4.762402    0.273651   -0.229785
 ---------------------------------------------------------------------

 SCF Done:  E(UB3LYP) =  -1136.10428512     A.U. after   28 cycles

 The electronic state is 2-A.
 Alpha  occ. eigenvalues --  -38.45624 -38.45004 -38.44594 -38.44536 -38.44375
 Alpha  occ. eigenvalues --  -38.42887 -38.42391  -2.21387  -2.20832  -2.20444
 Alpha  occ. eigenvalues --   -2.20348  -2.20242  -2.18833  -2.18326  -1.15063
 Alpha  occ. eigenvalues --   -1.15041  -1.15040  -1.14512  -1.14456  -1.14437
 Alpha  occ. eigenvalues --   -1.14162  -1.14109  -1.14073  -1.14017  -1.14003
 Alpha  occ. eigenvalues --   -1.13952  -1.13935  -1.13897  -1.13845  -1.12648
 Alpha  occ. eigenvalues --   -1.12475  -1.12450  -1.11981  -1.11956  -1.11933
 Alpha  occ. eigenvalues --   -0.18245  -0.13935  -0.11703  -0.10652
 Alpha virt. eigenvalues --   -0.08061  -0.04795  -0.04031  -0.03596  -0.03067
 Alpha virt. eigenvalues --   -0.02538  -0.02417  -0.01599  -0.00877  -0.00696
 Alpha virt. eigenvalues --   -0.00058   0.00097   0.00312   0.00588   0.00672

  Beta  occ. eigenvalues --  -38.45635 -38.44912 -38.44587 -38.44478 -38.44367
  Beta  occ. eigenvalues --  -38.42850 -38.42383  -2.21408  -2.20664  -2.20436
  Beta  occ. eigenvalues --   -2.20241  -2.20227  -2.18766  -2.18314  -1.15077
  Beta  occ. eigenvalues --   -1.15056  -1.15054  -1.14392  -1.14346  -1.14317
  Beta  occ. eigenvalues --   -1.14139  -1.14089  -1.14062  -1.13940  -1.13929
  Beta  occ. eigenvalues --   -1.13921  -1.13885  -1.13881  -1.13834  -1.12599
  Beta  occ. eigenvalues --   -1.12426  -1.12406  -1.11973  -1.11939  -1.11911
  Beta  occ. eigenvalues --   -0.17600  -0.13648  -0.10571
  Beta virt. eigenvalues --   -0.07894  -0.07590  -0.04401  -0.03849  -0.03247
  Beta virt. eigenvalues --   -0.02792  -0.02013  -0.01849  -0.01121  -0.00771
  Beta virt. eigenvalues --   -0.00573  -0.00015   0.00274   0.00331   0.00687

 Mulliken charges and spin densities:
               1          2
     1  Na   0.085510   0.356665
     2  Na   0.179162   0.256282
     3  Na   0.027883   0.230401
     4  Na   0.109600  -0.071191
     5  Na  -0.412307   0.218740
     6  Na  -0.105581   0.086827
     7  Na   0.115734  -0.077724
 Sum of Mulliken charges =  -0.00000   1.00000

 Dipole moment (field-independent basis, Debye):
    X=              0.6145    Y=              0.8127    Z=              0.3366  Tot=              1.0730
 Quadrupole moment (field-independent basis, Debye-Ang):
   XX=            -50.3003   YY=            -65.0371   ZZ=            -80.6993
   XY=              2.5578   XZ=             -1.0632   YZ=              0.3971

 Normal termination of Gaussian 16 at Tue Dec  5 14:35:28 2023.
