 Gaussian 16, Revision B.01,
 Gaussian 16:  ES64L-G16RevB.01 20-Dec-2017

 -------------------------
 #P B3LYP/6-311+g(d) force
 -------------------------

 -----
 DPGEN
 -----
 Symbolic Z-matrix:
 Charge =  0 Multiplicity = 2

                         Standard orientation:
 ---------------------------------------------------------------------
 Center     Atomic      Atomic             Coordinates (Angstroms)
 Number     Number       Type             X           Y           Z
 ---------------------------------------------------------------------
      1         11           0        3.067515    1.711914    0.624383
      2         11           0        1.816798   -2.422632    0.625044
      3         11           0       -1.128172    2.276043   -0.823411
      4         11           0        2.049998   -0.249639   -1.531498
      5         11           0       -1.038283   -1.240040   -1.214443
      6         11           0       -0.797403    0.202261    2.240731
      7         11           0       -3.970452   -0.277906    0.079194
 ---------------------------------------------------------------------

 SCF Done:  E(UB3LYP) =  -1136.11927345     A.U. after   23 cycles

 The electronic state is 2-A.
 Alpha  occ. eigenvalues --  -38.45577 -38.44647 -38.44240 -38.44133 -38.43565
 Alpha  occ. eigenvalues --  -38.43307 -38.43117  -2.21352  -2.20455  -2.20026
 Alpha  occ. eigenvalues --   -2.19916  -2.19511  -2.19148  -2.19030  -1.15032
 Alpha  occ. eigenvalues --   -1.15013  -1.14976  -1.14119  -1.14089  -1.14068
 Alpha  occ. eigenvalues --   -1.13723  -1.13700  -1.13646  -1.13625  -1.13568
 Alpha  occ. eigenvalues --   -1.13544  -1.13207  -1.13202  -1.13120  -1.12810
 Alpha  occ. eigenvalues --   -1.12801  -1.12778  -1.12738  -1.12698  -1.12622
 Alpha  occ. eigenvalues --   -0.18051  -0.13683  -0.11167  -0.11025
 Alpha virt. eigenvalues --   -0.07027  -0.05087  -0.04610  -0.03159  -0.02831
 Alpha virt. eigenvalues --   -0.02683  -0.02447  -0.00989  -0.00761  -0.00247
 Alpha virt. eigenvalues --    0.00066   0.00141   0.00310   0.00592   0.00718

  Beta  occ. eigenvalues --  -38.45578 -38.44553 -38.44214 -38.44141 -38.43540
  Beta  occ. eigenvalues --  -38.43301 -38.43082  -2.21355  -2.20282  -2.19982
  Beta  occ. eigenvalues --   -2.19932  -2.19465  -2.19137  -2.18970  -1.15032
  Beta  occ. eigenvalues --   -1.15005  -1.14980  -1.14004  -1.13965  -1.13945
  Beta  occ. eigenvalues --   -1.13691  -1.13655  -1.13653  -1.13597  -1.13572
  Beta  occ. eigenvalues --   -1.13555  -1.13178  -1.13159  -1.13093  -1.12802
  Beta  occ. eigenvalues --   -1.12788  -1.12763  -1.12696  -1.12637  -1.12582
  Beta  occ. eigenvalues --   -0.17297  -0.13595  -0.10888
  Beta virt. eigenvalues --   -0.07253  -0.06842  -0.04963  -0.04008  -0.02939
  Beta virt. eigenvalues --   -0.02429  -0.02105  -0.01819  -0.00880  -0.00477
  Beta virt. eigenvalues --   -0.00150   0.00084   0.00202   0.00407   0.00705

 Mulliken charges and spin densities:
               1          2
     1  Na  -0.134410  -0.088929
     2  Na  -0.025195   0.088689
     3  Na  -0.219998   0.047747
     4  Na   0.470354   0.080217
     5  Na  -0.289981   0.238706
     6  Na  -0.489214   0.637976
     7  Na   0.688444  -0.004405
 Sum of Mulliken charges =  -0.00000   1.00000

 Dipole moment (field-independent basis, Debye):
    X=             -1.4784    Y=              0.1141    Z=              0.4782  Tot=              1.5580
 Quadrupole moment (field-independent basis, Debye-Ang):
   XX=            -48.9112   YY=            -74.9962   ZZ=            -69.8856
   XY=             -0.7495   XZ=              1.3607   YZ=             -1.8722

 Normal termination of Gaussian 16 at Thu Dec  7 23:46:37 2023.
