 Gaussian 16, Revision B.01,
 Gaussian 16:  ES64L-G16RevB.01 20-Dec-2017

 -------------------------
 #P B3LYP/6-311+g(d) force
 -------------------------

 -----
 DPGEN
 -----
 Symbolic Z-matrix:
 Charge =  0 Multiplicity = 2

                         Standard orientation:
 ---------------------------------------------------------------------
 Center     Atomic      Atomic             Coordinates (Angstroms)
 Number     Number       Type             X           Y           Z
 ---------------------------------------------------------------------
      1         11           0        0.662201    1.453166    0.116230
      2         11           0        2.486245   -2.239952   -0.763367
      3         11           0        3.175481    2.635565    0.017590
      4         11           0        0.225332   -1.752932    2.069393
      5         11           0       -1.068172   -2.080078   -1.725748
      6         11           0       -2.649260    0.162683    1.451678
      7         11           0       -2.831826    1.821547   -1.165775
 ---------------------------------------------------------------------

 SCF Done:  E(UB3LYP) =  -1136.11862341     A.U. after   22 cycles

 The electronic state is 2-A.
 Alpha  occ. eigenvalues --  -38.45012 -38.44864 -38.44375 -38.44263 -38.44095
 Alpha  occ. eigenvalues --  -38.43261 -38.42804  -2.20781  -2.20623  -2.20197
 Alpha  occ. eigenvalues --   -2.20094  -2.19958  -2.19096  -2.18712  -1.14462
 Alpha  occ. eigenvalues --   -1.14429  -1.14388  -1.14302  -1.14274  -1.14251
 Alpha  occ. eigenvalues --   -1.13900  -1.13844  -1.13832  -1.13768  -1.13749
 Alpha  occ. eigenvalues --   -1.13698  -1.13620  -1.13605  -1.13580  -1.12953
 Alpha  occ. eigenvalues --   -1.12724  -1.12712  -1.12382  -1.12343  -1.12301
 Alpha  occ. eigenvalues --   -0.17502  -0.12976  -0.11970  -0.11413
 Alpha virt. eigenvalues --   -0.06394  -0.05270  -0.04674  -0.03541  -0.02833
 Alpha virt. eigenvalues --   -0.02697  -0.01758  -0.01305  -0.00746  -0.00389
 Alpha virt. eigenvalues --   -0.00043   0.00015   0.00288   0.00535   0.00671

  Beta  occ. eigenvalues --  -38.44957 -38.44856 -38.44352 -38.44190 -38.44065
  Beta  occ. eigenvalues --  -38.43270 -38.42798  -2.20680  -2.20609  -2.20154
  Beta  occ. eigenvalues --   -2.19961  -2.19905  -2.19112  -2.18702  -1.14388
  Beta  occ. eigenvalues --   -1.14360  -1.14317  -1.14285  -1.14266  -1.14240
  Beta  occ. eigenvalues --   -1.13873  -1.13813  -1.13797  -1.13676  -1.13658
  Beta  occ. eigenvalues --   -1.13600  -1.13583  -1.13571  -1.13515  -1.12963
  Beta  occ. eigenvalues --   -1.12734  -1.12723  -1.12355  -1.12341  -1.12302
  Beta  occ. eigenvalues --   -0.16778  -0.12858  -0.11836
  Beta virt. eigenvalues --   -0.07482  -0.06137  -0.05110  -0.04127  -0.03300
  Beta virt. eigenvalues --   -0.02245  -0.02056  -0.01667  -0.01176  -0.00398
  Beta virt. eigenvalues --   -0.00273   0.00061   0.00117   0.00353   0.00631

 Mulliken charges and spin densities:
               1          2
     1  Na  -1.275419   0.144317
     2  Na   0.244852   0.095590
     3  Na  -1.231760   0.064818
     4  Na   0.080635   0.278654
     5  Na  -0.039002   0.285516
     6  Na   1.007692  -0.007680
     7  Na   1.213003   0.138786
 Sum of Mulliken charges =  -0.00000   1.00000

 Dipole moment (field-independent basis, Debye):
    X=             -0.4399    Y=             -1.1348    Z=             -0.4704  Tot=              1.3048
 Quadrupole moment (field-independent basis, Debye-Ang):
   XX=            -57.4865   YY=            -69.6300   ZZ=            -68.1477
   XY=             -5.0318   XZ=              0.7364   YZ=             -1.4381

 Normal termination of Gaussian 16 at Fri Dec  8 17:16:09 2023.
