 Gaussian 16, Revision B.01,
 Gaussian 16:  ES64L-G16RevB.01 20-Dec-2017

 -------------------------
 #P B3LYP/6-311+g(d) force
 -------------------------

 -----
 DPGEN
 -----
 Symbolic Z-matrix:
 Charge =  0 Multiplicity = 2

                         Standard orientation:
 ---------------------------------------------------------------------
 Center     Atomic      Atomic             Coordinates (Angstroms)
 Number     Number       Type             X           Y           Z
 ---------------------------------------------------------------------
      1         11           0        2.006373   -1.883822    1.286028
      2         11           0        1.504389    1.265287   -0.669274
      3         11           0       -2.049647    0.617274    0.444721
      4         11           0       -0.529467   -2.170062   -0.567380
      5         11           0       -4.116567   -1.899818   -0.332086
      6         11           0       -1.360156    4.120413    0.269761
      7         11           0        4.545075   -0.049272   -0.431771
 ---------------------------------------------------------------------

 SCF Done:  E(UB3LYP) =  -1136.12440506     A.U. after   21 cycles

 The electronic state is 2-A.
 Alpha  occ. eigenvalues --  -38.44602 -38.44534 -38.43919 -38.43849 -38.43788
 Alpha  occ. eigenvalues --  -38.43641 -38.43553  -2.20411  -2.20386  -2.19758
 Alpha  occ. eigenvalues --   -2.19733  -2.19540  -2.19471  -2.19416  -1.14125
 Alpha  occ. eigenvalues --   -1.14110  -1.14079  -1.14049  -1.14010  -1.13988
 Alpha  occ. eigenvalues --   -1.13428  -1.13412  -1.13411  -1.13399  -1.13367
 Alpha  occ. eigenvalues --   -1.13344  -1.13216  -1.13216  -1.13167  -1.13150
 Alpha  occ. eigenvalues --   -1.13130  -1.13118  -1.13107  -1.13081  -1.12978
 Alpha  occ. eigenvalues --   -0.17297  -0.13988  -0.12254  -0.10623
 Alpha virt. eigenvalues --   -0.06576  -0.05303  -0.04509  -0.03625  -0.02796
 Alpha virt. eigenvalues --   -0.02361  -0.01784  -0.01301  -0.00987  -0.00686
 Alpha virt. eigenvalues --   -0.00552  -0.00250   0.00361   0.00509   0.00612

  Beta  occ. eigenvalues --  -38.44590 -38.44493 -38.43843 -38.43822 -38.43796
  Beta  occ. eigenvalues --  -38.43574 -38.43548  -2.20392  -2.20316  -2.19690
  Beta  occ. eigenvalues --   -2.19616  -2.19554  -2.19410  -2.19346  -1.14115
  Beta  occ. eigenvalues --   -1.14078  -1.14013  -1.14002  -1.13982  -1.13940
  Beta  occ. eigenvalues --   -1.13403  -1.13378  -1.13309  -1.13301  -1.13286
  Beta  occ. eigenvalues --   -1.13280  -1.13226  -1.13226  -1.13174  -1.13127
  Beta  occ. eigenvalues --   -1.13107  -1.13057  -1.13030  -1.13012  -1.12953
  Beta  occ. eigenvalues --   -0.16758  -0.13309  -0.11982
  Beta virt. eigenvalues --   -0.07083  -0.06400  -0.05176  -0.04060  -0.03180
  Beta virt. eigenvalues --   -0.02556  -0.02131  -0.01631  -0.00963  -0.00612
  Beta virt. eigenvalues --   -0.00537  -0.00149   0.00043   0.00422   0.00566

 Mulliken charges and spin densities:
               1          2
     1  Na   0.380140   0.147032
     2  Na  -0.655462   0.180490
     3  Na  -0.889501   0.133014
     4  Na  -0.309438  -0.011543
     5  Na   0.759340   0.288044
     6  Na   0.418472  -0.030485
     7  Na   0.296449   0.293448
 Sum of Mulliken charges =  -0.00000   1.00000

 Dipole moment (field-independent basis, Debye):
    X=              0.4876    Y=             -0.6346    Z=              0.3217  Tot=              0.8625
 Quadrupole moment (field-independent basis, Debye-Ang):
   XX=            -64.9317   YY=            -64.4922   ZZ=            -67.9480
   XY=             -3.9698   XZ=              1.1082   YZ=              0.0012

 Normal termination of Gaussian 16 at Tue Nov 28 23:10:43 2023.
