 Gaussian 16, Revision B.01,
 Gaussian 16:  ES64L-G16RevB.01 20-Dec-2017

 -------------------------
 #P B3LYP/6-311+g(d) force
 -------------------------

 -----
 DPGEN
 -----
 Symbolic Z-matrix:
 Charge =  0 Multiplicity = 2

                         Standard orientation:
 ---------------------------------------------------------------------
 Center     Atomic      Atomic             Coordinates (Angstroms)
 Number     Number       Type             X           Y           Z
 ---------------------------------------------------------------------
      1         11           0       -0.225409   -0.050501   -1.566643
      2         11           0        1.396479    2.520434    0.311403
      3         11           0        0.811378   -2.636875    0.441176
      4         11           0        2.657156   -0.299239   -0.963459
      5         11           0       -2.277254    1.913990   -0.013804
      6         11           0        0.459074   -0.098378    1.962129
      7         11           0       -2.821424   -1.349430   -0.170801
 ---------------------------------------------------------------------

 SCF Done:  E(UB3LYP) =  -1136.13272295     A.U. after   19 cycles

 The electronic state is 2-A.
 Alpha  occ. eigenvalues --  -38.43846 -38.43724 -38.43715 -38.43704 -38.43265
 Alpha  occ. eigenvalues --  -38.43154 -38.43140  -2.19692  -2.19684  -2.19672
 Alpha  occ. eigenvalues --   -2.19558  -2.19323  -2.19073  -2.19020  -1.13463
 Alpha  occ. eigenvalues --   -1.13402  -1.13390  -1.13363  -1.13337  -1.13321
 Alpha  occ. eigenvalues --   -1.13301  -1.13291  -1.13278  -1.13260  -1.13218
 Alpha  occ. eigenvalues --   -1.13169  -1.12984  -1.12950  -1.12930  -1.12766
 Alpha  occ. eigenvalues --   -1.12713  -1.12703  -1.12681  -1.12673  -1.12649
 Alpha  occ. eigenvalues --   -0.19199  -0.13250  -0.12416  -0.11298
 Alpha virt. eigenvalues --   -0.05244  -0.05070  -0.04362  -0.03353  -0.03061
 Alpha virt. eigenvalues --   -0.02801  -0.01333  -0.01006  -0.00194   0.00028
 Alpha virt. eigenvalues --    0.00150   0.00355   0.00881   0.00912   0.00964

  Beta  occ. eigenvalues --  -38.43845 -38.43704 -38.43687 -38.43623 -38.43203
  Beta  occ. eigenvalues --  -38.43139 -38.43132  -2.19691  -2.19608  -2.19560
  Beta  occ. eigenvalues --   -2.19516  -2.19212  -2.19051  -2.19009  -1.13408
  Beta  occ. eigenvalues --   -1.13381  -1.13360  -1.13318  -1.13284  -1.13257
  Beta  occ. eigenvalues --   -1.13249  -1.13237  -1.13217  -1.13206  -1.13173
  Beta  occ. eigenvalues --   -1.13167  -1.12911  -1.12861  -1.12858  -1.12737
  Beta  occ. eigenvalues --   -1.12690  -1.12673  -1.12672  -1.12649  -1.12641
  Beta  occ. eigenvalues --   -0.18477  -0.12998  -0.12134
  Beta virt. eigenvalues --   -0.07274  -0.05230  -0.05015  -0.04340  -0.02634
  Beta virt. eigenvalues --   -0.02249  -0.01716  -0.01222  -0.00939  -0.00088
  Beta virt. eigenvalues --    0.00006   0.00186   0.00392   0.00898   0.00958

 Mulliken charges and spin densities:
               1          2
     1  Na  -0.096774   0.300261
     2  Na   0.027912   0.023039
     3  Na   0.157866   0.058026
     4  Na   0.284910   0.116405
     5  Na  -0.073751  -0.041992
     6  Na  -0.295005   0.602794
     7  Na  -0.005158  -0.058534
 Sum of Mulliken charges =  -0.00000   1.00000

 Dipole moment (field-independent basis, Debye):
    X=             -0.3165    Y=              0.0223    Z=              0.1560  Tot=              0.3535
 Quadrupole moment (field-independent basis, Debye-Ang):
   XX=            -58.7524   YY=            -63.4364   ZZ=            -72.1789
   XY=              0.4516   XZ=             -1.7010   YZ=              0.3611

 Normal termination of Gaussian 16 at Tue Dec  5 13:21:38 2023.
