 Gaussian 16, Revision B.01,
 Gaussian 16:  ES64L-G16RevB.01 20-Dec-2017

 -------------------------
 #P B3LYP/6-311+g(d) force
 -------------------------

 -----
 DPGEN
 -----
 Symbolic Z-matrix:
 Charge =  0 Multiplicity = 2

                         Standard orientation:
 ---------------------------------------------------------------------
 Center     Atomic      Atomic             Coordinates (Angstroms)
 Number     Number       Type             X           Y           Z
 ---------------------------------------------------------------------
      1         11           0        0.339959   -0.452776   -1.722504
      2         11           0        2.201362    1.921456   -0.470599
      3         11           0        3.196047   -1.455969   -0.677514
      4         11           0        1.284605   -0.219329    2.126605
      5         11           0       -1.308891    1.840379    0.996114
      6         11           0       -2.170440   -1.836304    1.068180
      7         11           0       -3.542642    0.202542   -1.320282
 ---------------------------------------------------------------------

 SCF Done:  E(UB3LYP) =  -1136.12615025     A.U. after   24 cycles

 The electronic state is 2-A.
 Alpha  occ. eigenvalues --  -38.44925 -38.44439 -38.44327 -38.43749 -38.43681
 Alpha  occ. eigenvalues --  -38.43231 -38.43042  -2.20730  -2.20308  -2.20129
 Alpha  occ. eigenvalues --   -2.19598  -2.19550  -2.19090  -2.18883  -1.14401
 Alpha  occ. eigenvalues --   -1.14372  -1.14353  -1.14014  -1.13959  -1.13899
 Alpha  occ. eigenvalues --   -1.13797  -1.13786  -1.13762  -1.13310  -1.13254
 Alpha  occ. eigenvalues --   -1.13251  -1.13242  -1.13221  -1.13124  -1.12770
 Alpha  occ. eigenvalues --   -1.12737  -1.12725  -1.12572  -1.12551  -1.12501
 Alpha  occ. eigenvalues --   -0.18167  -0.13998  -0.11352  -0.10797
 Alpha virt. eigenvalues --   -0.06326  -0.05688  -0.04777  -0.03138  -0.02783
 Alpha virt. eigenvalues --   -0.02478  -0.02042  -0.01082  -0.00803  -0.00342
 Alpha virt. eigenvalues --    0.00165   0.00249   0.00329   0.00540   0.00605

  Beta  occ. eigenvalues --  -38.44876 -38.44399 -38.44317 -38.43738 -38.43665
  Beta  occ. eigenvalues --  -38.43197 -38.43027  -2.20639  -2.20234  -2.20110
  Beta  occ. eigenvalues --   -2.19578  -2.19525  -2.19027  -2.18858  -1.14338
  Beta  occ. eigenvalues --   -1.14314  -1.14280  -1.13955  -1.13910  -1.13847
  Beta  occ. eigenvalues --   -1.13777  -1.13772  -1.13752  -1.13293  -1.13238
  Beta  occ. eigenvalues --   -1.13225  -1.13212  -1.13198  -1.13111  -1.12729
  Beta  occ. eigenvalues --   -1.12691  -1.12670  -1.12555  -1.12512  -1.12486
  Beta  occ. eigenvalues --   -0.17466  -0.13801  -0.10649
  Beta virt. eigenvalues --   -0.07626  -0.05990  -0.05075  -0.04622  -0.02841
  Beta virt. eigenvalues --   -0.02305  -0.01927  -0.01850  -0.00701  -0.00561
  Beta virt. eigenvalues --   -0.00129   0.00277   0.00346   0.00371   0.00603

 Mulliken charges and spin densities:
               1          2
     1  Na  -0.453433   0.512796
     2  Na   0.247439  -0.139936
     3  Na   0.208944  -0.100048
     4  Na  -0.060103   0.497540
     5  Na  -0.215571   0.255172
     6  Na  -0.109292   0.032002
     7  Na   0.382016  -0.057527
 Sum of Mulliken charges =  -0.00000   1.00000

 Dipole moment (field-independent basis, Debye):
    X=             -0.2203    Y=              0.0227    Z=              0.0683  Tot=              0.2317
 Quadrupole moment (field-independent basis, Debye-Ang):
   XX=            -52.4222   YY=            -67.6021   ZZ=            -75.2042
   XY=              0.2464   XZ=              1.6971   YZ=             -7.3026

 Normal termination of Gaussian 16 at Tue Dec  5 15:37:21 2023.
