 Gaussian 16, Revision B.01,
 Gaussian 16:  ES64L-G16RevB.01 20-Dec-2017

 -------------------------
 #P B3LYP/6-311+g(d) force
 -------------------------

 -----
 DPGEN
 -----
 Symbolic Z-matrix:
 Charge =  0 Multiplicity = 2

                         Standard orientation:
 ---------------------------------------------------------------------
 Center     Atomic      Atomic             Coordinates (Angstroms)
 Number     Number       Type             X           Y           Z
 ---------------------------------------------------------------------
      1         11           0        2.241567   -0.526910   -0.744531
      2         11           0        3.104772   -3.132537    0.691521
      3         11           0       -2.553469    0.264198   -0.996966
      4         11           0        2.868477    3.430957    0.986017
      5         11           0       -5.388666   -0.093939    1.082611
      6         11           0       -0.419872   -2.160498   -0.232037
      7         11           0        0.147191    2.218730   -0.786615
 ---------------------------------------------------------------------

 SCF Done:  E(UB3LYP) =  -1136.11843554     A.U. after   20 cycles

 The electronic state is 2-A.
 Alpha  occ. eigenvalues --  -38.44926 -38.44418 -38.44404 -38.44293 -38.44197
 Alpha  occ. eigenvalues --  -38.43699 -38.43202  -2.20764  -2.20307  -2.20199
 Alpha  occ. eigenvalues --   -2.20117  -2.19966  -2.19540  -2.19055  -1.14480
 Alpha  occ. eigenvalues --   -1.14448  -1.14359  -1.14027  -1.14002  -1.13933
 Alpha  occ. eigenvalues --   -1.13834  -1.13833  -1.13806  -1.13768  -1.13766
 Alpha  occ. eigenvalues --   -1.13715  -1.13629  -1.13623  -1.13583  -1.13235
 Alpha  occ. eigenvalues --   -1.13218  -1.13161  -1.12746  -1.12729  -1.12694
 Alpha  occ. eigenvalues --   -0.17065  -0.13607  -0.12707  -0.10810
 Alpha virt. eigenvalues --   -0.06352  -0.05717  -0.04324  -0.03937  -0.02699
 Alpha virt. eigenvalues --   -0.02135  -0.02095  -0.01518  -0.01138  -0.00801
 Alpha virt. eigenvalues --   -0.00375  -0.00186   0.00022   0.00403   0.00604

  Beta  occ. eigenvalues --  -38.44913 -38.44417 -38.44285 -38.44269 -38.44161
  Beta  occ. eigenvalues --  -38.43693 -38.43198  -2.20742  -2.20308  -2.20073
  Beta  occ. eigenvalues --   -2.19977  -2.19899  -2.19531  -2.19056  -1.14460
  Beta  occ. eigenvalues --   -1.14433  -1.14343  -1.14010  -1.13992  -1.13937
  Beta  occ. eigenvalues --   -1.13738  -1.13735  -1.13691  -1.13682  -1.13682
  Beta  occ. eigenvalues --   -1.13661  -1.13583  -1.13577  -1.13542  -1.13233
  Beta  occ. eigenvalues --   -1.13214  -1.13131  -1.12757  -1.12736  -1.12637
  Beta  occ. eigenvalues --   -0.16644  -0.12984  -0.12306
  Beta virt. eigenvalues --   -0.07398  -0.06060  -0.05353  -0.04086  -0.03713
  Beta virt. eigenvalues --   -0.02593  -0.01888  -0.01463  -0.01306  -0.00881
  Beta virt. eigenvalues --   -0.00584  -0.00038   0.00026   0.00245   0.00555

 Mulliken charges and spin densities:
               1          2
     1  Na  -0.809601   0.030321
     2  Na   0.592226   0.139118
     3  Na  -0.306399  -0.102920
     4  Na   0.412041   0.268903
     5  Na  -0.009040   0.640081
     6  Na   0.137485   0.043928
     7  Na  -0.016711  -0.019430
 Sum of Mulliken charges =  -0.00000   1.00000

 Dipole moment (field-independent basis, Debye):
    X=              1.2659    Y=             -0.9949    Z=              0.5694  Tot=              1.7078
 Quadrupole moment (field-independent basis, Debye-Ang):
   XX=            -67.4568   YY=            -62.5853   ZZ=            -68.5903
   XY=             -1.5213   XZ=              2.4336   YZ=             -1.2575

 Normal termination of Gaussian 16 at Wed Nov 29 01:40:36 2023.
