 Gaussian 16, Revision B.01,
 Gaussian 16:  ES64L-G16RevB.01 20-Dec-2017

 -------------------------
 #P B3LYP/6-311+g(d) force
 -------------------------

 -----
 DPGEN
 -----
 Symbolic Z-matrix:
 Charge =  0 Multiplicity = 2

                         Standard orientation:
 ---------------------------------------------------------------------
 Center     Atomic      Atomic             Coordinates (Angstroms)
 Number     Number       Type             X           Y           Z
 ---------------------------------------------------------------------
      1         11           0       -1.812735    1.729766    0.812556
      2         11           0        1.502488    2.377517   -0.516429
      3         11           0        0.418713   -0.874737   -1.314697
      4         11           0        0.790230    0.136272    1.801933
      5         11           0       -3.174075   -0.221079   -1.410603
      6         11           0       -1.258024   -2.137673    1.109947
      7         11           0        3.533403   -1.010066   -0.482708
 ---------------------------------------------------------------------

 SCF Done:  E(UB3LYP) =  -1136.12810792     A.U. after   21 cycles

 The electronic state is 2-A.
 Alpha  occ. eigenvalues --  -38.44518 -38.44332 -38.43524 -38.43516 -38.43369
 Alpha  occ. eigenvalues --  -38.43340 -38.43095  -2.20321  -2.20169  -2.19526
 Alpha  occ. eigenvalues --   -2.19420  -2.19330  -2.19183  -2.18979  -1.14006
 Alpha  occ. eigenvalues --   -1.13970  -1.13952  -1.13835  -1.13824  -1.13778
 Alpha  occ. eigenvalues --   -1.13292  -1.13191  -1.13156  -1.13109  -1.13055
 Alpha  occ. eigenvalues --   -1.13020  -1.13010  -1.12977  -1.12934  -1.12868
 Alpha  occ. eigenvalues --   -1.12849  -1.12788  -1.12676  -1.12645  -1.12590
 Alpha  occ. eigenvalues --   -0.18780  -0.13538  -0.11570  -0.11383
 Alpha virt. eigenvalues --   -0.06209  -0.04812  -0.04356  -0.03181  -0.02783
 Alpha virt. eigenvalues --   -0.02676  -0.02078  -0.00801  -0.00676   0.00061
 Alpha virt. eigenvalues --    0.00234   0.00274   0.00517   0.00790   0.00849

  Beta  occ. eigenvalues --  -38.44513 -38.44282 -38.43482 -38.43439 -38.43346
  Beta  occ. eigenvalues --  -38.43335 -38.43085  -2.20312  -2.20074  -2.19389
  Beta  occ. eigenvalues --   -2.19346  -2.19289  -2.19174  -2.18965  -1.13994
  Beta  occ. eigenvalues --   -1.13965  -1.13946  -1.13772  -1.13753  -1.13718
  Beta  occ. eigenvalues --   -1.13206  -1.13100  -1.13073  -1.13039  -1.12986
  Beta  occ. eigenvalues --   -1.12974  -1.12954  -1.12934  -1.12902  -1.12856
  Beta  occ. eigenvalues --   -1.12837  -1.12779  -1.12647  -1.12618  -1.12588
  Beta  occ. eigenvalues --   -0.18048  -0.13193  -0.11245
  Beta virt. eigenvalues --   -0.07612  -0.05997  -0.04682  -0.03888  -0.03007
  Beta virt. eigenvalues --   -0.02180  -0.01993  -0.01621  -0.00773  -0.00346
  Beta virt. eigenvalues --    0.00131   0.00288   0.00319   0.00593   0.00848

 Mulliken charges and spin densities:
               1          2
     1  Na  -0.223804   0.111271
     2  Na  -0.218697  -0.029486
     3  Na  -0.449080   0.383840
     4  Na   0.465561   0.351369
     5  Na   0.331014   0.104806
     6  Na  -0.198950   0.032159
     7  Na   0.293956   0.046041
 Sum of Mulliken charges =  -0.00000   1.00000

 Dipole moment (field-independent basis, Debye):
    X=              0.4270    Y=             -0.1530    Z=             -0.2209  Tot=              0.5045
 Quadrupole moment (field-independent basis, Debye-Ang):
   XX=            -52.1520   YY=            -72.8388   ZZ=            -67.9988
   XY=              0.2478   XZ=              0.7810   YZ=             -2.8993

 Normal termination of Gaussian 16 at Tue Nov 28 20:44:08 2023.
