 Gaussian 16, Revision B.01,
 Gaussian 16:  ES64L-G16RevB.01 20-Dec-2017

 -------------------------
 #P B3LYP/6-311+g(d) force
 -------------------------

 -----
 DPGEN
 -----
 Symbolic Z-matrix:
 Charge =  0 Multiplicity = 2

                         Standard orientation:
 ---------------------------------------------------------------------
 Center     Atomic      Atomic             Coordinates (Angstroms)
 Number     Number       Type             X           Y           Z
 ---------------------------------------------------------------------
      1         11           0       -0.188897    1.294701    0.468745
      2         11           0        1.014281    4.199199   -0.394767
      3         11           0        2.901824    0.640931    0.113831
      4         11           0        0.930840   -2.179354    0.273434
      5         11           0       -2.506507   -0.787872    1.369040
      6         11           0        3.983075   -2.495895   -0.780066
      7         11           0       -6.134616   -0.671711   -1.050217
 ---------------------------------------------------------------------

 SCF Done:  E(UB3LYP) =  -1136.11843704     A.U. after   21 cycles

 The electronic state is 2-A.
 Alpha  occ. eigenvalues --  -38.45028 -38.44777 -38.44315 -38.44260 -38.44046
 Alpha  occ. eigenvalues --  -38.43224 -38.43112  -2.20806  -2.20624  -2.20143
 Alpha  occ. eigenvalues --   -2.20115  -2.19834  -2.19044  -2.19015  -1.14431
 Alpha  occ. eigenvalues --   -1.14431  -1.14405  -1.14372  -1.14318  -1.14187
 Alpha  occ. eigenvalues --   -1.13834  -1.13821  -1.13812  -1.13793  -1.13781
 Alpha  occ. eigenvalues --   -1.13667  -1.13514  -1.13496  -1.13451  -1.12784
 Alpha  occ. eigenvalues --   -1.12738  -1.12725  -1.12681  -1.12658  -1.12586
 Alpha  occ. eigenvalues --   -0.17020  -0.13345  -0.12691  -0.11198
 Alpha virt. eigenvalues --   -0.06350  -0.05443  -0.04361  -0.03992  -0.02500
 Alpha virt. eigenvalues --   -0.02244  -0.01977  -0.01567  -0.01542  -0.00867
 Alpha virt. eigenvalues --   -0.00531  -0.00056  -0.00031   0.00325   0.00576

  Beta  occ. eigenvalues --  -38.44873 -38.44775 -38.44302 -38.44246 -38.44038
  Beta  occ. eigenvalues --  -38.43234 -38.43102  -2.20620  -2.20515  -2.20119
  Beta  occ. eigenvalues --   -2.20090  -2.19818  -2.19039  -2.19026  -1.14364
  Beta  occ. eigenvalues --   -1.14317  -1.14235  -1.14234  -1.14210  -1.14185
  Beta  occ. eigenvalues --   -1.13818  -1.13804  -1.13796  -1.13776  -1.13762
  Beta  occ. eigenvalues --   -1.13641  -1.13504  -1.13485  -1.13441  -1.12785
  Beta  occ. eigenvalues --   -1.12737  -1.12718  -1.12699  -1.12651  -1.12566
  Beta  occ. eigenvalues --   -0.16784  -0.13048  -0.11998
  Beta virt. eigenvalues --   -0.07260  -0.06171  -0.05056  -0.04279  -0.03805
  Beta virt. eigenvalues --   -0.02409  -0.01896  -0.01534  -0.01335  -0.00932
  Beta virt. eigenvalues --   -0.00570  -0.00089   0.00061   0.00210   0.00510

 Mulliken charges and spin densities:
               1          2
     1  Na  -1.578068   0.076363
     2  Na   0.220864  -0.021697
     3  Na  -0.292652   0.081381
     4  Na  -0.199935   0.084289
     5  Na   0.880797  -0.134621
     6  Na   0.844009   0.069904
     7  Na   0.124984   0.844380
 Sum of Mulliken charges =  -0.00000   1.00000

 Dipole moment (field-independent basis, Debye):
    X=              1.9357    Y=             -0.2139    Z=             -0.4952  Tot=              2.0094
 Quadrupole moment (field-independent basis, Debye-Ang):
   XX=            -65.8079   YY=            -58.9500   ZZ=            -71.3199
   XY=             -5.2128   XZ=             -1.7506   YZ=              0.0654

 Normal termination of Gaussian 16 at Tue Nov 28 20:59:15 2023.
