 Gaussian 16, Revision B.01,
 Gaussian 16:  ES64L-G16RevB.01 20-Dec-2017

 -------------------------
 #P B3LYP/6-311+g(d) force
 -------------------------

 -----
 DPGEN
 -----
 Symbolic Z-matrix:
 Charge =  0 Multiplicity = 2

                         Standard orientation:
 ---------------------------------------------------------------------
 Center     Atomic      Atomic             Coordinates (Angstroms)
 Number     Number       Type             X           Y           Z
 ---------------------------------------------------------------------
      1         11           0        1.046407    3.868098    0.206570
      2         11           0        4.212018   -1.633842   -0.949495
      3         11           0       -2.472604    2.403196   -0.522792
      4         11           0        1.074869   -2.224591    0.046835
      5         11           0       -4.033662   -0.467776   -0.457387
      6         11           0        2.319695    1.142987    0.938934
      7         11           0       -2.146722   -3.088072    0.737334
 ---------------------------------------------------------------------

 SCF Done:  E(UB3LYP) =  -1136.11910858     A.U. after   20 cycles

 The electronic state is 2-A.
 Alpha  occ. eigenvalues --  -38.44692 -38.44658 -38.44404 -38.44288 -38.44234
 Alpha  occ. eigenvalues --  -38.43813 -38.43627  -2.20508  -2.20441  -2.20214
 Alpha  occ. eigenvalues --   -2.20107  -2.20040  -2.19634  -2.19445  -1.14204
 Alpha  occ. eigenvalues --   -1.14190  -1.14129  -1.14117  -1.14114  -1.14058
 Alpha  occ. eigenvalues --   -1.13881  -1.13863  -1.13833  -1.13803  -1.13793
 Alpha  occ. eigenvalues --   -1.13712  -1.13709  -1.13708  -1.13677  -1.13285
 Alpha  occ. eigenvalues --   -1.13284  -1.13260  -1.13125  -1.13095  -1.13070
 Alpha  occ. eigenvalues --   -0.16134  -0.13972  -0.13299  -0.10921
 Alpha virt. eigenvalues --   -0.06511  -0.05777  -0.03965  -0.03455  -0.03028
 Alpha virt. eigenvalues --   -0.02394  -0.02024  -0.01921  -0.01361  -0.00759
 Alpha virt. eigenvalues --   -0.00407   0.00048   0.00166   0.00547   0.00656

  Beta  occ. eigenvalues --  -38.44673 -38.44609 -38.44344 -38.44274 -38.44215
  Beta  occ. eigenvalues --  -38.43760 -38.43606  -2.20478  -2.20355  -2.20101
  Beta  occ. eigenvalues --   -2.20088  -2.20011  -2.19536  -2.19408  -1.14184
  Beta  occ. eigenvalues --   -1.14173  -1.14088  -1.14059  -1.14058  -1.13981
  Beta  occ. eigenvalues --   -1.13811  -1.13791  -1.13789  -1.13780  -1.13760
  Beta  occ. eigenvalues --   -1.13694  -1.13686  -1.13652  -1.13632  -1.13218
  Beta  occ. eigenvalues --   -1.13211  -1.13201  -1.13090  -1.13070  -1.13050
  Beta  occ. eigenvalues --   -0.15680  -0.13272  -0.12646
  Beta virt. eigenvalues --   -0.07607  -0.06481  -0.05399  -0.03741  -0.03125
  Beta virt. eigenvalues --   -0.02622  -0.02165  -0.01764  -0.01640  -0.01191
  Beta virt. eigenvalues --   -0.00467  -0.00067   0.00267   0.00312   0.00596

 Mulliken charges and spin densities:
               1          2
     1  Na   0.559068   0.118644
     2  Na   1.339945   0.386113
     3  Na  -0.072158   0.198623
     4  Na  -1.324227   0.410037
     5  Na   0.022381  -0.019091
     6  Na  -0.659327   0.059616
     7  Na   0.134317  -0.153943
 Sum of Mulliken charges =  -0.00000   1.00000

 Dipole moment (field-independent basis, Debye):
    X=              0.7222    Y=             -0.0517    Z=             -0.2737  Tot=              0.7740
 Quadrupole moment (field-independent basis, Debye-Ang):
   XX=            -59.9292   YY=            -66.0703   ZZ=            -71.2363
   XY=              1.3663   XZ=             -1.6896   YZ=             -0.6715

 Normal termination of Gaussian 16 at Mon Dec  4 04:24:37 2023.
