 Gaussian 16, Revision B.01,
 Gaussian 16:  ES64L-G16RevB.01 20-Dec-2017

 -------------------------
 #P B3LYP/6-311+g(d) force
 -------------------------

 -----
 DPGEN
 -----
 Symbolic Z-matrix:
 Charge =  0 Multiplicity = 2

                         Standard orientation:
 ---------------------------------------------------------------------
 Center     Atomic      Atomic             Coordinates (Angstroms)
 Number     Number       Type             X           Y           Z
 ---------------------------------------------------------------------
      1         11           0       -1.034176   -2.600681   -0.185775
      2         11           0       -2.800186   -0.272615   -0.054550
      3         11           0       -1.095786    2.749679    0.046566
      4         11           0        0.158912    0.088165   -1.516454
      5         11           0        2.285140    1.716909   -0.159328
      6         11           0       -0.061247    0.036040    1.706339
      7         11           0        2.547343   -1.717498    0.163202
 ---------------------------------------------------------------------

 SCF Done:  E(UB3LYP) =  -1136.13408941     A.U. after   20 cycles

 The electronic state is 2-A.
 Alpha  occ. eigenvalues --  -38.43740 -38.43696 -38.43562 -38.43433 -38.43395
 Alpha  occ. eigenvalues --  -38.42887 -38.42796  -2.19650  -2.19548  -2.19520
 Alpha  occ. eigenvalues --   -2.19372  -2.19280  -2.18922  -2.18897  -1.13398
 Alpha  occ. eigenvalues --   -1.13333  -1.13310  -1.13267  -1.13216  -1.13210
 Alpha  occ. eigenvalues --   -1.13181  -1.13177  -1.13168  -1.13038  -1.13010
 Alpha  occ. eigenvalues --   -1.12965  -1.12953  -1.12948  -1.12909  -1.12665
 Alpha  occ. eigenvalues --   -1.12547  -1.12535  -1.12532  -1.12522  -1.12488
 Alpha  occ. eigenvalues --   -0.19548  -0.13323  -0.12820  -0.10542
 Alpha virt. eigenvalues --   -0.05293  -0.05160  -0.04792  -0.03073  -0.02758
 Alpha virt. eigenvalues --   -0.02052  -0.01375  -0.01224  -0.00167  -0.00095
 Alpha virt. eigenvalues --    0.00059   0.00362   0.00883   0.00901   0.00950

  Beta  occ. eigenvalues --  -38.43730 -38.43692 -38.43553 -38.43424 -38.43390
  Beta  occ. eigenvalues --  -38.42804 -38.42727  -2.19638  -2.19543  -2.19509
  Beta  occ. eigenvalues --   -2.19360  -2.19273  -2.18775  -2.18768  -1.13383
  Beta  occ. eigenvalues --   -1.13330  -1.13275  -1.13265  -1.13209  -1.13188
  Beta  occ. eigenvalues --   -1.13180  -1.13174  -1.13122  -1.13028  -1.12972
  Beta  occ. eigenvalues --   -1.12961  -1.12948  -1.12918  -1.12904  -1.12572
  Beta  occ. eigenvalues --   -1.12448  -1.12441  -1.12429  -1.12413  -1.12398
  Beta  occ. eigenvalues --   -0.18818  -0.13021  -0.12549
  Beta virt. eigenvalues --   -0.06596  -0.05281  -0.05149  -0.04793  -0.02220
  Beta virt. eigenvalues --   -0.01984  -0.01299  -0.01148  -0.01032  -0.00211
  Beta virt. eigenvalues --   -0.00151   0.00180   0.00396   0.00912   0.00922

 Mulliken charges and spin densities:
               1          2
     1  Na   0.206432  -0.024188
     2  Na   0.287041  -0.001649
     3  Na   0.223834  -0.071754
     4  Na  -0.510789   0.498369
     5  Na   0.213627  -0.085723
     6  Na  -0.507160   0.750492
     7  Na   0.087015  -0.065549
 Sum of Mulliken charges =  -0.00000   1.00000

 Dipole moment (field-independent basis, Debye):
    X=              0.2528    Y=              0.0681    Z=              0.1194  Tot=              0.2877
 Quadrupole moment (field-independent basis, Debye-Ang):
   XX=            -57.3543   YY=            -58.9963   ZZ=            -75.8047
   XY=             -0.9393   XZ=              0.5023   YZ=              0.0710

 Normal termination of Gaussian 16 at Wed Nov 29 03:13:09 2023.
