 Gaussian 16, Revision B.01,
 Gaussian 16:  ES64L-G16RevB.01 20-Dec-2017

 -------------------------
 #P B3LYP/6-311+g(d) force
 -------------------------

 -----
 DPGEN
 -----
 Symbolic Z-matrix:
 Charge =  0 Multiplicity = 2

                         Standard orientation:
 ---------------------------------------------------------------------
 Center     Atomic      Atomic             Coordinates (Angstroms)
 Number     Number       Type             X           Y           Z
 ---------------------------------------------------------------------
      1         11           0        1.328316    2.100035   -0.183013
      2         11           0        0.378570   -0.984211    1.675765
      3         11           0       -3.818074   -0.082406    1.452458
      4         11           0       -1.721888    2.237853   -0.908423
      5         11           0        1.342207   -1.103106   -1.696165
      6         11           0        4.173129   -0.178475    0.904070
      7         11           0       -1.682261   -1.989690   -1.244692
 ---------------------------------------------------------------------

 SCF Done:  E(UB3LYP) =  -1136.11976748     A.U. after   22 cycles

 The electronic state is 2-A.
 Alpha  occ. eigenvalues --  -38.45586 -38.45162 -38.44982 -38.44047 -38.43448
 Alpha  occ. eigenvalues --  -38.42904 -38.42841  -2.21366  -2.20930  -2.20745
 Alpha  occ. eigenvalues --   -2.19927  -2.19279  -2.18714  -2.18705  -1.15068
 Alpha  occ. eigenvalues --   -1.15034  -1.14969  -1.14599  -1.14585  -1.14541
 Alpha  occ. eigenvalues --   -1.14408  -1.14380  -1.14363  -1.13617  -1.13565
 Alpha  occ. eigenvalues --   -1.13556  -1.12967  -1.12929  -1.12907  -1.12475
 Alpha  occ. eigenvalues --   -1.12394  -1.12378  -1.12368  -1.12349  -1.12271
 Alpha  occ. eigenvalues --   -0.17636  -0.13479  -0.11438  -0.11205
 Alpha virt. eigenvalues --   -0.06970  -0.05285  -0.04557  -0.03258  -0.02878
 Alpha virt. eigenvalues --   -0.02650  -0.02402  -0.01378  -0.00874  -0.00316
 Alpha virt. eigenvalues --   -0.00054   0.00184   0.00323   0.00389   0.00715

  Beta  occ. eigenvalues --  -38.45572 -38.45128 -38.44919 -38.43994 -38.43428
  Beta  occ. eigenvalues --  -38.42899 -38.42828  -2.21339  -2.20866  -2.20625
  Beta  occ. eigenvalues --   -2.19833  -2.19246  -2.18707  -2.18685  -1.15047
  Beta  occ. eigenvalues --   -1.15013  -1.14948  -1.14552  -1.14541  -1.14501
  Beta  occ. eigenvalues --   -1.14325  -1.14300  -1.14285  -1.13552  -1.13499
  Beta  occ. eigenvalues --   -1.13477  -1.12931  -1.12914  -1.12868  -1.12458
  Beta  occ. eigenvalues --   -1.12378  -1.12367  -1.12355  -1.12343  -1.12250
  Beta  occ. eigenvalues --   -0.17079  -0.12990  -0.11019
  Beta virt. eigenvalues --   -0.07861  -0.06608  -0.04667  -0.04588  -0.03058
  Beta virt. eigenvalues --   -0.02479  -0.02153  -0.01822  -0.01019  -0.00825
  Beta virt. eigenvalues --   -0.00152   0.00066   0.00247   0.00364   0.00575

 Mulliken charges and spin densities:
               1          2
     1  Na  -0.096239   0.009610
     2  Na  -0.439620   0.179434
     3  Na   0.276718   0.302141
     4  Na  -0.448423  -0.023366
     5  Na   0.056224   0.267169
     6  Na   0.568755   0.250162
     7  Na   0.082586   0.014850
 Sum of Mulliken charges =  -0.00000   1.00000

 Dipole moment (field-independent basis, Debye):
    X=              0.7936    Y=             -0.8411    Z=              0.6625  Tot=              1.3327
 Quadrupole moment (field-independent basis, Debye-Ang):
   XX=            -48.9362   YY=            -80.7632   ZZ=            -65.8574
   XY=              0.2453   XZ=             -0.1260   YZ=              0.1659

 Normal termination of Gaussian 16 at Sun Dec  3 23:48:19 2023.
