 Gaussian 16, Revision B.01,
 Gaussian 16:  ES64L-G16RevB.01 20-Dec-2017

 -------------------------
 #P B3LYP/6-311+g(d) force
 -------------------------

 -----
 DPGEN
 -----
 Symbolic Z-matrix:
 Charge =  0 Multiplicity = 2

                         Standard orientation:
 ---------------------------------------------------------------------
 Center     Atomic      Atomic             Coordinates (Angstroms)
 Number     Number       Type             X           Y           Z
 ---------------------------------------------------------------------
      1         11           0        3.884755    1.130450    0.552910
      2         11           0        0.203082    2.584711    0.262184
      3         11           0        3.445166   -2.349277   -0.351903
      4         11           0        1.239678   -0.457005   -1.036881
      5         11           0       -2.999373    1.658351   -0.862792
      6         11           0       -1.542791   -0.797305    1.408559
      7         11           0       -4.230519   -1.769925    0.027923
 ---------------------------------------------------------------------

 SCF Done:  E(UB3LYP) =  -1136.11419132     A.U. after   26 cycles

 The electronic state is 2-A.
 Alpha  occ. eigenvalues --  -38.45839 -38.45105 -38.44405 -38.43722 -38.43552
 Alpha  occ. eigenvalues --  -38.43188 -38.42921  -2.21613  -2.20930  -2.20241
 Alpha  occ. eigenvalues --   -2.19648  -2.19392  -2.19019  -2.18750  -1.15320
 Alpha  occ. eigenvalues --   -1.15276  -1.15224  -1.14621  -1.14588  -1.14571
 Alpha  occ. eigenvalues --   -1.13967  -1.13886  -1.13862  -1.13323  -1.13303
 Alpha  occ. eigenvalues --   -1.13277  -1.13049  -1.13029  -1.12998  -1.12681
 Alpha  occ. eigenvalues --   -1.12670  -1.12654  -1.12435  -1.12425  -1.12374
 Alpha  occ. eigenvalues --   -0.17348  -0.14539  -0.11616  -0.09959
 Alpha virt. eigenvalues --   -0.07343  -0.05685  -0.04390  -0.03307  -0.03031
 Alpha virt. eigenvalues --   -0.02440  -0.02172  -0.01243  -0.00951  -0.00633
 Alpha virt. eigenvalues --   -0.00311  -0.00124   0.00360   0.00417   0.00554

  Beta  occ. eigenvalues --  -38.45848 -38.45110 -38.44381 -38.43684 -38.43455
  Beta  occ. eigenvalues --  -38.43160 -38.42912  -2.21630  -2.20942  -2.20200
  Beta  occ. eigenvalues --   -2.19584  -2.19211  -2.18966  -2.18737  -1.15333
  Beta  occ. eigenvalues --   -1.15286  -1.15227  -1.14632  -1.14589  -1.14567
  Beta  occ. eigenvalues --   -1.13936  -1.13861  -1.13814  -1.13284  -1.13232
  Beta  occ. eigenvalues --   -1.13223  -1.12927  -1.12907  -1.12870  -1.12654
  Beta  occ. eigenvalues --   -1.12633  -1.12613  -1.12429  -1.12414  -1.12351
  Beta  occ. eigenvalues --   -0.16811  -0.14042  -0.11452
  Beta virt. eigenvalues --   -0.07228  -0.06319  -0.05458  -0.03992  -0.03089
  Beta virt. eigenvalues --   -0.02643  -0.02401  -0.01622  -0.01046  -0.00805
  Beta virt. eigenvalues --   -0.00280  -0.00048   0.00062   0.00475   0.00568

 Mulliken charges and spin densities:
               1          2
     1  Na  -0.081326   0.623465
     2  Na  -0.043071   0.053532
     3  Na   0.637232   0.098070
     4  Na  -0.830283   0.042262
     5  Na   0.310711   0.014224
     6  Na  -0.137698  -0.099676
     7  Na   0.144435   0.268123
 Sum of Mulliken charges =  -0.00000   1.00000

 Dipole moment (field-independent basis, Debye):
    X=             -0.8644    Y=             -0.2484    Z=             -0.2136  Tot=              0.9244
 Quadrupole moment (field-independent basis, Debye-Ang):
   XX=            -68.5411   YY=            -69.7057   ZZ=            -65.6090
   XY=            -10.7926   XZ=              4.4441   YZ=             -1.9321

 Normal termination of Gaussian 16 at Mon Dec  4 05:22:59 2023.
