 Gaussian 16, Revision B.01,
 Gaussian 16:  ES64L-G16RevB.01 20-Dec-2017

 -------------------------
 #P B3LYP/6-311+g(d) force
 -------------------------

 -----
 DPGEN
 -----
 Symbolic Z-matrix:
 Charge =  0 Multiplicity = 2

                         Standard orientation:
 ---------------------------------------------------------------------
 Center     Atomic      Atomic             Coordinates (Angstroms)
 Number     Number       Type             X           Y           Z
 ---------------------------------------------------------------------
      1         11           0        0.296122    0.199708   -1.686156
      2         11           0       -0.522133   -2.454882   -0.218673
      3         11           0        2.003642    2.090037   -0.195396
      4         11           0       -3.326974   -0.604768   -0.218806
      5         11           0       -1.431055    2.167049    0.154968
      6         11           0        3.158054   -1.405306    0.196329
      7         11           0       -0.177655    0.008162    1.967733
 ---------------------------------------------------------------------

 SCF Done:  E(UB3LYP) =  -1136.13076184     A.U. after   20 cycles

 The electronic state is 2-A.
 Alpha  occ. eigenvalues --  -38.44431 -38.44419 -38.43632 -38.43536 -38.43402
 Alpha  occ. eigenvalues --  -38.43098 -38.42993  -2.20257  -2.20192  -2.19574
 Alpha  occ. eigenvalues --   -2.19439  -2.19414  -2.18994  -2.18936  -1.13926
 Alpha  occ. eigenvalues --   -1.13915  -1.13902  -1.13867  -1.13851  -1.13830
 Alpha  occ. eigenvalues --   -1.13296  -1.13268  -1.13225  -1.13171  -1.13114
 Alpha  occ. eigenvalues --   -1.13066  -1.13058  -1.13018  -1.12974  -1.12694
 Alpha  occ. eigenvalues --   -1.12669  -1.12629  -1.12602  -1.12585  -1.12537
 Alpha  occ. eigenvalues --   -0.19015  -0.13247  -0.12206  -0.10859
 Alpha virt. eigenvalues --   -0.06188  -0.05132  -0.03956  -0.03278  -0.02769
 Alpha virt. eigenvalues --   -0.02545  -0.02023  -0.01142  -0.00130  -0.00056
 Alpha virt. eigenvalues --    0.00017   0.00292   0.00757   0.00876   0.00919

  Beta  occ. eigenvalues --  -38.44429 -38.44420 -38.43538 -38.43528 -38.43331
  Beta  occ. eigenvalues --  -38.43086 -38.42981  -2.20255  -2.20195  -2.19422
  Beta  occ. eigenvalues --   -2.19402  -2.19293  -2.18978  -2.18919  -1.13928
  Beta  occ. eigenvalues --   -1.13903  -1.13894  -1.13860  -1.13852  -1.13833
  Beta  occ. eigenvalues --   -1.13248  -1.13161  -1.13101  -1.13064  -1.13041
  Beta  occ. eigenvalues --   -1.13038  -1.13011  -1.12955  -1.12902  -1.12681
  Beta  occ. eigenvalues --   -1.12627  -1.12616  -1.12576  -1.12550  -1.12530
  Beta  occ. eigenvalues --   -0.18265  -0.13030  -0.11922
  Beta virt. eigenvalues --   -0.06916  -0.06135  -0.05109  -0.03962  -0.02526
  Beta virt. eigenvalues --   -0.02003  -0.01893  -0.01461  -0.01091  -0.00162
  Beta virt. eigenvalues --   -0.00036   0.00095   0.00316   0.00812   0.00877

 Mulliken charges and spin densities:
               1          2
     1  Na  -0.426825   0.526366
     2  Na   0.187482  -0.069899
     3  Na   0.368329  -0.065733
     4  Na   0.005706  -0.055531
     5  Na   0.500810   0.008823
     6  Na  -0.037089  -0.075152
     7  Na  -0.598413   0.731126
 Sum of Mulliken charges =  -0.00000   1.00000

 Dipole moment (field-independent basis, Debye):
    X=              0.1050    Y=             -0.1736    Z=              0.1564  Tot=              0.2562
 Quadrupole moment (field-independent basis, Debye-Ang):
   XX=            -50.4926   YY=            -68.0205   ZZ=            -73.9000
   XY=             -0.0965   XZ=              1.3791   YZ=              0.1195

 Normal termination of Gaussian 16 at Thu Dec  7 15:29:52 2023.
