 Gaussian 16, Revision B.01,
 Gaussian 16:  ES64L-G16RevB.01 20-Dec-2017

 -------------------------
 #P B3LYP/6-311+g(d) force
 -------------------------

 -----
 DPGEN
 -----
 Symbolic Z-matrix:
 Charge =  0 Multiplicity = 2

                         Standard orientation:
 ---------------------------------------------------------------------
 Center     Atomic      Atomic             Coordinates (Angstroms)
 Number     Number       Type             X           Y           Z
 ---------------------------------------------------------------------
      1         11           0        1.310178    3.396188    0.202112
      2         11           0        0.390107   -3.045892    1.101135
      3         11           0       -4.489798    0.300777    0.070167
      4         11           0       -1.740720    3.372326   -0.152863
      5         11           0       -2.515468   -2.782254   -0.521321
      6         11           0        3.008808   -1.917174   -0.842271
      7         11           0        4.036893    0.676028    0.143042
 ---------------------------------------------------------------------

 SCF Done:  E(UB3LYP) =  -1136.10748732     A.U. after   19 cycles

 The electronic state is 2-A.
 Alpha  occ. eigenvalues --  -38.44849 -38.44849 -38.44494 -38.44458 -38.44344
 Alpha  occ. eigenvalues --  -38.44296 -38.44113  -2.20681  -2.20607  -2.20326
 Alpha  occ. eigenvalues --   -2.20246  -2.20123  -2.20111  -2.19920  -1.14429
 Alpha  occ. eigenvalues --   -1.14338  -1.14325  -1.14296  -1.14287  -1.14251
 Alpha  occ. eigenvalues --   -1.13970  -1.13959  -1.13957  -1.13947  -1.13910
 Alpha  occ. eigenvalues --   -1.13887  -1.13773  -1.13761  -1.13756  -1.13754
 Alpha  occ. eigenvalues --   -1.13745  -1.13739  -1.13575  -1.13572  -1.13546
 Alpha  occ. eigenvalues --   -0.15775  -0.13769  -0.13561  -0.10828
 Alpha virt. eigenvalues --   -0.07345  -0.05106  -0.04136  -0.03684  -0.03143
 Alpha virt. eigenvalues --   -0.02730  -0.02442  -0.01688  -0.01363  -0.00642
 Alpha virt. eigenvalues --   -0.00218  -0.00158   0.00149   0.00478   0.00570

  Beta  occ. eigenvalues --  -38.44855 -38.44840 -38.44453 -38.44444 -38.44254
  Beta  occ. eigenvalues --  -38.44241 -38.44083  -2.20671  -2.20624  -2.20253
  Beta  occ. eigenvalues --   -2.20226  -2.20009  -2.19954  -2.19869  -1.14399
  Beta  occ. eigenvalues --   -1.14334  -1.14311  -1.14307  -1.14302  -1.14225
  Beta  occ. eigenvalues --   -1.13927  -1.13919  -1.13913  -1.13901  -1.13894
  Beta  occ. eigenvalues --   -1.13862  -1.13693  -1.13688  -1.13670  -1.13658
  Beta  occ. eigenvalues --   -1.13642  -1.13633  -1.13542  -1.13538  -1.13499
  Beta  occ. eigenvalues --   -0.15303  -0.12931  -0.12883
  Beta virt. eigenvalues --   -0.07682  -0.07473  -0.04776  -0.03654  -0.03387
  Beta virt. eigenvalues --   -0.02736  -0.02496  -0.02190  -0.01579  -0.01239
  Beta virt. eigenvalues --   -0.00345   0.00024   0.00140   0.00209   0.00482

 Mulliken charges and spin densities:
               1          2
     1  Na   0.109820   0.091196
     2  Na  -0.135978   0.240216
     3  Na   0.050447   0.453610
     4  Na  -0.023309   0.001915
     5  Na  -0.087118  -0.023851
     6  Na   0.000724   0.060098
     7  Na   0.085414   0.176816
 Sum of Mulliken charges =  -0.00000   1.00000

 Dipole moment (field-independent basis, Debye):
    X=              0.6338    Y=             -0.4921    Z=             -0.0304  Tot=              0.8029
 Quadrupole moment (field-independent basis, Debye-Ang):
   XX=            -64.8359   YY=            -68.1791   ZZ=            -69.7316
   XY=              0.2258   XZ=              1.5669   YZ=              2.3267

 Normal termination of Gaussian 16 at Sun Dec  3 22:16:02 2023.
