 Gaussian 16, Revision B.01,
 Gaussian 16:  ES64L-G16RevB.01 20-Dec-2017

 -------------------------
 #P B3LYP/6-311+g(d) force
 -------------------------

 -----
 DPGEN
 -----
 Symbolic Z-matrix:
 Charge =  0 Multiplicity = 2

                         Standard orientation:
 ---------------------------------------------------------------------
 Center     Atomic      Atomic             Coordinates (Angstroms)
 Number     Number       Type             X           Y           Z
 ---------------------------------------------------------------------
      1         11           0        2.079749    1.923788   -0.080330
      2         11           0        2.681037   -1.342005    0.129714
      3         11           0       -0.321680   -2.696091   -0.138923
      4         11           0        0.151150    0.406692   -1.521717
      5         11           0       -2.888908   -0.802872   -0.297330
      6         11           0       -0.318915   -0.169836    1.677594
      7         11           0       -1.382432    2.680324    0.230992
 ---------------------------------------------------------------------

 SCF Done:  E(UB3LYP) =  -1136.13365536     A.U. after   20 cycles

 The electronic state is 2-A.
 Alpha  occ. eigenvalues --  -38.43759 -38.43749 -38.43672 -38.43496 -38.43329
 Alpha  occ. eigenvalues --  -38.42917 -38.42894  -2.19688  -2.19633  -2.19538
 Alpha  occ. eigenvalues --   -2.19379  -2.19273  -2.19002  -2.18927  -1.13498
 Alpha  occ. eigenvalues --   -1.13331  -1.13329  -1.13298  -1.13295  -1.13273
 Alpha  occ. eigenvalues --   -1.13218  -1.13210  -1.13159  -1.13072  -1.13038
 Alpha  occ. eigenvalues --   -1.13026  -1.12983  -1.12928  -1.12883  -1.12706
 Alpha  occ. eigenvalues --   -1.12634  -1.12591  -1.12585  -1.12544  -1.12528
 Alpha  occ. eigenvalues --   -0.19444  -0.13207  -0.12946  -0.10469
 Alpha virt. eigenvalues --   -0.05377  -0.05137  -0.04849  -0.03026  -0.02848
 Alpha virt. eigenvalues --   -0.01986  -0.01387  -0.01239  -0.00216  -0.00119
 Alpha virt. eigenvalues --    0.00059   0.00358   0.00864   0.00904   0.00947

  Beta  occ. eigenvalues --  -38.43750 -38.43740 -38.43664 -38.43492 -38.43320
  Beta  occ. eigenvalues --  -38.42851 -38.42816  -2.19676  -2.19620  -2.19527
  Beta  occ. eigenvalues --   -2.19374  -2.19261  -2.18882  -2.18784  -1.13479
  Beta  occ. eigenvalues --   -1.13325  -1.13306  -1.13287  -1.13268  -1.13256
  Beta  occ. eigenvalues --   -1.13213  -1.13174  -1.13156  -1.13070  -1.13033
  Beta  occ. eigenvalues --   -1.13002  -1.12972  -1.12893  -1.12872  -1.12621
  Beta  occ. eigenvalues --   -1.12545  -1.12506  -1.12491  -1.12444  -1.12423
  Beta  occ. eigenvalues --   -0.18726  -0.12920  -0.12677
  Beta virt. eigenvalues --   -0.06550  -0.05356  -0.05115  -0.04830  -0.02206
  Beta virt. eigenvalues --   -0.02074  -0.01307  -0.01162  -0.00990  -0.00258
  Beta virt. eigenvalues --   -0.00168   0.00184   0.00396   0.00893   0.00913

 Mulliken charges and spin densities:
               1          2
     1  Na   0.437659  -0.017908
     2  Na   0.104612  -0.033152
     3  Na   0.228778   0.020357
     4  Na  -0.537996   0.485147
     5  Na   0.153670  -0.045652
     6  Na  -0.488571   0.683722
     7  Na   0.101848  -0.092513
 Sum of Mulliken charges =  -0.00000   1.00000

 Dipole moment (field-independent basis, Debye):
    X=             -0.1525    Y=              0.1730    Z=              0.0939  Tot=              0.2490
 Quadrupole moment (field-independent basis, Debye-Ang):
   XX=            -56.6624   YY=            -59.5923   ZZ=            -75.8960
   XY=             -0.8286   XZ=              1.1363   YZ=              1.2314

 Normal termination of Gaussian 16 at Tue Nov 28 23:18:53 2023.
