 Gaussian 16, Revision B.01,
 Gaussian 16:  ES64L-G16RevB.01 20-Dec-2017

 -------------------------
 #P B3LYP/6-311+g(d) force
 -------------------------

 -----
 DPGEN
 -----
 Symbolic Z-matrix:
 Charge =  0 Multiplicity = 2

                         Standard orientation:
 ---------------------------------------------------------------------
 Center     Atomic      Atomic             Coordinates (Angstroms)
 Number     Number       Type             X           Y           Z
 ---------------------------------------------------------------------
      1         11           0       -0.039891   -0.557776   -1.245215
      2         11           0       -1.273165   -1.816693    1.548135
      3         11           0        3.732549   -1.330269   -0.908359
      4         11           0       -2.122353    1.782782    0.550267
      5         11           0        1.803289   -0.042657    1.674191
      6         11           0       -3.226022   -0.983396   -1.214036
      7         11           0        1.125592    2.948009   -0.404983
 ---------------------------------------------------------------------

 SCF Done:  E(UB3LYP) =  -1136.12764974     A.U. after   21 cycles

 The electronic state is 2-A.
 Alpha  occ. eigenvalues --  -38.44361 -38.44057 -38.43966 -38.43960 -38.43844
 Alpha  occ. eigenvalues --  -38.43775 -38.43086  -2.20137  -2.19927  -2.19891
 Alpha  occ. eigenvalues --   -2.19782  -2.19699  -2.19652  -2.18877  -1.13804
 Alpha  occ. eigenvalues --   -1.13789  -1.13762  -1.13648  -1.13628  -1.13580
 Alpha  occ. eigenvalues --   -1.13558  -1.13533  -1.13478  -1.13464  -1.13452
 Alpha  occ. eigenvalues --   -1.13398  -1.13398  -1.13349  -1.13320  -1.13319
 Alpha  occ. eigenvalues --   -1.13298  -1.13250  -1.12556  -1.12535  -1.12511
 Alpha  occ. eigenvalues --   -0.18166  -0.13528  -0.11466  -0.10968
 Alpha virt. eigenvalues --   -0.06370  -0.05258  -0.04752  -0.03318  -0.02515
 Alpha virt. eigenvalues --   -0.02348  -0.02194  -0.01182  -0.00820  -0.00210
 Alpha virt. eigenvalues --    0.00157   0.00223   0.00326   0.00547   0.00671

  Beta  occ. eigenvalues --  -38.44332 -38.44027 -38.43959 -38.43938 -38.43810
  Beta  occ. eigenvalues --  -38.43711 -38.43086  -2.20081  -2.19873  -2.19843
  Beta  occ. eigenvalues --   -2.19782  -2.19641  -2.19537  -2.18878  -1.13764
  Beta  occ. eigenvalues --   -1.13750  -1.13727  -1.13607  -1.13572  -1.13546
  Beta  occ. eigenvalues --   -1.13517  -1.13503  -1.13454  -1.13443  -1.13440
  Beta  occ. eigenvalues --   -1.13401  -1.13353  -1.13292  -1.13272  -1.13247
  Beta  occ. eigenvalues --   -1.13215  -1.13158  -1.12551  -1.12536  -1.12512
  Beta  occ. eigenvalues --   -0.17494  -0.13271  -0.11263
  Beta virt. eigenvalues --   -0.07203  -0.06144  -0.05069  -0.04298  -0.03059
  Beta virt. eigenvalues --   -0.02108  -0.01980  -0.01587  -0.01022  -0.00535
  Beta virt. eigenvalues --   -0.00068   0.00246   0.00302   0.00458   0.00682

 Mulliken charges and spin densities:
               1          2
     1  Na  -1.003775   0.225506
     2  Na  -0.260153   0.380777
     3  Na  -0.019359   0.248869
     4  Na  -0.248273   0.128273
     5  Na   0.356041  -0.007805
     6  Na   1.256300   0.039115
     7  Na  -0.080781  -0.014734
 Sum of Mulliken charges =  -0.00000   1.00000

 Dipole moment (field-independent basis, Debye):
    X=             -0.3191    Y=             -0.2783    Z=             -0.0066  Tot=              0.4235
 Quadrupole moment (field-independent basis, Debye-Ang):
   XX=            -52.5159   YY=            -72.9033   ZZ=            -68.4208
   XY=              1.4288   XZ=             -0.8983   YZ=              0.7314

 Normal termination of Gaussian 16 at Tue Dec  5 11:54:59 2023.
