 Gaussian 16, Revision B.01,
 Gaussian 16:  ES64L-G16RevB.01 20-Dec-2017

 -------------------------
 #P B3LYP/6-311+g(d) force
 -------------------------

 -----
 DPGEN
 -----
 Symbolic Z-matrix:
 Charge =  0 Multiplicity = 2

                         Standard orientation:
 ---------------------------------------------------------------------
 Center     Atomic      Atomic             Coordinates (Angstroms)
 Number     Number       Type             X           Y           Z
 ---------------------------------------------------------------------
      1         11           0       -0.276098    0.045552    2.235397
      2         11           0       -0.545407   -2.726549   -0.134046
      3         11           0       -2.874597   -0.692449   -0.345966
      4         11           0        2.711743   -1.389389   -0.210063
      5         11           0       -1.844879    2.684152   -0.222291
      6         11           0        0.043629    0.195411   -1.237993
      7         11           0        2.785609    1.883273   -0.085039
 ---------------------------------------------------------------------

 SCF Done:  E(UB3LYP) =  -1136.13187974     A.U. after   20 cycles

 The electronic state is 2-A.
 Alpha  occ. eigenvalues --  -38.44299 -38.44014 -38.43918 -38.43693 -38.43645
 Alpha  occ. eigenvalues --  -38.42884 -38.42880  -2.20106  -2.19922  -2.19780
 Alpha  occ. eigenvalues --   -2.19511  -2.19506  -2.18949  -2.18799  -1.13781
 Alpha  occ. eigenvalues --   -1.13771  -1.13750  -1.13636  -1.13575  -1.13551
 Alpha  occ. eigenvalues --   -1.13472  -1.13434  -1.13407  -1.13194  -1.13174
 Alpha  occ. eigenvalues --   -1.13158  -1.13148  -1.13129  -1.13118  -1.12666
 Alpha  occ. eigenvalues --   -1.12613  -1.12585  -1.12465  -1.12440  -1.12434
 Alpha  occ. eigenvalues --   -0.18733  -0.13396  -0.12202  -0.10626
 Alpha virt. eigenvalues --   -0.05913  -0.05368  -0.04453  -0.03105  -0.02655
 Alpha virt. eigenvalues --   -0.02481  -0.01678  -0.01279  -0.00616  -0.00246
 Alpha virt. eigenvalues --   -0.00012   0.00321   0.00745   0.00809   0.00896

  Beta  occ. eigenvalues --  -38.44299 -38.44001 -38.43914 -38.43690 -38.43530
  Beta  occ. eigenvalues --  -38.42872 -38.42845  -2.20109  -2.19902  -2.19774
  Beta  occ. eigenvalues --   -2.19505  -2.19297  -2.18880  -2.18789  -1.13782
  Beta  occ. eigenvalues --   -1.13769  -1.13748  -1.13622  -1.13547  -1.13529
  Beta  occ. eigenvalues --   -1.13465  -1.13417  -1.13406  -1.13187  -1.13151
  Beta  occ. eigenvalues --   -1.13142  -1.13031  -1.12981  -1.12968  -1.12622
  Beta  occ. eigenvalues --   -1.12553  -1.12533  -1.12456  -1.12432  -1.12396
  Beta  occ. eigenvalues --   -0.18018  -0.13176  -0.11996
  Beta virt. eigenvalues --   -0.06604  -0.05895  -0.05306  -0.04447  -0.02387
  Beta virt. eigenvalues --   -0.01853  -0.01611  -0.01415  -0.01183  -0.00644
  Beta virt. eigenvalues --   -0.00274   0.00170   0.00375   0.00794   0.00845

 Mulliken charges and spin densities:
               1          2
     1  Na  -0.682098   0.718238
     2  Na   0.336166   0.140455
     3  Na   0.515077   0.122525
     4  Na   0.331757   0.071127
     5  Na   0.179277   0.045101
     6  Na  -0.884136  -0.122669
     7  Na   0.203958   0.025223
 Sum of Mulliken charges =  -0.00000   1.00000

 Dipole moment (field-independent basis, Debye):
    X=              0.2780    Y=              0.3766    Z=              0.2497  Tot=              0.5306
 Quadrupole moment (field-independent basis, Debye-Ang):
   XX=            -55.4045   YY=            -61.6766   ZZ=            -75.6655
   XY=              0.3654   XZ=              0.6330   YZ=              0.3730

 Normal termination of Gaussian 16 at Fri Dec  8 05:08:26 2023.
