 Gaussian 16, Revision B.01,
 Gaussian 16:  ES64L-G16RevB.01 20-Dec-2017

 -------------------------
 #P B3LYP/6-311+g(d) force
 -------------------------

 -----
 DPGEN
 -----
 Symbolic Z-matrix:
 Charge =  0 Multiplicity = 2

                         Standard orientation:
 ---------------------------------------------------------------------
 Center     Atomic      Atomic             Coordinates (Angstroms)
 Number     Number       Type             X           Y           Z
 ---------------------------------------------------------------------
      1         11           0       -3.512981   -0.629161    0.487918
      2         11           0       -0.775774   -0.116553    0.585080
      3         11           0       -0.027453   -1.177417   -1.839921
      4         11           0        1.418937    0.553928    1.970211
      5         11           0       -0.593532    2.457071   -0.649041
      6         11           0        1.830223    0.859948   -0.843150
      7         11           0        1.660581   -1.947816    0.288903
 ---------------------------------------------------------------------

 SCF Done:  E(UB3LYP) =  -1136.08243248     A.U. after   22 cycles

 The electronic state is 2-A.
 Alpha  occ. eigenvalues --  -38.44684 -38.44521 -38.44239 -38.43607 -38.43439
 Alpha  occ. eigenvalues --  -38.43180 -38.43169  -2.20766  -2.20355  -2.20327
 Alpha  occ. eigenvalues --   -2.19823  -2.19602  -2.19397  -2.19257  -1.14651
 Alpha  occ. eigenvalues --   -1.14439  -1.14302  -1.14226  -1.14146  -1.13973
 Alpha  occ. eigenvalues --   -1.13965  -1.13957  -1.13951  -1.13571  -1.13494
 Alpha  occ. eigenvalues --   -1.13432  -1.13334  -1.13219  -1.13205  -1.13037
 Alpha  occ. eigenvalues --   -1.12971  -1.12959  -1.12911  -1.12896  -1.12838
 Alpha  occ. eigenvalues --   -0.20759  -0.13200  -0.12567  -0.12129
 Alpha virt. eigenvalues --   -0.05683  -0.04189  -0.03719  -0.03364  -0.03002
 Alpha virt. eigenvalues --   -0.02905  -0.01338  -0.00676  -0.00399   0.00287
 Alpha virt. eigenvalues --    0.00580   0.00754   0.00808   0.00968   0.01075

  Beta  occ. eigenvalues --  -38.44604 -38.44510 -38.44174 -38.43566 -38.43420
  Beta  occ. eigenvalues --  -38.43154 -38.43143  -2.20622  -2.20336  -2.20212
  Beta  occ. eigenvalues --   -2.19756  -2.19545  -2.19367  -2.19237  -1.14554
  Beta  occ. eigenvalues --   -1.14341  -1.14194  -1.14163  -1.14118  -1.13955
  Beta  occ. eigenvalues --   -1.13948  -1.13875  -1.13856  -1.13524  -1.13441
  Beta  occ. eigenvalues --   -1.13346  -1.13288  -1.13183  -1.13130  -1.12991
  Beta  occ. eigenvalues --   -1.12949  -1.12941  -1.12891  -1.12840  -1.12819
  Beta  occ. eigenvalues --   -0.19857  -0.12887  -0.11935
  Beta virt. eigenvalues --   -0.08273  -0.05441  -0.04090  -0.03307  -0.02844
  Beta virt. eigenvalues --   -0.02504  -0.01869  -0.01250  -0.00590  -0.00159
  Beta virt. eigenvalues --    0.00337   0.00627   0.00779   0.00959   0.00987

 Mulliken charges and spin densities:
               1          2
     1  Na   0.052801  -0.078908
     2  Na  -0.590676  -0.195127
     3  Na   0.255464   0.433732
     4  Na   0.444152   0.263435
     5  Na  -0.198898   0.162259
     6  Na   0.212988   0.247016
     7  Na  -0.175832   0.167593
 Sum of Mulliken charges =  -0.00000   1.00000

 Dipole moment (field-independent basis, Debye):
    X=             -0.1980    Y=              0.1335    Z=             -0.0242  Tot=              0.2400
 Quadrupole moment (field-independent basis, Debye-Ang):
   XX=            -58.9745   YY=            -70.0114   ZZ=            -64.2268
   XY=             -0.7356   XZ=              0.8140   YZ=             -1.7179

 Normal termination of Gaussian 16 at Sat Dec  9 07:24:51 2023.
