 Gaussian 16, Revision B.01,
 Gaussian 16:  ES64L-G16RevB.01 20-Dec-2017

 -------------------------
 #P B3LYP/6-311+g(d) force
 -------------------------

 -----
 DPGEN
 -----
 Symbolic Z-matrix:
 Charge =  0 Multiplicity = 2

                         Standard orientation:
 ---------------------------------------------------------------------
 Center     Atomic      Atomic             Coordinates (Angstroms)
 Number     Number       Type             X           Y           Z
 ---------------------------------------------------------------------
      1         11           0       -1.776867    2.249643   -0.790218
      2         11           0        1.343987    2.432518   -0.158642
      3         11           0       -3.073422   -1.144749   -1.583600
      4         11           0        3.454872   -0.784887   -1.480105
      5         11           0        0.367956   -2.231351   -0.129563
      6         11           0        1.805033   -0.092505    2.009642
      7         11           0       -2.121560   -0.428669    2.132486
 ---------------------------------------------------------------------

 SCF Done:  E(UB3LYP) =  -1136.12278960     A.U. after   21 cycles

 The electronic state is 2-A.
 Alpha  occ. eigenvalues --  -38.45174 -38.44981 -38.44596 -38.44540 -38.43643
 Alpha  occ. eigenvalues --  -38.43181 -38.42767  -2.20944  -2.20752  -2.20435
 Alpha  occ. eigenvalues --   -2.20314  -2.19449  -2.18987  -2.18597  -1.14608
 Alpha  occ. eigenvalues --   -1.14596  -1.14569  -1.14420  -1.14394  -1.14366
 Alpha  occ. eigenvalues --   -1.14119  -1.14095  -1.14048  -1.13985  -1.13958
 Alpha  occ. eigenvalues --   -1.13937  -1.13152  -1.13140  -1.13056  -1.12684
 Alpha  occ. eigenvalues --   -1.12659  -1.12619  -1.12278  -1.12270  -1.12219
 Alpha  occ. eigenvalues --   -0.17283  -0.13306  -0.11490  -0.11372
 Alpha virt. eigenvalues --   -0.06228  -0.05647  -0.04833  -0.03354  -0.03022
 Alpha virt. eigenvalues --   -0.02728  -0.01862  -0.01161  -0.00487  -0.00279
 Alpha virt. eigenvalues --   -0.00099   0.00062   0.00293   0.00378   0.00453

  Beta  occ. eigenvalues --  -38.45129 -38.44930 -38.44555 -38.44502 -38.43640
  Beta  occ. eigenvalues --  -38.43176 -38.42767  -2.20863  -2.20657  -2.20362
  Beta  occ. eigenvalues --   -2.20241  -2.19448  -2.18980  -2.18597  -1.14551
  Beta  occ. eigenvalues --   -1.14541  -1.14501  -1.14353  -1.14327  -1.14306
  Beta  occ. eigenvalues --   -1.14072  -1.14046  -1.13977  -1.13932  -1.13906
  Beta  occ. eigenvalues --   -1.13893  -1.13149  -1.13120  -1.13055  -1.12680
  Beta  occ. eigenvalues --   -1.12648  -1.12614  -1.12272  -1.12267  -1.12221
  Beta  occ. eigenvalues --   -0.16649  -0.12958  -0.11341
  Beta virt. eigenvalues --   -0.07819  -0.05627  -0.05361  -0.04634  -0.03256
  Beta virt. eigenvalues --   -0.02300  -0.02175  -0.01661  -0.00776  -0.00398
  Beta virt. eigenvalues --   -0.00053   0.00074   0.00139   0.00354   0.00474

 Mulliken charges and spin densities:
               1          2
     1  Na  -0.091646   0.082961
     2  Na  -0.248913   0.018591
     3  Na   0.180475   0.149834
     4  Na   0.324331   0.143446
     5  Na  -0.553846   0.212467
     6  Na   0.280705   0.304876
     7  Na   0.108894   0.087825
 Sum of Mulliken charges =  -0.00000   1.00000

 Dipole moment (field-independent basis, Debye):
    X=              0.0825    Y=             -0.8094    Z=              0.0988  Tot=              0.8196
 Quadrupole moment (field-independent basis, Debye-Ang):
   XX=            -55.3607   YY=            -78.1165   ZZ=            -62.6847
   XY=              0.9003   XZ=             -2.0917   YZ=              2.5455

 Normal termination of Gaussian 16 at Mon Dec  4 02:21:50 2023.
