 Gaussian 16, Revision B.01,
 Gaussian 16:  ES64L-G16RevB.01 20-Dec-2017

 -------------------------
 #P B3LYP/6-311+g(d) force
 -------------------------

 -----
 DPGEN
 -----
 Symbolic Z-matrix:
 Charge =  0 Multiplicity = 2

                         Standard orientation:
 ---------------------------------------------------------------------
 Center     Atomic      Atomic             Coordinates (Angstroms)
 Number     Number       Type             X           Y           Z
 ---------------------------------------------------------------------
      1         11           0        0.303052   -2.813019   -0.020095
      2         11           0        2.935397   -1.263335   -0.281984
      3         11           0        0.084239   -0.130757    1.811103
      4         11           0        2.197825    2.539633    0.034939
      5         11           0       -1.859466    2.316645    0.097409
      6         11           0       -0.317993    0.372804   -1.554216
      7         11           0       -3.343053   -1.021971   -0.087156
 ---------------------------------------------------------------------

 SCF Done:  E(UB3LYP) =  -1136.13119190     A.U. after   21 cycles

 The electronic state is 2-A.
 Alpha  occ. eigenvalues --  -38.44533 -38.44153 -38.44107 -38.43992 -38.43303
 Alpha  occ. eigenvalues --  -38.43217 -38.43037  -2.20309  -2.20015  -2.19950
 Alpha  occ. eigenvalues --   -2.19764  -2.19193  -2.19181  -2.18967  -1.13984
 Alpha  occ. eigenvalues --   -1.13963  -1.13951  -1.13769  -1.13675  -1.13649
 Alpha  occ. eigenvalues --   -1.13607  -1.13604  -1.13584  -1.13441  -1.13422
 Alpha  occ. eigenvalues --   -1.13406  -1.12904  -1.12879  -1.12860  -1.12834
 Alpha  occ. eigenvalues --   -1.12817  -1.12766  -1.12648  -1.12588  -1.12570
 Alpha  occ. eigenvalues --   -0.18459  -0.13201  -0.12297  -0.10127
 Alpha virt. eigenvalues --   -0.06016  -0.05611  -0.04673  -0.03102  -0.02585
 Alpha virt. eigenvalues --   -0.02040  -0.01951  -0.01410  -0.00631  -0.00439
 Alpha virt. eigenvalues --   -0.00004   0.00307   0.00728   0.00766   0.00854

  Beta  occ. eigenvalues --  -38.44532 -38.44145 -38.44100 -38.43992 -38.43296
  Beta  occ. eigenvalues --  -38.43160 -38.42948  -2.20309  -2.20004  -2.19939
  Beta  occ. eigenvalues --   -2.19767  -2.19183  -2.19077  -2.18803  -1.13974
  Beta  occ. eigenvalues --   -1.13959  -1.13953  -1.13756  -1.13645  -1.13642
  Beta  occ. eigenvalues --   -1.13601  -1.13580  -1.13578  -1.13427  -1.13425
  Beta  occ. eigenvalues --   -1.13409  -1.12887  -1.12825  -1.12816  -1.12804
  Beta  occ. eigenvalues --   -1.12757  -1.12691  -1.12538  -1.12472  -1.12453
  Beta  occ. eigenvalues --   -0.17751  -0.12959  -0.12089
  Beta virt. eigenvalues --   -0.06287  -0.05999  -0.05545  -0.04654  -0.02318
  Beta virt. eigenvalues --   -0.01899  -0.01865  -0.01346  -0.01048  -0.00657
  Beta virt. eigenvalues --   -0.00474   0.00143   0.00344   0.00769   0.00784

 Mulliken charges and spin densities:
               1          2
     1  Na   0.192401  -0.051515
     2  Na   0.006500  -0.009430
     3  Na  -0.238018   0.752969
     4  Na   0.000054  -0.096625
     5  Na   0.230105  -0.127773
     6  Na  -0.303955   0.613805
     7  Na   0.112913  -0.081431
 Sum of Mulliken charges =  -0.00000   1.00000

 Dipole moment (field-independent basis, Debye):
    X=             -0.2686    Y=              0.1672    Z=              0.0640  Tot=              0.3228
 Quadrupole moment (field-independent basis, Debye-Ang):
   XX=            -52.0964   YY=            -61.4056   ZZ=            -77.7244
   XY=              1.3689   XZ=             -0.9000   YZ=              1.2015

 Normal termination of Gaussian 16 at Sun Dec  3 13:34:54 2023.
