 Gaussian 16, Revision B.01,
 Gaussian 16:  ES64L-G16RevB.01 20-Dec-2017

 -------------------------
 #P B3LYP/6-311+g(d) force
 -------------------------

 -----
 DPGEN
 -----
 Symbolic Z-matrix:
 Charge =  0 Multiplicity = 2

                         Standard orientation:
 ---------------------------------------------------------------------
 Center     Atomic      Atomic             Coordinates (Angstroms)
 Number     Number       Type             X           Y           Z
 ---------------------------------------------------------------------
      1         11           0        1.550101    1.622435    0.180981
      2         11           0       -1.148202    1.935332    0.017699
      3         11           0        2.327465   -0.931187    0.069337
      4         11           0       -0.187838   -0.220151    1.907429
      5         11           0        0.203583    0.194333   -1.852070
      6         11           0       -0.275554   -2.109900   -0.220989
      7         11           0       -2.469555   -0.490862   -0.102386
 ---------------------------------------------------------------------

 SCF Done:  E(UB3LYP) =  -1136.07733581     A.U. after   19 cycles

 The electronic state is 2-A.
 Alpha  occ. eigenvalues --  -38.44402 -38.44325 -38.43928 -38.43810 -38.43804
 Alpha  occ. eigenvalues --  -38.43489 -38.43426  -2.20632  -2.20509  -2.20044
 Alpha  occ. eigenvalues --   -2.20017  -2.19905  -2.19655  -2.19608  -1.14458
 Alpha  occ. eigenvalues --   -1.14345  -1.14284  -1.14264  -1.14189  -1.14152
 Alpha  occ. eigenvalues --   -1.14024  -1.13897  -1.13831  -1.13764  -1.13638
 Alpha  occ. eigenvalues --   -1.13630  -1.13584  -1.13492  -1.13358  -1.13258
 Alpha  occ. eigenvalues --   -1.13239  -1.13225  -1.13215  -1.13165  -1.13094
 Alpha  occ. eigenvalues --   -0.21862  -0.13814  -0.12982  -0.12663
 Alpha virt. eigenvalues --   -0.05090  -0.04162  -0.04051  -0.03837  -0.03385
 Alpha virt. eigenvalues --   -0.03147  -0.00891  -0.00408  -0.00173   0.00344
 Alpha virt. eigenvalues --    0.00871   0.00915   0.01094   0.01209   0.01291

  Beta  occ. eigenvalues --  -38.44305 -38.44227 -38.43917 -38.43800 -38.43787
  Beta  occ. eigenvalues --  -38.43474 -38.43407  -2.20458  -2.20333  -2.20030
  Beta  occ. eigenvalues --   -2.19996  -2.19890  -2.19636  -2.19583  -1.14367
  Beta  occ. eigenvalues --   -1.14226  -1.14176  -1.14154  -1.14065  -1.14036
  Beta  occ. eigenvalues --   -1.14004  -1.13893  -1.13805  -1.13741  -1.13629
  Beta  occ. eigenvalues --   -1.13570  -1.13508  -1.13429  -1.13352  -1.13240
  Beta  occ. eigenvalues --   -1.13210  -1.13175  -1.13158  -1.13137  -1.13087
  Beta  occ. eigenvalues --   -0.20978  -0.13434  -0.12598
  Beta virt. eigenvalues --   -0.08434  -0.05111  -0.04151  -0.04004  -0.02866
  Beta virt. eigenvalues --   -0.02451  -0.02066  -0.00821  -0.00366  -0.00006
  Beta virt. eigenvalues --    0.00365   0.00867   0.00892   0.01122   0.01209

 Mulliken charges and spin densities:
               1          2
     1  Na   0.113665   0.075249
     2  Na   0.089259   0.033129
     3  Na  -0.003105  -0.033300
     4  Na  -0.220524   0.461255
     5  Na  -0.147842   0.424997
     6  Na   0.134629   0.060159
     7  Na   0.033918  -0.021490
 Sum of Mulliken charges =  -0.00000   1.00000

 Dipole moment (field-independent basis, Debye):
    X=             -0.0356    Y=             -0.1163    Z=              0.1133  Tot=              0.1662
 Quadrupole moment (field-independent basis, Debye-Ang):
   XX=            -62.5412   YY=            -70.4186   ZZ=            -66.2768
   XY=             -0.4117   XZ=              0.6404   YZ=              0.6085

 Normal termination of Gaussian 16 at Sat Dec  9 07:06:26 2023.
