 Gaussian 16, Revision B.01,
 Gaussian 16:  ES64L-G16RevB.01 20-Dec-2017

 -------------------------
 #P B3LYP/6-311+g(d) force
 -------------------------

 -----
 DPGEN
 -----
 Symbolic Z-matrix:
 Charge =  0 Multiplicity = 2

                         Standard orientation:
 ---------------------------------------------------------------------
 Center     Atomic      Atomic             Coordinates (Angstroms)
 Number     Number       Type             X           Y           Z
 ---------------------------------------------------------------------
      1         11           0       -1.787041   -2.212834   -0.053703
      2         11           0       -2.960048    1.144329   -0.102016
      3         11           0        2.935059    0.695682    0.091266
      4         11           0        0.415935    2.834742   -0.181179
      5         11           0       -0.161782    0.080991   -1.516247
      6         11           0        1.618418   -2.340106   -0.434250
      7         11           0       -0.060541   -0.202804    2.196130
 ---------------------------------------------------------------------

 SCF Done:  E(UB3LYP) =  -1136.13797702     A.U. after   19 cycles

 The electronic state is 2-A.
 Alpha  occ. eigenvalues --  -38.43912 -38.43821 -38.43661 -38.43467 -38.43383
 Alpha  occ. eigenvalues --  -38.43275 -38.42994  -2.19738  -2.19695  -2.19524
 Alpha  occ. eigenvalues --   -2.19359  -2.19252  -2.19164  -2.19052  -1.13424
 Alpha  occ. eigenvalues --   -1.13397  -1.13376  -1.13355  -1.13323  -1.13312
 Alpha  occ. eigenvalues --   -1.13199  -1.13188  -1.13182  -1.13081  -1.13021
 Alpha  occ. eigenvalues --   -1.12990  -1.12981  -1.12904  -1.12884  -1.12866
 Alpha  occ. eigenvalues --   -1.12809  -1.12790  -1.12714  -1.12673  -1.12655
 Alpha  occ. eigenvalues --   -0.18934  -0.12991  -0.12590  -0.10957
 Alpha virt. eigenvalues --   -0.05473  -0.05054  -0.04615  -0.03164  -0.02918
 Alpha virt. eigenvalues --   -0.02757  -0.01429  -0.01053  -0.00228  -0.00175
 Alpha virt. eigenvalues --   -0.00008   0.00357   0.00838   0.00905   0.00932

  Beta  occ. eigenvalues --  -38.43910 -38.43716 -38.43658 -38.43460 -38.43379
  Beta  occ. eigenvalues --  -38.43264 -38.42936  -2.19737  -2.19522  -2.19500
  Beta  occ. eigenvalues --   -2.19350  -2.19248  -2.19148  -2.18948  -1.13417
  Beta  occ. eigenvalues --   -1.13385  -1.13376  -1.13230  -1.13201  -1.13191
  Beta  occ. eigenvalues --   -1.13184  -1.13175  -1.13154  -1.13068  -1.12990
  Beta  occ. eigenvalues --   -1.12979  -1.12973  -1.12884  -1.12869  -1.12859
  Beta  occ. eigenvalues --   -1.12785  -1.12779  -1.12644  -1.12603  -1.12582
  Beta  occ. eigenvalues --   -0.18199  -0.12772  -0.12337
  Beta virt. eigenvalues --   -0.06963  -0.05463  -0.05035  -0.04586  -0.02358
  Beta virt. eigenvalues --   -0.02141  -0.01628  -0.01354  -0.00983  -0.00275
  Beta virt. eigenvalues --   -0.00221   0.00136   0.00383   0.00885   0.00915

 Mulliken charges and spin densities:
               1          2
     1  Na   0.355433   0.032282
     2  Na   0.158302  -0.038923
     3  Na   0.164006   0.041280
     4  Na   0.204380  -0.024792
     5  Na  -0.485217   0.191043
     6  Na   0.301471   0.043722
     7  Na  -0.698375   0.755388
 Sum of Mulliken charges =  -0.00000   1.00000

 Dipole moment (field-independent basis, Debye):
    X=             -0.1925    Y=              0.0831    Z=              0.3054  Tot=              0.3705
 Quadrupole moment (field-independent basis, Debye-Ang):
   XX=            -57.2814   YY=            -62.8854   ZZ=            -73.5509
   XY=             -0.3985   XZ=             -0.1341   YZ=              0.6749

 Normal termination of Gaussian 16 at Thu Dec  7 17:51:58 2023.
