 Gaussian 16, Revision B.01,
 Gaussian 16:  ES64L-G16RevB.01 20-Dec-2017

 -------------------------
 #P B3LYP/6-311+g(d) force
 -------------------------

 -----
 DPGEN
 -----
 Symbolic Z-matrix:
 Charge =  0 Multiplicity = 2

                         Standard orientation:
 ---------------------------------------------------------------------
 Center     Atomic      Atomic             Coordinates (Angstroms)
 Number     Number       Type             X           Y           Z
 ---------------------------------------------------------------------
      1         11           0       -0.301286   -0.504269    1.642403
      2         11           0       -2.829798   -1.924213   -0.423955
      3         11           0       -3.042023    1.257709    0.143750
      4         11           0        0.268200    2.945519   -0.042705
      5         11           0        1.714728   -2.699952   -0.158861
      6         11           0        0.534195    0.420889   -1.364451
      7         11           0        3.655984    0.504317    0.203819
 ---------------------------------------------------------------------

 SCF Done:  E(UB3LYP) =  -1136.12257192     A.U. after   26 cycles

 The electronic state is 2-A.
 Alpha  occ. eigenvalues --  -38.45641 -38.44431 -38.44031 -38.43860 -38.43716
 Alpha  occ. eigenvalues --  -38.43311 -38.42629  -2.21397  -2.20260  -2.19831
 Alpha  occ. eigenvalues --   -2.19690  -2.19680  -2.19176  -2.18562  -1.15076
 Alpha  occ. eigenvalues --   -1.15045  -1.15036  -1.13937  -1.13932  -1.13897
 Alpha  occ. eigenvalues --   -1.13518  -1.13499  -1.13475  -1.13460  -1.13375
 Alpha  occ. eigenvalues --   -1.13341  -1.13336  -1.13315  -1.13276  -1.12866
 Alpha  occ. eigenvalues --   -1.12808  -1.12776  -1.12266  -1.12179  -1.12166
 Alpha  occ. eigenvalues --   -0.18184  -0.13541  -0.12137  -0.09531
 Alpha virt. eigenvalues --   -0.06843  -0.05639  -0.04618  -0.03066  -0.02539
 Alpha virt. eigenvalues --   -0.02410  -0.01535  -0.01458  -0.00947  -0.00630
 Alpha virt. eigenvalues --   -0.00048   0.00201   0.00617   0.00688   0.00765

  Beta  occ. eigenvalues --  -38.45639 -38.44423 -38.44027 -38.43833 -38.43684
  Beta  occ. eigenvalues --  -38.43306 -38.42544  -2.21395  -2.20249  -2.19827
  Beta  occ. eigenvalues --   -2.19635  -2.19631  -2.19170  -2.18406  -1.15059
  Beta  occ. eigenvalues --   -1.15045  -1.15035  -1.13933  -1.13911  -1.13875
  Beta  occ. eigenvalues --   -1.13514  -1.13478  -1.13460  -1.13435  -1.13324
  Beta  occ. eigenvalues --   -1.13311  -1.13295  -1.13275  -1.13239  -1.12856
  Beta  occ. eigenvalues --   -1.12793  -1.12765  -1.12160  -1.12072  -1.12049
  Beta  occ. eigenvalues --   -0.17572  -0.13224  -0.11914
  Beta virt. eigenvalues --   -0.06707  -0.05905  -0.05588  -0.04541  -0.02526
  Beta virt. eigenvalues --   -0.02288  -0.01778  -0.01373  -0.00941  -0.00796
  Beta virt. eigenvalues --   -0.00561   0.00135   0.00296   0.00689   0.00720

 Mulliken charges and spin densities:
               1          2
     1  Na  -0.110248   0.509841
     2  Na  -0.136559   0.163654
     3  Na   0.246598   0.105857
     4  Na   0.104797  -0.143273
     5  Na   0.008759  -0.090548
     6  Na  -0.226673   0.554153
     7  Na   0.113326  -0.099684
 Sum of Mulliken charges =  -0.00000   1.00000

 Dipole moment (field-independent basis, Debye):
    X=              0.9736    Y=              0.0826    Z=              0.4825  Tot=              1.0897
 Quadrupole moment (field-independent basis, Debye-Ang):
   XX=            -50.8408   YY=            -62.5014   ZZ=            -78.1157
   XY=             -1.5225   XZ=              1.7483   YZ=              2.9579

 Normal termination of Gaussian 16 at Thu Dec  7 06:02:00 2023.
