 Gaussian 16, Revision B.01,
 Gaussian 16:  ES64L-G16RevB.01 20-Dec-2017

 -------------------------
 #P B3LYP/6-311+g(d) force
 -------------------------

 -----
 DPGEN
 -----
 Symbolic Z-matrix:
 Charge =  0 Multiplicity = 2

                         Standard orientation:
 ---------------------------------------------------------------------
 Center     Atomic      Atomic             Coordinates (Angstroms)
 Number     Number       Type             X           Y           Z
 ---------------------------------------------------------------------
      1         11           0        1.588618   -0.434601    1.310785
      2         11           0       -0.731485   -2.640089   -0.224668
      3         11           0       -1.864301    0.567781    1.292436
      4         11           0        2.142024    2.277482   -0.825092
      5         11           0       -0.666288    3.465864   -0.237068
      6         11           0       -3.943268   -1.145089   -0.855530
      7         11           0        3.474701   -2.091348   -0.460863
 ---------------------------------------------------------------------

 SCF Done:  E(UB3LYP) =  -1136.12133289     A.U. after   19 cycles

 The electronic state is 2-A.
 Alpha  occ. eigenvalues --  -38.45039 -38.44707 -38.44148 -38.44119 -38.43755
 Alpha  occ. eigenvalues --  -38.43578 -38.43461  -2.20813  -2.20506  -2.19962
 Alpha  occ. eigenvalues --   -2.19943  -2.19567  -2.19492  -2.19325  -1.14513
 Alpha  occ. eigenvalues --   -1.14503  -1.14414  -1.14201  -1.14153  -1.14138
 Alpha  occ. eigenvalues --   -1.13714  -1.13625  -1.13620  -1.13600  -1.13589
 Alpha  occ. eigenvalues --   -1.13512  -1.13226  -1.13218  -1.13188  -1.13168
 Alpha  occ. eigenvalues --   -1.13151  -1.13129  -1.12998  -1.12992  -1.12940
 Alpha  occ. eigenvalues --   -0.17257  -0.13428  -0.12992  -0.09983
 Alpha virt. eigenvalues --   -0.06509  -0.06192  -0.04223  -0.03723  -0.02963
 Alpha virt. eigenvalues --   -0.02003  -0.01878  -0.01353  -0.01144  -0.00927
 Alpha virt. eigenvalues --   -0.00098   0.00210   0.00427   0.00541   0.00616

  Beta  occ. eigenvalues --  -38.45038 -38.44697 -38.44147 -38.44086 -38.43701
  Beta  occ. eigenvalues --  -38.43539 -38.43417  -2.20814  -2.20487  -2.19964
  Beta  occ. eigenvalues --   -2.19881  -2.19465  -2.19425  -2.19247  -1.14518
  Beta  occ. eigenvalues --   -1.14483  -1.14410  -1.14188  -1.14140  -1.14122
  Beta  occ. eigenvalues --   -1.13697  -1.13626  -1.13600  -1.13562  -1.13550
  Beta  occ. eigenvalues --   -1.13482  -1.13154  -1.13148  -1.13127  -1.13122
  Beta  occ. eigenvalues --   -1.13097  -1.13057  -1.12947  -1.12926  -1.12876
  Beta  occ. eigenvalues --   -0.16665  -0.13066  -0.12743
  Beta virt. eigenvalues --   -0.06509  -0.06284  -0.06036  -0.03941  -0.03309
  Beta virt. eigenvalues --   -0.02506  -0.01884  -0.01587  -0.00979  -0.00854
  Beta virt. eigenvalues --   -0.00812   0.00129   0.00340   0.00480   0.00677

 Mulliken charges and spin densities:
               1          2
     1  Na   0.344504   0.181251
     2  Na  -0.406765   0.011256
     3  Na   0.016011   0.187493
     4  Na  -0.253326   0.235239
     5  Na   0.025371  -0.019314
     6  Na   0.149027   0.328920
     7  Na   0.125178   0.075155
 Sum of Mulliken charges =  -0.00000   1.00000

 Dipole moment (field-independent basis, Debye):
    X=              0.4592    Y=             -0.5122    Z=             -0.2730  Tot=              0.7401
 Quadrupole moment (field-independent basis, Debye-Ang):
   XX=            -61.1043   YY=            -63.7341   ZZ=            -73.1327
   XY=             -8.5793   XZ=             -1.3590   YZ=              1.9279

 Normal termination of Gaussian 16 at Tue Nov 28 23:57:44 2023.
