 Gaussian 16, Revision B.01,
 Gaussian 16:  ES64L-G16RevB.01 20-Dec-2017

 -------------------------
 #P B3LYP/6-311+g(d) force
 -------------------------

 -----
 DPGEN
 -----
 Symbolic Z-matrix:
 Charge =  0 Multiplicity = 2

                         Standard orientation:
 ---------------------------------------------------------------------
 Center     Atomic      Atomic             Coordinates (Angstroms)
 Number     Number       Type             X           Y           Z
 ---------------------------------------------------------------------
      1         11           0        3.765216   -0.099061   -1.156048
      2         11           0       -0.263640   -0.753803   -1.415787
      3         11           0       -1.922928    2.518768   -0.750001
      4         11           0       -1.581873    0.003098    1.807157
      5         11           0        1.332000   -1.845279    1.234930
      6         11           0        1.584978    1.776968    1.014997
      7         11           0       -2.913753   -1.600691   -0.735249
 ---------------------------------------------------------------------

 SCF Done:  E(UB3LYP) =  -1136.12443849     A.U. after   22 cycles

 The electronic state is 2-A.
 Alpha  occ. eigenvalues --  -38.44759 -38.44038 -38.43975 -38.43911 -38.43785
 Alpha  occ. eigenvalues --  -38.43579 -38.43282  -2.20538  -2.19920  -2.19832
 Alpha  occ. eigenvalues --   -2.19820  -2.19740  -2.19389  -2.19070  -1.14202
 Alpha  occ. eigenvalues --   -1.14194  -1.14153  -1.13763  -1.13600  -1.13565
 Alpha  occ. eigenvalues --   -1.13517  -1.13512  -1.13484  -1.13455  -1.13435
 Alpha  occ. eigenvalues --   -1.13414  -1.13400  -1.13351  -1.13312  -1.13084
 Alpha  occ. eigenvalues --   -1.13070  -1.12999  -1.12753  -1.12721  -1.12700
 Alpha  occ. eigenvalues --   -0.18334  -0.13556  -0.11338  -0.11171
 Alpha virt. eigenvalues --   -0.06267  -0.05244  -0.04569  -0.03167  -0.02764
 Alpha virt. eigenvalues --   -0.02602  -0.01998  -0.00997  -0.00876  -0.00049
 Alpha virt. eigenvalues --    0.00141   0.00244   0.00318   0.00588   0.00755

  Beta  occ. eigenvalues --  -38.44725 -38.44026 -38.43935 -38.43857 -38.43752
  Beta  occ. eigenvalues --  -38.43571 -38.43269  -2.20472  -2.19900  -2.19762
  Beta  occ. eigenvalues --   -2.19725  -2.19682  -2.19378  -2.19048  -1.14154
  Beta  occ. eigenvalues --   -1.14149  -1.14113  -1.13737  -1.13576  -1.13517
  Beta  occ. eigenvalues --   -1.13494  -1.13445  -1.13423  -1.13387  -1.13377
  Beta  occ. eigenvalues --   -1.13349  -1.13343  -1.13308  -1.13276  -1.13073
  Beta  occ. eigenvalues --   -1.13043  -1.12995  -1.12733  -1.12708  -1.12683
  Beta  occ. eigenvalues --   -0.17604  -0.13254  -0.11017
  Beta virt. eigenvalues --   -0.07513  -0.05994  -0.05087  -0.04141  -0.02985
  Beta virt. eigenvalues --   -0.02186  -0.01932  -0.01661  -0.00869  -0.00549
  Beta virt. eigenvalues --    0.00070   0.00220   0.00284   0.00414   0.00649

 Mulliken charges and spin densities:
               1          2
     1  Na   0.229887   0.097772
     2  Na  -0.459338   0.433962
     3  Na  -0.247863  -0.003143
     4  Na   0.364911   0.249915
     5  Na   0.024086   0.159822
     6  Na  -0.335946   0.076579
     7  Na   0.424262  -0.014907
 Sum of Mulliken charges =  -0.00000   1.00000

 Dipole moment (field-independent basis, Debye):
    X=              0.4401    Y=             -0.2950    Z=             -0.0227  Tot=              0.5303
 Quadrupole moment (field-independent basis, Debye-Ang):
   XX=            -52.3276   YY=            -73.9984   ZZ=            -67.2677
   XY=              0.7778   XZ=             -1.7060   YZ=             -2.6062

 Normal termination of Gaussian 16 at Tue Dec  5 19:08:18 2023.
