 Gaussian 16, Revision B.01,
 Gaussian 16:  ES64L-G16RevB.01 20-Dec-2017

 -------------------------
 #P B3LYP/6-311+g(d) force
 -------------------------

 -----
 DPGEN
 -----
 Symbolic Z-matrix:
 Charge =  0 Multiplicity = 2

                         Standard orientation:
 ---------------------------------------------------------------------
 Center     Atomic      Atomic             Coordinates (Angstroms)
 Number     Number       Type             X           Y           Z
 ---------------------------------------------------------------------
      1         11           0        1.243473    2.639601   -0.282476
      2         11           0       -2.341245    2.168387    0.026521
      3         11           0        3.234398    0.180675    0.085034
      4         11           0        1.336779   -2.782512   -0.033841
      5         11           0       -0.263922   -0.488645   -1.464703
      6         11           0       -3.001991   -1.590391   -0.051309
      7         11           0       -0.207492   -0.127114    1.720773
 ---------------------------------------------------------------------

 SCF Done:  E(UB3LYP) =  -1136.13284741     A.U. after   21 cycles

 The electronic state is 2-A.
 Alpha  occ. eigenvalues --  -38.44691 -38.44268 -38.44186 -38.43810 -38.43232
 Alpha  occ. eigenvalues --  -38.42916 -38.42885  -2.20495  -2.20102  -2.19992
 Alpha  occ. eigenvalues --   -2.19658  -2.19084  -2.18879  -2.18859  -1.14177
 Alpha  occ. eigenvalues --   -1.14151  -1.14127  -1.13788  -1.13763  -1.13741
 Alpha  occ. eigenvalues --   -1.13667  -1.13657  -1.13627  -1.13365  -1.13314
 Alpha  occ. eigenvalues --   -1.13281  -1.12762  -1.12744  -1.12727  -1.12649
 Alpha  occ. eigenvalues --   -1.12515  -1.12504  -1.12495  -1.12473  -1.12462
 Alpha  occ. eigenvalues --   -0.18558  -0.13257  -0.12440  -0.09934
 Alpha virt. eigenvalues --   -0.06233  -0.05610  -0.04598  -0.03004  -0.02555
 Alpha virt. eigenvalues --   -0.01969  -0.01828  -0.01505  -0.00727  -0.00414
 Alpha virt. eigenvalues --    0.00032   0.00318   0.00720   0.00755   0.00869

  Beta  occ. eigenvalues --  -38.44685 -38.44266 -38.44182 -38.43804 -38.43226
  Beta  occ. eigenvalues --  -38.42833 -38.42826  -2.20488  -2.20101  -2.19988
  Beta  occ. eigenvalues --   -2.19651  -2.19074  -2.18771  -2.18708  -1.14163
  Beta  occ. eigenvalues --   -1.14135  -1.14124  -1.13791  -1.13746  -1.13739
  Beta  occ. eigenvalues --   -1.13657  -1.13641  -1.13628  -1.13357  -1.13286
  Beta  occ. eigenvalues --   -1.13279  -1.12757  -1.12727  -1.12711  -1.12559
  Beta  occ. eigenvalues --   -1.12432  -1.12415  -1.12411  -1.12366  -1.12352
  Beta  occ. eigenvalues --   -0.17872  -0.13031  -0.12193
  Beta virt. eigenvalues --   -0.06224  -0.06095  -0.05577  -0.04569  -0.02250
  Beta virt. eigenvalues --   -0.01876  -0.01832  -0.01442  -0.00868  -0.00784
  Beta virt. eigenvalues --   -0.00437   0.00187   0.00362   0.00728   0.00795

 Mulliken charges and spin densities:
               1          2
     1  Na  -0.012982  -0.012577
     2  Na   0.095512  -0.019829
     3  Na   0.096574   0.028464
     4  Na   0.398336  -0.073494
     5  Na  -0.428902   0.520454
     6  Na   0.233330  -0.114246
     7  Na  -0.381867   0.671228
 Sum of Mulliken charges =  -0.00000   1.00000

 Dipole moment (field-independent basis, Debye):
    X=             -0.4579    Y=             -0.3083    Z=              0.1198  Tot=              0.5648
 Quadrupole moment (field-independent basis, Debye-Ang):
   XX=            -50.8530   YY=            -60.7001   ZZ=            -78.7854
   XY=             -0.5132   XZ=              0.0166   YZ=             -0.7839

 Normal termination of Gaussian 16 at Thu Dec  7 18:23:01 2023.
