 Gaussian 16, Revision B.01,
 Gaussian 16:  ES64L-G16RevB.01 20-Dec-2017

 -------------------------
 #P B3LYP/6-311+g(d) force
 -------------------------

 -----
 DPGEN
 -----
 Symbolic Z-matrix:
 Charge =  0 Multiplicity = 2

                         Standard orientation:
 ---------------------------------------------------------------------
 Center     Atomic      Atomic             Coordinates (Angstroms)
 Number     Number       Type             X           Y           Z
 ---------------------------------------------------------------------
      1         11           0        3.662290   -1.364467   -0.521113
      2         11           0       -1.285681    1.537031    1.707666
      3         11           0        1.491191    0.526983    0.969906
      4         11           0       -3.107553   -1.518112   -0.379688
      5         11           0       -0.046507   -2.511369    0.662445
      6         11           0        0.432399    3.274885   -0.815381
      7         11           0       -1.146139    0.055048   -1.623835
 ---------------------------------------------------------------------

 SCF Done:  E(UB3LYP) =  -1136.12535104     A.U. after   19 cycles

 The electronic state is 2-A.
 Alpha  occ. eigenvalues --  -38.44299 -38.43968 -38.43940 -38.43893 -38.43838
 Alpha  occ. eigenvalues --  -38.43763 -38.42837  -2.20126  -2.19863  -2.19778
 Alpha  occ. eigenvalues --   -2.19724  -2.19716  -2.19660  -2.18812  -1.13833
 Alpha  occ. eigenvalues --   -1.13808  -1.13782  -1.13729  -1.13486  -1.13484
 Alpha  occ. eigenvalues --   -1.13422  -1.13407  -1.13399  -1.13387  -1.13382
 Alpha  occ. eigenvalues --   -1.13380  -1.13371  -1.13350  -1.13348  -1.13295
 Alpha  occ. eigenvalues --   -1.13286  -1.13241  -1.12526  -1.12485  -1.12410
 Alpha  occ. eigenvalues --   -0.18331  -0.13084  -0.12476  -0.10699
 Alpha virt. eigenvalues --   -0.05944  -0.05347  -0.04468  -0.03339  -0.02983
 Alpha virt. eigenvalues --   -0.02296  -0.01607  -0.01410  -0.00673  -0.00128
 Alpha virt. eigenvalues --    0.00134   0.00264   0.00561   0.00755   0.00806

  Beta  occ. eigenvalues --  -38.44288 -38.43962 -38.43933 -38.43871 -38.43786
  Beta  occ. eigenvalues --  -38.43697 -38.42812  -2.20109  -2.19852  -2.19710
  Beta  occ. eigenvalues --   -2.19687  -2.19678  -2.19541  -2.18772  -1.13822
  Beta  occ. eigenvalues --   -1.13777  -1.13750  -1.13720  -1.13478  -1.13460
  Beta  occ. eigenvalues --   -1.13396  -1.13368  -1.13364  -1.13356  -1.13347
  Beta  occ. eigenvalues --   -1.13340  -1.13328  -1.13325  -1.13292  -1.13243
  Beta  occ. eigenvalues --   -1.13203  -1.13157  -1.12492  -1.12418  -1.12391
  Beta  occ. eigenvalues --   -0.17638  -0.12859  -0.12309
  Beta virt. eigenvalues --   -0.06906  -0.05668  -0.05177  -0.04345  -0.02719
  Beta virt. eigenvalues --   -0.02599  -0.01497  -0.01475  -0.01250  -0.00385
  Beta virt. eigenvalues --   -0.00045   0.00234   0.00332   0.00679   0.00801

 Mulliken charges and spin densities:
               1          2
     1  Na   0.075309  -0.154492
     2  Na   0.007995   0.248778
     3  Na   0.156201   0.631953
     4  Na   0.772647   0.099332
     5  Na  -0.293947  -0.019440
     6  Na  -0.111428  -0.038725
     7  Na  -0.606777   0.232594
 Sum of Mulliken charges =  -0.00000   1.00000

 Dipole moment (field-independent basis, Debye):
    X=             -0.3557    Y=             -0.0579    Z=             -0.1026  Tot=              0.3747
 Quadrupole moment (field-independent basis, Debye-Ang):
   XX=            -59.5741   YY=            -60.9770   ZZ=            -72.5703
   XY=              1.3526   XZ=             -4.7266   YZ=             -1.5244

 Normal termination of Gaussian 16 at Tue Dec  5 14:36:42 2023.
