 Gaussian 16, Revision B.01,
 Gaussian 16:  ES64L-G16RevB.01 20-Dec-2017

 -------------------------
 #P B3LYP/6-311+g(d) force
 -------------------------

 -----
 DPGEN
 -----
 Symbolic Z-matrix:
 Charge =  0 Multiplicity = 2

                         Standard orientation:
 ---------------------------------------------------------------------
 Center     Atomic      Atomic             Coordinates (Angstroms)
 Number     Number       Type             X           Y           Z
 ---------------------------------------------------------------------
      1         11           0       -0.722473    0.834013    0.760200
      2         11           0       -2.596224    3.054853   -0.388074
      3         11           0       -3.402079   -0.690901   -0.774820
      4         11           0        0.618915   -1.769137   -1.348521
      5         11           0        2.425902    0.517463    1.112983
      6         11           0       -1.720739   -2.321947    1.180764
      7         11           0        5.396697    0.375656   -0.542532
 ---------------------------------------------------------------------

 SCF Done:  E(UB3LYP) =  -1136.11331165     A.U. after   22 cycles

 The electronic state is 2-A.
 Alpha  occ. eigenvalues --  -38.45979 -38.44517 -38.44188 -38.44004 -38.43473
 Alpha  occ. eigenvalues --  -38.43262 -38.42905  -2.21754  -2.20398  -2.20066
 Alpha  occ. eigenvalues --   -2.19810  -2.19312  -2.19068  -2.18907  -1.15455
 Alpha  occ. eigenvalues --   -1.15407  -1.15360  -1.14122  -1.14069  -1.14014
 Alpha  occ. eigenvalues --   -1.13745  -1.13721  -1.13642  -1.13447  -1.13444
 Alpha  occ. eigenvalues --   -1.13425  -1.13019  -1.12978  -1.12958  -1.12784
 Alpha  occ. eigenvalues --   -1.12730  -1.12701  -1.12596  -1.12565  -1.12498
 Alpha  occ. eigenvalues --   -0.17897  -0.13727  -0.11852  -0.10727
 Alpha virt. eigenvalues --   -0.07267  -0.05217  -0.04347  -0.03456  -0.02892
 Alpha virt. eigenvalues --   -0.02415  -0.01822  -0.01319  -0.01257  -0.00690
 Alpha virt. eigenvalues --   -0.00336   0.00020   0.00230   0.00518   0.00605

  Beta  occ. eigenvalues --  -38.45975 -38.44511 -38.44139 -38.43895 -38.43464
  Beta  occ. eigenvalues --  -38.43264 -38.42865  -2.21749  -2.20391  -2.19974
  Beta  occ. eigenvalues --   -2.19607  -2.19306  -2.19072  -2.18838  -1.15452
  Beta  occ. eigenvalues --   -1.15393  -1.15364  -1.14113  -1.14048  -1.14002
  Beta  occ. eigenvalues --   -1.13684  -1.13663  -1.13574  -1.13308  -1.13305
  Beta  occ. eigenvalues --   -1.13294  -1.12992  -1.12965  -1.12933  -1.12780
  Beta  occ. eigenvalues --   -1.12734  -1.12699  -1.12555  -1.12517  -1.12433
  Beta  occ. eigenvalues --   -0.17403  -0.12859  -0.11733
  Beta virt. eigenvalues --   -0.07176  -0.07127  -0.04941  -0.03886  -0.03199
  Beta virt. eigenvalues --   -0.02616  -0.02301  -0.01386  -0.01039  -0.00896
  Beta virt. eigenvalues --   -0.00503  -0.00051   0.00214   0.00345   0.00589

 Mulliken charges and spin densities:
               1          2
     1  Na  -1.595854  -0.060606
     2  Na   0.587806  -0.015647
     3  Na   0.263061   0.334201
     4  Na  -0.047234  -0.098637
     5  Na   0.015150   0.097282
     6  Na   0.639489   0.156154
     7  Na   0.137583   0.587253
 Sum of Mulliken charges =  -0.00000   1.00000

 Dipole moment (field-independent basis, Debye):
    X=             -0.8420    Y=             -1.5138    Z=             -0.7980  Tot=              1.9072
 Quadrupole moment (field-independent basis, Debye-Ang):
   XX=            -73.8235   YY=            -70.0328   ZZ=            -60.6511
   XY=             -1.5294   XZ=             -1.4194   YZ=             -0.6831

 Normal termination of Gaussian 16 at Wed Nov 29 00:01:27 2023.
