 Gaussian 16, Revision B.01,
 Gaussian 16:  ES64L-G16RevB.01 20-Dec-2017

 -------------------------
 #P B3LYP/6-311+g(d) force
 -------------------------

 -----
 DPGEN
 -----
 Symbolic Z-matrix:
 Charge =  0 Multiplicity = 2

                         Standard orientation:
 ---------------------------------------------------------------------
 Center     Atomic      Atomic             Coordinates (Angstroms)
 Number     Number       Type             X           Y           Z
 ---------------------------------------------------------------------
      1         11           0       -2.244157   -2.063888   -0.154380
      2         11           0       -2.776368    1.882446   -0.216083
      3         11           0        0.675788    2.551527    0.146290
      4         11           0       -0.166019   -0.724743   -1.835808
      5         11           0       -0.650477   -0.187415    1.861698
      6         11           0        1.748085   -2.164650    0.489951
      7         11           0        3.413148    0.706723   -0.291668
 ---------------------------------------------------------------------

 SCF Done:  E(UB3LYP) =  -1136.13196054     A.U. after   20 cycles

 The electronic state is 2-A.
 Alpha  occ. eigenvalues --  -38.44186 -38.44154 -38.44019 -38.43799 -38.43665
 Alpha  occ. eigenvalues --  -38.43382 -38.43259  -2.19978  -2.19962  -2.19906
 Alpha  occ. eigenvalues --   -2.19656  -2.19592  -2.19323  -2.19098  -1.13666
 Alpha  occ. eigenvalues --   -1.13652  -1.13634  -1.13630  -1.13623  -1.13623
 Alpha  occ. eigenvalues --   -1.13610  -1.13589  -1.13505  -1.13354  -1.13339
 Alpha  occ. eigenvalues --   -1.13270  -1.13239  -1.13213  -1.13196  -1.12990
 Alpha  occ. eigenvalues --   -1.12973  -1.12925  -1.12783  -1.12773  -1.12721
 Alpha  occ. eigenvalues --   -0.18509  -0.13159  -0.12345  -0.10752
 Alpha virt. eigenvalues --   -0.05823  -0.05765  -0.04234  -0.03242  -0.02914
 Alpha virt. eigenvalues --   -0.02539  -0.01696  -0.01401  -0.00450  -0.00115
 Alpha virt. eigenvalues --   -0.00027   0.00310   0.00758   0.00774   0.00840

  Beta  occ. eigenvalues --  -38.44185 -38.44155 -38.44007 -38.43785 -38.43593
  Beta  occ. eigenvalues --  -38.43298 -38.43255  -2.19977  -2.19964  -2.19890
  Beta  occ. eigenvalues --   -2.19633  -2.19458  -2.19170  -2.19093  -1.13642
  Beta  occ. eigenvalues --   -1.13641  -1.13637  -1.13628  -1.13620  -1.13619
  Beta  occ. eigenvalues --   -1.13610  -1.13551  -1.13495  -1.13337  -1.13292
  Beta  occ. eigenvalues --   -1.13257  -1.13157  -1.13118  -1.13103  -1.12889
  Beta  occ. eigenvalues --   -1.12871  -1.12813  -1.12773  -1.12753  -1.12720
  Beta  occ. eigenvalues --   -0.17791  -0.12964  -0.12115
  Beta virt. eigenvalues --   -0.06831  -0.05753  -0.05719  -0.04164  -0.02553
  Beta virt. eigenvalues --   -0.02160  -0.01627  -0.01490  -0.01354  -0.00465
  Beta virt. eigenvalues --   -0.00120   0.00118   0.00355   0.00785   0.00835

 Mulliken charges and spin densities:
               1          2
     1  Na   0.480202  -0.090584
     2  Na  -0.040810  -0.077974
     3  Na  -0.039474  -0.043906
     4  Na  -0.443345   0.688724
     5  Na  -0.106240   0.587346
     6  Na   0.311514  -0.017691
     7  Na  -0.161848  -0.045916
 Sum of Mulliken charges =  -0.00000   1.00000

 Dipole moment (field-independent basis, Debye):
    X=             -0.1948    Y=             -0.1265    Z=             -0.1012  Tot=              0.2534
 Quadrupole moment (field-independent basis, Debye-Ang):
   XX=            -53.4608   YY=            -66.3381   ZZ=            -74.2199
   XY=             -0.4302   XZ=              0.3556   YZ=             -1.4735

 Normal termination of Gaussian 16 at Wed Nov 29 16:48:19 2023.
