 Gaussian 16, Revision B.01,
 Gaussian 16:  ES64L-G16RevB.01 20-Dec-2017

 -------------------------
 #P B3LYP/6-311+g(d) force
 -------------------------

 -----
 DPGEN
 -----
 Symbolic Z-matrix:
 Charge =  0 Multiplicity = 2

                         Standard orientation:
 ---------------------------------------------------------------------
 Center     Atomic      Atomic             Coordinates (Angstroms)
 Number     Number       Type             X           Y           Z
 ---------------------------------------------------------------------
      1         11           0       -0.031032   -0.242644    1.874283
      2         11           0        3.030381    0.107790    0.371909
      3         11           0        1.245699   -2.556079   -0.424969
      4         11           0       -2.641809    1.290341    0.108977
      5         11           0       -2.321166   -2.030793   -0.092982
      6         11           0        0.477220    3.039991   -0.106444
      7         11           0        0.240708    0.391394   -1.730775
 ---------------------------------------------------------------------

 SCF Done:  E(UB3LYP) =  -1136.14024490     A.U. after   19 cycles

 The electronic state is 2-A.
 Alpha  occ. eigenvalues --  -38.43816 -38.43704 -38.43543 -38.43527 -38.43428
 Alpha  occ. eigenvalues --  -38.43372 -38.43179  -2.19674  -2.19562  -2.19389
 Alpha  occ. eigenvalues --   -2.19367  -2.19308  -2.19303  -2.19150  -1.13355
 Alpha  occ. eigenvalues --   -1.13342  -1.13311  -1.13249  -1.13240  -1.13200
 Alpha  occ. eigenvalues --   -1.13118  -1.13046  -1.13041  -1.13031  -1.13017
 Alpha  occ. eigenvalues --   -1.13012  -1.12997  -1.12984  -1.12962  -1.12931
 Alpha  occ. eigenvalues --   -1.12919  -1.12917  -1.12816  -1.12770  -1.12765
 Alpha  occ. eigenvalues --   -0.18809  -0.13016  -0.12612  -0.10735
 Alpha virt. eigenvalues --   -0.05383  -0.05090  -0.04912  -0.03191  -0.02960
 Alpha virt. eigenvalues --   -0.02448  -0.01353  -0.01189  -0.00329  -0.00272
 Alpha virt. eigenvalues --    0.00013   0.00371   0.00866   0.00889   0.00914

  Beta  occ. eigenvalues --  -38.43806 -38.43700 -38.43539 -38.43525 -38.43416
  Beta  occ. eigenvalues --  -38.43290 -38.43109  -2.19658  -2.19557  -2.19386
  Beta  occ. eigenvalues --   -2.19367  -2.19288  -2.19154  -2.19021  -1.13346
  Beta  occ. eigenvalues --   -1.13309  -1.13299  -1.13247  -1.13219  -1.13194
  Beta  occ. eigenvalues --   -1.13102  -1.13037  -1.13026  -1.13022  -1.13013
  Beta  occ. eigenvalues --   -1.13004  -1.12979  -1.12936  -1.12920  -1.12876
  Beta  occ. eigenvalues --   -1.12822  -1.12807  -1.12731  -1.12679  -1.12673
  Beta  occ. eigenvalues --   -0.18080  -0.12769  -0.12368
  Beta virt. eigenvalues --   -0.06833  -0.05360  -0.05079  -0.04845  -0.02389
  Beta virt. eigenvalues --   -0.02211  -0.01421  -0.01257  -0.01110  -0.00366
  Beta virt. eigenvalues --   -0.00312   0.00136   0.00392   0.00875   0.00895

 Mulliken charges and spin densities:
               1          2
     1  Na  -0.296092   0.682668
     2  Na   0.150259  -0.012585
     3  Na   0.136825  -0.005831
     4  Na   0.079847  -0.091855
     5  Na   0.001034  -0.068484
     6  Na   0.148751  -0.109874
     7  Na  -0.220624   0.605961
 Sum of Mulliken charges =  -0.00000   1.00000

 Dipole moment (field-independent basis, Debye):
    X=              0.0586    Y=              0.0920    Z=              0.0974  Tot=              0.1462
 Quadrupole moment (field-independent basis, Debye-Ang):
   XX=            -58.4124   YY=            -60.7167   ZZ=            -74.3289
   XY=              0.4543   XZ=              0.7119   YZ=              1.6163

 Normal termination of Gaussian 16 at Thu Dec  7 18:23:21 2023.
