 Gaussian 16, Revision B.01,
 Gaussian 16:  ES64L-G16RevB.01 20-Dec-2017

 -------------------------
 #P B3LYP/6-311+g(d) force
 -------------------------

 -----
 DPGEN
 -----
 Symbolic Z-matrix:
 Charge =  0 Multiplicity = 2

                         Standard orientation:
 ---------------------------------------------------------------------
 Center     Atomic      Atomic             Coordinates (Angstroms)
 Number     Number       Type             X           Y           Z
 ---------------------------------------------------------------------
      1         11           0       -2.564400   -1.894216   -0.163443
      2         11           0       -2.841605    1.619492    0.219276
      3         11           0        3.154536    0.245934   -0.072468
      4         11           0        0.989619    2.887187   -0.257061
      5         11           0       -0.376176    0.175531   -1.497259
      6         11           0        0.279136   -0.278033    2.114193
      7         11           0        1.358890   -2.755896   -0.343237
 ---------------------------------------------------------------------

 SCF Done:  E(UB3LYP) =  -1136.13631189     A.U. after   19 cycles

 The electronic state is 2-A.
 Alpha  occ. eigenvalues --  -38.44292 -38.44125 -38.44125 -38.43562 -38.43519
 Alpha  occ. eigenvalues --  -38.43385 -38.43063  -2.20096  -2.19953  -2.19940
 Alpha  occ. eigenvalues --   -2.19417  -2.19335  -2.19215  -2.19032  -1.13777
 Alpha  occ. eigenvalues --   -1.13757  -1.13734  -1.13630  -1.13626  -1.13616
 Alpha  occ. eigenvalues --   -1.13598  -1.13598  -1.13564  -1.13084  -1.13045
 Alpha  occ. eigenvalues --   -1.13037  -1.13011  -1.12989  -1.12974  -1.12920
 Alpha  occ. eigenvalues --   -1.12870  -1.12849  -1.12721  -1.12664  -1.12658
 Alpha  occ. eigenvalues --   -0.18262  -0.13146  -0.12231  -0.10415
 Alpha virt. eigenvalues --   -0.05744  -0.05628  -0.04713  -0.03198  -0.02694
 Alpha virt. eigenvalues --   -0.02378  -0.01651  -0.01306  -0.00643  -0.00572
 Alpha virt. eigenvalues --   -0.00013   0.00341   0.00740   0.00798   0.00851

  Beta  occ. eigenvalues --  -38.44289 -38.44122 -38.44121 -38.43512 -38.43462
  Beta  occ. eigenvalues --  -38.43380 -38.43011  -2.20093  -2.19950  -2.19935
  Beta  occ. eigenvalues --   -2.19325  -2.19234  -2.19209  -2.18939  -1.13771
  Beta  occ. eigenvalues --   -1.13743  -1.13735  -1.13619  -1.13617  -1.13607
  Beta  occ. eigenvalues --   -1.13594  -1.13583  -1.13564  -1.13003  -1.12982
  Beta  occ. eigenvalues --   -1.12968  -1.12956  -1.12913  -1.12907  -1.12900
  Beta  occ. eigenvalues --   -1.12854  -1.12845  -1.12652  -1.12596  -1.12592
  Beta  occ. eigenvalues --   -0.17566  -0.12957  -0.12005
  Beta virt. eigenvalues --   -0.06534  -0.05667  -0.05625  -0.04658  -0.02445
  Beta virt. eigenvalues --   -0.01985  -0.01552  -0.01331  -0.01227  -0.00692
  Beta virt. eigenvalues --   -0.00609   0.00150   0.00381   0.00796   0.00817

 Mulliken charges and spin densities:
               1          2
     1  Na   0.155559  -0.057117
     2  Na   0.064720   0.002910
     3  Na   0.207507   0.009975
     4  Na   0.122394  -0.040340
     5  Na  -0.108782   0.356661
     6  Na  -0.504841   0.777238
     7  Na   0.063444  -0.049328
 Sum of Mulliken charges =  -0.00000   1.00000

 Dipole moment (field-independent basis, Debye):
    X=             -0.3057    Y=             -0.0267    Z=              0.1362  Tot=              0.3357
 Quadrupole moment (field-independent basis, Debye-Ang):
   XX=            -54.5087   YY=            -61.7658   ZZ=            -76.2879
   XY=             -0.2886   XZ=             -1.3847   YZ=              1.1997

 Normal termination of Gaussian 16 at Thu Dec  7 06:15:30 2023.
