 Gaussian 16, Revision B.01,
 Gaussian 16:  ES64L-G16RevB.01 20-Dec-2017

 -------------------------
 #P B3LYP/6-311+g(d) force
 -------------------------

 -----
 DPGEN
 -----
 Symbolic Z-matrix:
 Charge =  0 Multiplicity = 2

                         Standard orientation:
 ---------------------------------------------------------------------
 Center     Atomic      Atomic             Coordinates (Angstroms)
 Number     Number       Type             X           Y           Z
 ---------------------------------------------------------------------
      1         11           0       -4.003781   -2.653776   -0.474764
      2         11           0       -2.632935    1.187173    0.740672
      3         11           0        4.736821   -0.112301   -0.472537
      4         11           0       -1.255085    4.120049    0.076728
      5         11           0       -0.872718   -2.024886   -0.328375
      6         11           0        2.710360   -2.069956    1.072221
      7         11           0        1.317338    1.553698   -0.613944
 ---------------------------------------------------------------------

 SCF Done:  E(UB3LYP) =  -1136.11822910     A.U. after   23 cycles

 The electronic state is 2-A.
 Alpha  occ. eigenvalues --  -38.45913 -38.45543 -38.44433 -38.44317 -38.43403
 Alpha  occ. eigenvalues --  -38.43398 -38.43220  -2.21650  -2.21313  -2.20228
 Alpha  occ. eigenvalues --   -2.20127  -2.19237  -2.19212  -2.19059  -1.15372
 Alpha  occ. eigenvalues --   -1.15347  -1.15230  -1.15019  -1.15001  -1.14909
 Alpha  occ. eigenvalues --   -1.13901  -1.13892  -1.13860  -1.13807  -1.13783
 Alpha  occ. eigenvalues --   -1.13765  -1.12899  -1.12895  -1.12882  -1.12862
 Alpha  occ. eigenvalues --   -1.12855  -1.12835  -1.12750  -1.12742  -1.12651
 Alpha  occ. eigenvalues --   -0.16487  -0.13858  -0.12987  -0.09755
 Alpha virt. eigenvalues --   -0.07072  -0.06025  -0.04320  -0.03572  -0.02982
 Alpha virt. eigenvalues --   -0.02493  -0.02187  -0.01609  -0.01296  -0.00867
 Alpha virt. eigenvalues --   -0.00312  -0.00113   0.00273   0.00487   0.00514

  Beta  occ. eigenvalues --  -38.45906 -38.45543 -38.44438 -38.44285 -38.43350
  Beta  occ. eigenvalues --  -38.43341 -38.43192  -2.21641  -2.21314  -2.20238
  Beta  occ. eigenvalues --   -2.20073  -2.19120  -2.19120  -2.19013  -1.15368
  Beta  occ. eigenvalues --   -1.15323  -1.15221  -1.15018  -1.15000  -1.14909
  Beta  occ. eigenvalues --   -1.13909  -1.13899  -1.13866  -1.13773  -1.13739
  Beta  occ. eigenvalues --   -1.13704  -1.12840  -1.12816  -1.12801  -1.12798
  Beta  occ. eigenvalues --   -1.12779  -1.12773  -1.12722  -1.12714  -1.12580
  Beta  occ. eigenvalues --   -0.16103  -0.13459  -0.12616
  Beta virt. eigenvalues --   -0.06991  -0.06227  -0.05787  -0.04004  -0.03243
  Beta virt. eigenvalues --   -0.02737  -0.02243  -0.02049  -0.01354  -0.01091
  Beta virt. eigenvalues --   -0.00441  -0.00020   0.00214   0.00336   0.00539

 Mulliken charges and spin densities:
               1          2
     1  Na   0.385783   0.316538
     2  Na  -0.108768   0.050601
     3  Na   0.028230   0.308323
     4  Na   1.088446   0.005094
     5  Na  -1.049494   0.113060
     6  Na   0.516962   0.136125
     7  Na  -0.861158   0.070261
 Sum of Mulliken charges =  -0.00000   1.00000

 Dipole moment (field-independent basis, Debye):
    X=             -0.6092    Y=              1.4836    Z=              0.4351  Tot=              1.6618
 Quadrupole moment (field-independent basis, Debye-Ang):
   XX=            -69.6747   YY=            -60.8166   ZZ=            -70.2947
   XY=             -7.5316   XZ=             -0.4355   YZ=             -0.7805

 Normal termination of Gaussian 16 at Mon Dec  4 03:04:38 2023.
