 Gaussian 16, Revision B.01,
 Gaussian 16:  ES64L-G16RevB.01 20-Dec-2017

 -------------------------
 #P B3LYP/6-311+g(d) force
 -------------------------

 -----
 DPGEN
 -----
 Symbolic Z-matrix:
 Charge =  0 Multiplicity = 2

                         Standard orientation:
 ---------------------------------------------------------------------
 Center     Atomic      Atomic             Coordinates (Angstroms)
 Number     Number       Type             X           Y           Z
 ---------------------------------------------------------------------
      1         11           0       -1.566554    2.440800   -0.052487
      2         11           0       -3.221807   -0.713240   -0.147753
      3         11           0        2.213778    2.184762   -0.046509
      4         11           0        2.763497   -1.580256   -0.032981
      5         11           0        0.185957   -0.012218   -1.787721
      6         11           0       -0.400302   -2.624761    0.197979
      7         11           0        0.025430    0.304913    1.869473
 ---------------------------------------------------------------------

 SCF Done:  E(UB3LYP) =  -1136.13953779     A.U. after   19 cycles

 The electronic state is 2-A.
 Alpha  occ. eigenvalues --  -38.44010 -38.43894 -38.43830 -38.43625 -38.43287
 Alpha  occ. eigenvalues --  -38.43276 -38.43053  -2.19820  -2.19726  -2.19655
 Alpha  occ. eigenvalues --   -2.19477  -2.19225  -2.19220  -2.18951  -1.13486
 Alpha  occ. eigenvalues --   -1.13484  -1.13468  -1.13399  -1.13390  -1.13372
 Alpha  occ. eigenvalues --   -1.13334  -1.13326  -1.13284  -1.13179  -1.13155
 Alpha  occ. eigenvalues --   -1.13090  -1.12923  -1.12886  -1.12860  -1.12854
 Alpha  occ. eigenvalues --   -1.12837  -1.12834  -1.12633  -1.12616  -1.12572
 Alpha  occ. eigenvalues --   -0.18715  -0.12921  -0.12545  -0.10637
 Alpha virt. eigenvalues --   -0.05613  -0.05461  -0.04482  -0.03058  -0.02928
 Alpha virt. eigenvalues --   -0.02449  -0.01620  -0.01262  -0.00387  -0.00201
 Alpha virt. eigenvalues --   -0.00010   0.00352   0.00771   0.00855   0.00918

  Beta  occ. eigenvalues --  -38.44009 -38.43892 -38.43826 -38.43618 -38.43202
  Beta  occ. eigenvalues --  -38.43200 -38.43043  -2.19821  -2.19725  -2.19651
  Beta  occ. eigenvalues --   -2.19469  -2.19084  -2.19067  -2.18939  -1.13488
  Beta  occ. eigenvalues --   -1.13471  -1.13469  -1.13398  -1.13375  -1.13369
  Beta  occ. eigenvalues --   -1.13325  -1.13305  -1.13284  -1.13169  -1.13124
  Beta  occ. eigenvalues --   -1.13089  -1.12831  -1.12784  -1.12764  -1.12743
  Beta  occ. eigenvalues --   -1.12733  -1.12726  -1.12621  -1.12572  -1.12569
  Beta  occ. eigenvalues --   -0.17973  -0.12703  -0.12291
  Beta virt. eigenvalues --   -0.06728  -0.05589  -0.05448  -0.04460  -0.02299
  Beta virt. eigenvalues --   -0.02115  -0.01535  -0.01393  -0.01210  -0.00453
  Beta virt. eigenvalues --   -0.00236   0.00122   0.00366   0.00812   0.00852

 Mulliken charges and spin densities:
               1          2
     1  Na   0.182483  -0.129047
     2  Na   0.002527  -0.060584
     3  Na   0.135207  -0.162961
     4  Na   0.143858  -0.097820
     5  Na  -0.334569   0.754374
     6  Na   0.163669  -0.041870
     7  Na  -0.293176   0.737909
 Sum of Mulliken charges =  -0.00000   1.00000

 Dipole moment (field-independent basis, Debye):
    X=              0.1112    Y=              0.2052    Z=             -0.0199  Tot=              0.2342
 Quadrupole moment (field-independent basis, Debye-Ang):
   XX=            -54.3037   YY=            -63.3632   ZZ=            -74.9332
   XY=              0.0863   XZ=              0.4508   YZ=             -0.6193

 Normal termination of Gaussian 16 at Fri Dec  8 05:03:20 2023.
