 Gaussian 16, Revision B.01,
 Gaussian 16:  ES64L-G16RevB.01 20-Dec-2017

 -------------------------
 #P B3LYP/6-311+g(d) force
 -------------------------

 -----
 DPGEN
 -----
 Symbolic Z-matrix:
 Charge =  0 Multiplicity = 2

                         Standard orientation:
 ---------------------------------------------------------------------
 Center     Atomic      Atomic             Coordinates (Angstroms)
 Number     Number       Type             X           Y           Z
 ---------------------------------------------------------------------
      1         11           0       -0.301732   -0.248028    1.958859
      2         11           0        3.042799   -1.212195   -0.499533
      3         11           0        1.995852    1.753543    0.586767
      4         11           0        0.390572    0.111824   -1.722014
      5         11           0       -0.801750   -2.817199    0.335730
      6         11           0       -3.098965   -0.411550   -0.572715
      7         11           0       -1.226776    2.823606   -0.087094
 ---------------------------------------------------------------------

 SCF Done:  E(UB3LYP) =  -1136.13611473     A.U. after   19 cycles

 The electronic state is 2-A.
 Alpha  occ. eigenvalues --  -38.44150 -38.43776 -38.43680 -38.43532 -38.43450
 Alpha  occ. eigenvalues --  -38.43448 -38.43216  -2.19965  -2.19618  -2.19609
 Alpha  occ. eigenvalues --   -2.19482  -2.19365  -2.19305  -2.19042  -1.13643
 Alpha  occ. eigenvalues --   -1.13620  -1.13599  -1.13332  -1.13311  -1.13285
 Alpha  occ. eigenvalues --   -1.13272  -1.13246  -1.13223  -1.13179  -1.13128
 Alpha  occ. eigenvalues --   -1.13088  -1.13041  -1.13016  -1.12983  -1.12971
 Alpha  occ. eigenvalues --   -1.12951  -1.12919  -1.12716  -1.12700  -1.12686
 Alpha  occ. eigenvalues --   -0.18630  -0.13112  -0.12291  -0.11050
 Alpha virt. eigenvalues --   -0.05562  -0.04905  -0.04718  -0.03411  -0.02941
 Alpha virt. eigenvalues --   -0.02681  -0.01546  -0.01062  -0.00346  -0.00108
 Alpha virt. eigenvalues --    0.00005   0.00341   0.00810   0.00876   0.00908

  Beta  occ. eigenvalues --  -38.44136 -38.43767 -38.43592 -38.43472 -38.43439
  Beta  occ. eigenvalues --  -38.43433 -38.43216  -2.19941  -2.19601  -2.19449
  Beta  occ. eigenvalues --   -2.19371  -2.19337  -2.19292  -2.19046  -1.13616
  Beta  occ. eigenvalues --   -1.13606  -1.13580  -1.13306  -1.13268  -1.13233
  Beta  occ. eigenvalues --   -1.13209  -1.13168  -1.13114  -1.13109  -1.13058
  Beta  occ. eigenvalues --   -1.13009  -1.13002  -1.12979  -1.12952  -1.12945
  Beta  occ. eigenvalues --   -1.12927  -1.12914  -1.12714  -1.12703  -1.12676
  Beta  occ. eigenvalues --   -0.17911  -0.12857  -0.12029
  Beta virt. eigenvalues --   -0.07178  -0.05455  -0.04857  -0.04644  -0.02692
  Beta virt. eigenvalues --   -0.02230  -0.01681  -0.01404  -0.01001  -0.00328
  Beta virt. eigenvalues --   -0.00099   0.00107   0.00378   0.00854   0.00899

 Mulliken charges and spin densities:
               1          2
     1  Na  -0.102350   0.479627
     2  Na   0.117724  -0.024276
     3  Na   0.290571   0.086240
     4  Na  -0.259400   0.571675
     5  Na   0.137029  -0.046744
     6  Na  -0.076699   0.013286
     7  Na  -0.106875  -0.079808
 Sum of Mulliken charges =  -0.00000   1.00000

 Dipole moment (field-independent basis, Debye):
    X=             -0.1323    Y=             -0.1803    Z=             -0.0534  Tot=              0.2300
 Quadrupole moment (field-independent basis, Debye-Ang):
   XX=            -57.6517   YY=            -63.8406   ZZ=            -72.6727
   XY=             -1.1689   XZ=              1.7197   YZ=              1.1188

 Normal termination of Gaussian 16 at Thu Dec  7 18:41:13 2023.
