 Gaussian 16, Revision B.01,
 Gaussian 16:  ES64L-G16RevB.01 20-Dec-2017

 -------------------------
 #P B3LYP/6-311+g(d) force
 -------------------------

 -----
 DPGEN
 -----
 Symbolic Z-matrix:
 Charge =  0 Multiplicity = 2

                         Standard orientation:
 ---------------------------------------------------------------------
 Center     Atomic      Atomic             Coordinates (Angstroms)
 Number     Number       Type             X           Y           Z
 ---------------------------------------------------------------------
      1         11           0       -0.180154   -0.623213   -1.675398
      2         11           0       -2.378163    1.627311   -0.406056
      3         11           0       -3.110014   -1.581471    0.623743
      4         11           0        0.011653   -0.426786    2.084085
      5         11           0        1.975045   -2.448953   -1.057074
      6         11           0        0.652230    2.852026   -0.602004
      7         11           0        3.029403    0.601085    1.032705
 ---------------------------------------------------------------------

 SCF Done:  E(UB3LYP) =  -1136.12815921     A.U. after   20 cycles

 The electronic state is 2-A.
 Alpha  occ. eigenvalues --  -38.44672 -38.44326 -38.44050 -38.43877 -38.43844
 Alpha  occ. eigenvalues --  -38.43556 -38.42901  -2.20511  -2.20138  -2.19854
 Alpha  occ. eigenvalues --   -2.19821  -2.19694  -2.19425  -2.18726  -1.14180
 Alpha  occ. eigenvalues --   -1.14152  -1.14139  -1.13820  -1.13780  -1.13761
 Alpha  occ. eigenvalues --   -1.13665  -1.13519  -1.13512  -1.13497  -1.13473
 Alpha  occ. eigenvalues --   -1.13431  -1.13315  -1.13298  -1.13282  -1.13113
 Alpha  occ. eigenvalues --   -1.13097  -1.13043  -1.12400  -1.12395  -1.12366
 Alpha  occ. eigenvalues --   -0.18089  -0.13206  -0.12009  -0.11628
 Alpha virt. eigenvalues --   -0.05777  -0.05018  -0.04709  -0.03437  -0.03108
 Alpha virt. eigenvalues --   -0.02827  -0.01787  -0.01093  -0.00567  -0.00038
 Alpha virt. eigenvalues --    0.00020   0.00283   0.00626   0.00762   0.00808

  Beta  occ. eigenvalues --  -38.44597 -38.44298 -38.44038 -38.43812 -38.43806
  Beta  occ. eigenvalues --  -38.43550 -38.42901  -2.20373  -2.20088  -2.19833
  Beta  occ. eigenvalues --   -2.19704  -2.19627  -2.19415  -2.18729  -1.14088
  Beta  occ. eigenvalues --   -1.14063  -1.14027  -1.13768  -1.13749  -1.13732
  Beta  occ. eigenvalues --   -1.13580  -1.13500  -1.13492  -1.13483  -1.13391
  Beta  occ. eigenvalues --   -1.13354  -1.13268  -1.13242  -1.13224  -1.13097
  Beta  occ. eigenvalues --   -1.13091  -1.13031  -1.12402  -1.12395  -1.12358
  Beta  occ. eigenvalues --   -0.17417  -0.12904  -0.11614
  Beta virt. eigenvalues --   -0.07844  -0.05573  -0.04988  -0.04346  -0.02968
  Beta virt. eigenvalues --   -0.02461  -0.02041  -0.01571  -0.00967  -0.00447
  Beta virt. eigenvalues --    0.00041   0.00057   0.00337   0.00736   0.00845

 Mulliken charges and spin densities:
               1          2
     1  Na   0.281297   0.347096
     2  Na   0.376011   0.028885
     3  Na   0.091991   0.072477
     4  Na  -0.271647   0.413858
     5  Na  -0.393178   0.019350
     6  Na  -0.407180  -0.024604
     7  Na   0.322706   0.142938
 Sum of Mulliken charges =  -0.00000   1.00000

 Dipole moment (field-independent basis, Debye):
    X=             -0.0181    Y=             -0.4134    Z=              0.5056  Tot=              0.6533
 Quadrupole moment (field-independent basis, Debye-Ang):
   XX=            -56.0787   YY=            -68.9560   ZZ=            -70.8292
   XY=              1.1681   XZ=              0.3826   YZ=             -0.3763

 Normal termination of Gaussian 16 at Thu Dec  7 13:24:53 2023.
