 Gaussian 16, Revision B.01,
 Gaussian 16:  ES64L-G16RevB.01 20-Dec-2017

 -------------------------
 #P B3LYP/6-311+g(d) force
 -------------------------

 -----
 DPGEN
 -----
 Symbolic Z-matrix:
 Charge =  0 Multiplicity = 2

                         Standard orientation:
 ---------------------------------------------------------------------
 Center     Atomic      Atomic             Coordinates (Angstroms)
 Number     Number       Type             X           Y           Z
 ---------------------------------------------------------------------
      1         11           0        0.241363   -0.523269   -1.512690
      2         11           0       -2.684099    0.417841   -0.504375
      3         11           0       -0.342880    0.244069    2.098850
      4         11           0       -0.489486    2.696710   -0.430677
      5         11           0        2.335742   -1.854371   -0.274745
      6         11           0        2.368502    1.469566    0.277319
      7         11           0       -1.429141   -2.450545    0.346318
 ---------------------------------------------------------------------

 SCF Done:  E(UB3LYP) =  -1136.13213237     A.U. after   18 cycles

 The electronic state is 2-A.
 Alpha  occ. eigenvalues --  -38.43808 -38.43737 -38.43516 -38.43453 -38.43436
 Alpha  occ. eigenvalues --  -38.43212 -38.43191  -2.19730  -2.19641  -2.19418
 Alpha  occ. eigenvalues --   -2.19375  -2.19355  -2.19308  -2.19111  -1.13538
 Alpha  occ. eigenvalues --   -1.13399  -1.13360  -1.13357  -1.13269  -1.13244
 Alpha  occ. eigenvalues --   -1.13164  -1.13090  -1.13079  -1.13071  -1.13057
 Alpha  occ. eigenvalues --   -1.13025  -1.13018  -1.12990  -1.12978  -1.12934
 Alpha  occ. eigenvalues --   -1.12892  -1.12881  -1.12768  -1.12752  -1.12743
 Alpha  occ. eigenvalues --   -0.19422  -0.13117  -0.12798  -0.11274
 Alpha virt. eigenvalues --   -0.05126  -0.04908  -0.04638  -0.03323  -0.03160
 Alpha virt. eigenvalues --   -0.02761  -0.01118  -0.01014  -0.00114   0.00092
 Alpha virt. eigenvalues --    0.00143   0.00359   0.00926   0.00955   0.00971

  Beta  occ. eigenvalues --  -38.43732 -38.43712 -38.43506 -38.43446 -38.43420
  Beta  occ. eigenvalues --  -38.43180 -38.43156  -2.19633  -2.19552  -2.19403
  Beta  occ. eigenvalues --   -2.19351  -2.19346  -2.19207  -2.19094  -1.13512
  Beta  occ. eigenvalues --   -1.13288  -1.13256  -1.13239  -1.13235  -1.13228
  Beta  occ. eigenvalues --   -1.13147  -1.13067  -1.13062  -1.13053  -1.13035
  Beta  occ. eigenvalues --   -1.13001  -1.12994  -1.12972  -1.12955  -1.12870
  Beta  occ. eigenvalues --   -1.12826  -1.12819  -1.12754  -1.12742  -1.12708
  Beta  occ. eigenvalues --   -0.18677  -0.12854  -0.12537
  Beta virt. eigenvalues --   -0.07269  -0.05096  -0.04865  -0.04603  -0.02500
  Beta virt. eigenvalues --   -0.02393  -0.01667  -0.01035  -0.00937  -0.00038
  Beta virt. eigenvalues --    0.00103   0.00149   0.00395   0.00947   0.00971

 Mulliken charges and spin densities:
               1          2
     1  Na  -0.581238   0.197517
     2  Na   0.309280   0.014682
     3  Na  -0.654779   0.599714
     4  Na   0.084285   0.038557
     5  Na   0.352860   0.005177
     6  Na   0.207150   0.065862
     7  Na   0.282441   0.078491
 Sum of Mulliken charges =  -0.00000   1.00000

 Dipole moment (field-independent basis, Debye):
    X=              0.0065    Y=             -0.1206    Z=              0.3800  Tot=              0.3987
 Quadrupole moment (field-independent basis, Debye-Ang):
   XX=            -60.8714   YY=            -62.4939   ZZ=            -71.7171
   XY=              0.2526   XZ=              1.2557   YZ=             -1.5092

 Normal termination of Gaussian 16 at Tue Dec  5 17:57:29 2023.
