 Gaussian 16, Revision B.01,
 Gaussian 16:  ES64L-G16RevB.01 20-Dec-2017

 -------------------------
 #P B3LYP/6-311+g(d) force
 -------------------------

 -----
 DPGEN
 -----
 Symbolic Z-matrix:
 Charge =  0 Multiplicity = 2

                         Standard orientation:
 ---------------------------------------------------------------------
 Center     Atomic      Atomic             Coordinates (Angstroms)
 Number     Number       Type             X           Y           Z
 ---------------------------------------------------------------------
      1         11           0       -0.247034    0.367111   -1.631827
      2         11           0       -1.639878   -2.498496   -0.267395
      3         11           0        0.151565   -0.290939    2.023167
      4         11           0       -3.241195    0.700365    0.078107
      5         11           0       -0.203416    2.905789    0.121481
      6         11           0        3.222633    0.960870   -0.187402
      7         11           0        1.957324   -2.144699   -0.136131
 ---------------------------------------------------------------------

 SCF Done:  E(UB3LYP) =  -1136.13688189     A.U. after   19 cycles

 The electronic state is 2-A.
 Alpha  occ. eigenvalues --  -38.44506 -38.44326 -38.43466 -38.43444 -38.43436
 Alpha  occ. eigenvalues --  -38.43370 -38.43228  -2.20307  -2.20121  -2.19327
 Alpha  occ. eigenvalues --   -2.19322  -2.19286  -2.19208  -2.19185  -1.13984
 Alpha  occ. eigenvalues --   -1.13964  -1.13946  -1.13795  -1.13785  -1.13760
 Alpha  occ. eigenvalues --   -1.13058  -1.13041  -1.12999  -1.12981  -1.12965
 Alpha  occ. eigenvalues --   -1.12950  -1.12936  -1.12927  -1.12900  -1.12896
 Alpha  occ. eigenvalues --   -1.12869  -1.12849  -1.12841  -1.12799  -1.12788
 Alpha  occ. eigenvalues --   -0.18437  -0.13064  -0.12319  -0.10501
 Alpha virt. eigenvalues --   -0.06084  -0.05158  -0.04629  -0.03147  -0.02809
 Alpha virt. eigenvalues --   -0.02394  -0.01860  -0.01131  -0.00525  -0.00387
 Alpha virt. eigenvalues --   -0.00025   0.00336   0.00766   0.00835   0.00876

  Beta  occ. eigenvalues --  -38.44505 -38.44324 -38.43460 -38.43438 -38.43364
  Beta  occ. eigenvalues --  -38.43341 -38.43169  -2.20307  -2.20119  -2.19319
  Beta  occ. eigenvalues --   -2.19279  -2.19200  -2.19146  -2.19078  -1.13971
  Beta  occ. eigenvalues --   -1.13961  -1.13948  -1.13791  -1.13771  -1.13760
  Beta  occ. eigenvalues --   -1.13036  -1.13015  -1.12967  -1.12962  -1.12925
  Beta  occ. eigenvalues --   -1.12895  -1.12889  -1.12866  -1.12851  -1.12837
  Beta  occ. eigenvalues --   -1.12814  -1.12807  -1.12783  -1.12731  -1.12712
  Beta  occ. eigenvalues --   -0.17717  -0.12861  -0.12088
  Beta virt. eigenvalues --   -0.06611  -0.06041  -0.05168  -0.04560  -0.02398
  Beta virt. eigenvalues --   -0.02047  -0.01770  -0.01346  -0.01072  -0.00565
  Beta virt. eigenvalues --   -0.00434   0.00127   0.00365   0.00818   0.00838

 Mulliken charges and spin densities:
               1          2
     1  Na  -0.180080   0.538519
     2  Na   0.110240  -0.069057
     3  Na  -0.428726   0.784021
     4  Na   0.150638  -0.057510
     5  Na   0.073135  -0.105923
     6  Na   0.066122  -0.065441
     7  Na   0.208670  -0.024610
 Sum of Mulliken charges =  -0.00000   1.00000

 Dipole moment (field-independent basis, Debye):
    X=             -0.1403    Y=              0.2100    Z=              0.1029  Tot=              0.2727
 Quadrupole moment (field-independent basis, Debye-Ang):
   XX=            -53.0986   YY=            -63.8386   ZZ=            -75.5449
   XY=              0.4242   XZ=             -0.9976   YZ=              1.4613

 Normal termination of Gaussian 16 at Thu Dec  7 18:51:19 2023.
