 Gaussian 16, Revision B.01,
 Gaussian 16:  ES64L-G16RevB.01 20-Dec-2017

 -------------------------
 #P B3LYP/6-311+g(d) force
 -------------------------

 -----
 DPGEN
 -----
 Symbolic Z-matrix:
 Charge =  0 Multiplicity = 2

                         Standard orientation:
 ---------------------------------------------------------------------
 Center     Atomic      Atomic             Coordinates (Angstroms)
 Number     Number       Type             X           Y           Z
 ---------------------------------------------------------------------
      1         11           0       -0.881653   -2.661737    0.368753
      2         11           0        0.603697    0.349927    2.460254
      3         11           0        2.786023   -1.529663    0.445828
      4         11           0       -0.645943   -0.801440   -2.174063
      5         11           0       -3.036355    0.035491   -0.257083
      6         11           0        2.275461    1.885755   -1.633622
      7         11           0       -1.101230    2.721667    0.789933
 ---------------------------------------------------------------------

 SCF Done:  E(UB3LYP) =  -1136.12495122     A.U. after   20 cycles

 The electronic state is 2-A.
 Alpha  occ. eigenvalues --  -38.45179 -38.44392 -38.44370 -38.43857 -38.43776
 Alpha  occ. eigenvalues --  -38.43667 -38.42993  -2.20938  -2.20260  -2.20190
 Alpha  occ. eigenvalues --   -2.19629  -2.19621  -2.19518  -2.18798  -1.14597
 Alpha  occ. eigenvalues --   -1.14570  -1.14557  -1.13945  -1.13923  -1.13880
 Alpha  occ. eigenvalues --   -1.13854  -1.13839  -1.13813  -1.13309  -1.13308
 Alpha  occ. eigenvalues --   -1.13301  -1.13287  -1.13277  -1.13228  -1.13214
 Alpha  occ. eigenvalues --   -1.13177  -1.13128  -1.12481  -1.12455  -1.12444
 Alpha  occ. eigenvalues --   -0.17601  -0.12635  -0.12047  -0.11920
 Alpha virt. eigenvalues --   -0.05487  -0.05283  -0.04673  -0.03713  -0.03438
 Alpha virt. eigenvalues --   -0.03386  -0.01162  -0.00954  -0.00407  -0.00121
 Alpha virt. eigenvalues --   -0.00090   0.00393   0.00506   0.00558   0.00781

  Beta  occ. eigenvalues --  -38.45095 -38.44350 -38.44309 -38.43860 -38.43768
  Beta  occ. eigenvalues --  -38.43667 -38.42993  -2.20783  -2.20182  -2.20076
  Beta  occ. eigenvalues --   -2.19638  -2.19608  -2.19519  -2.18800  -1.14482
  Beta  occ. eigenvalues --   -1.14464  -1.14456  -1.13895  -1.13870  -1.13818
  Beta  occ. eigenvalues --   -1.13777  -1.13766  -1.13727  -1.13307  -1.13301
  Beta  occ. eigenvalues --   -1.13290  -1.13288  -1.13274  -1.13216  -1.13208
  Beta  occ. eigenvalues --   -1.13174  -1.13130  -1.12475  -1.12455  -1.12442
  Beta  occ. eigenvalues --   -0.16937  -0.12318  -0.11793
  Beta virt. eigenvalues --   -0.08180  -0.05313  -0.04770  -0.04438  -0.03434
  Beta virt. eigenvalues --   -0.02790  -0.02654  -0.01075  -0.00756  -0.00263
  Beta virt. eigenvalues --   -0.00021  -0.00002   0.00461   0.00641   0.00757

 Mulliken charges and spin densities:
               1          2
     1  Na   0.095867   0.105422
     2  Na  -0.122534   0.210936
     3  Na   0.027103  -0.055758
     4  Na  -0.075866   0.235146
     5  Na   0.228819  -0.007801
     6  Na  -0.014425   0.447741
     7  Na  -0.138963   0.064314
 Sum of Mulliken charges =  -0.00000   1.00000

 Dipole moment (field-independent basis, Debye):
    X=              0.2812    Y=             -0.2567    Z=             -0.2539  Tot=              0.4577
 Quadrupole moment (field-independent basis, Debye-Ang):
   XX=            -63.8605   YY=            -68.3583   ZZ=            -66.4835
   XY=              1.2744   XZ=             -2.4521   YZ=             -4.2121

 Normal termination of Gaussian 16 at Mon Dec  4 02:32:48 2023.
