 Gaussian 16, Revision B.01,
 Gaussian 16:  ES64L-G16RevB.01 20-Dec-2017

 -------------------------
 #P B3LYP/6-311+g(d) force
 -------------------------

 -----
 DPGEN
 -----
 Symbolic Z-matrix:
 Charge =  0 Multiplicity = 2

                         Standard orientation:
 ---------------------------------------------------------------------
 Center     Atomic      Atomic             Coordinates (Angstroms)
 Number     Number       Type             X           Y           Z
 ---------------------------------------------------------------------
      1         11           0        1.501735    2.062825    0.367936
      2         11           0        0.008916    0.153820   -1.836801
      3         11           0       -2.040646    2.252091   -0.198952
      4         11           0       -2.735551   -1.640817   -0.273431
      5         11           0        0.578975   -2.311463    0.221143
      6         11           0        3.378810   -0.494034   -0.154126
      7         11           0       -0.692238   -0.022421    1.874231
 ---------------------------------------------------------------------

 SCF Done:  E(UB3LYP) =  -1136.13561382     A.U. after   19 cycles

 The electronic state is 2-A.
 Alpha  occ. eigenvalues --  -38.44121 -38.44011 -38.43520 -38.43459 -38.43385
 Alpha  occ. eigenvalues --  -38.43286 -38.42990  -2.19958  -2.19851  -2.19481
 Alpha  occ. eigenvalues --   -2.19365  -2.19313  -2.19192  -2.18925  -1.13639
 Alpha  occ. eigenvalues --   -1.13613  -1.13605  -1.13526  -1.13513  -1.13492
 Alpha  occ. eigenvalues --   -1.13182  -1.13136  -1.13100  -1.13070  -1.13034
 Alpha  occ. eigenvalues --   -1.12988  -1.12975  -1.12943  -1.12940  -1.12869
 Alpha  occ. eigenvalues --   -1.12858  -1.12800  -1.12622  -1.12599  -1.12516
 Alpha  occ. eigenvalues --   -0.19063  -0.13246  -0.12292  -0.10979
 Alpha virt. eigenvalues --   -0.05843  -0.05207  -0.03986  -0.03298  -0.02895
 Alpha virt. eigenvalues --   -0.02630  -0.01761  -0.01147  -0.00154   0.00032
 Alpha virt. eigenvalues --    0.00097   0.00333   0.00771   0.00894   0.00927

  Beta  occ. eigenvalues --  -38.44124 -38.44006 -38.43454 -38.43442 -38.43302
  Beta  occ. eigenvalues --  -38.43275 -38.42977  -2.19964  -2.19845  -2.19338
  Beta  occ. eigenvalues --   -2.19306  -2.19212  -2.19175  -2.18907  -1.13645
  Beta  occ. eigenvalues --   -1.13614  -1.13598  -1.13514  -1.13501  -1.13482
  Beta  occ. eigenvalues --   -1.13093  -1.13043  -1.13007  -1.12985  -1.12970
  Beta  occ. eigenvalues --   -1.12944  -1.12935  -1.12892  -1.12867  -1.12844
  Beta  occ. eigenvalues --   -1.12809  -1.12793  -1.12609  -1.12545  -1.12510
  Beta  occ. eigenvalues --   -0.18301  -0.13045  -0.12021
  Beta virt. eigenvalues --   -0.07009  -0.05762  -0.05212  -0.03978  -0.02566
  Beta virt. eigenvalues --   -0.02075  -0.01687  -0.01548  -0.01105  -0.00095
  Beta virt. eigenvalues --    0.00052   0.00109   0.00348   0.00829   0.00883

 Mulliken charges and spin densities:
               1          2
     1  Na   0.352922   0.012716
     2  Na  -0.637811   0.738155
     3  Na   0.182674  -0.106169
     4  Na   0.174128  -0.089914
     5  Na   0.382882   0.023663
     6  Na  -0.050152  -0.066659
     7  Na  -0.404644   0.488208
 Sum of Mulliken charges =  -0.00000   1.00000

 Dipole moment (field-independent basis, Debye):
    X=             -0.1740    Y=             -0.0136    Z=             -0.1394  Tot=              0.2234
 Quadrupole moment (field-independent basis, Debye-Ang):
   XX=            -52.5522   YY=            -67.6146   ZZ=            -72.8917
   XY=             -0.1584   XZ=              1.0143   YZ=              0.6450

 Normal termination of Gaussian 16 at Fri Dec  8 00:30:13 2023.
