 Gaussian 16, Revision B.01,
 Gaussian 16:  ES64L-G16RevB.01 20-Dec-2017

 -------------------------
 #P B3LYP/6-311+g(d) force
 -------------------------

 -----
 DPGEN
 -----
 Symbolic Z-matrix:
 Charge =  0 Multiplicity = 2

                         Standard orientation:
 ---------------------------------------------------------------------
 Center     Atomic      Atomic             Coordinates (Angstroms)
 Number     Number       Type             X           Y           Z
 ---------------------------------------------------------------------
      1         11           0        1.285412    3.187540   -1.586098
      2         11           0        3.040328    0.316506    0.621180
      3         11           0       -2.680096   -0.602008    1.134840
      4         11           0        2.817656   -3.104592   -0.701766
      5         11           0       -5.289892   -0.382633   -0.937652
      6         11           0        0.291645    1.078827    2.372231
      7         11           0        0.534947   -0.493639   -0.902735
 ---------------------------------------------------------------------

 SCF Done:  E(UB3LYP) =  -1136.11072308     A.U. after   23 cycles

 The electronic state is 2-A.
 Alpha  occ. eigenvalues --  -38.45180 -38.44804 -38.44702 -38.44675 -38.43984
 Alpha  occ. eigenvalues --  -38.43677 -38.42936  -2.21044  -2.20684  -2.20474
 Alpha  occ. eigenvalues --   -2.20462  -2.19830  -2.19476  -2.18721  -1.14806
 Alpha  occ. eigenvalues --   -1.14737  -1.14612  -1.14379  -1.14362  -1.14274
 Alpha  occ. eigenvalues --   -1.14126  -1.14125  -1.14114  -1.14104  -1.14101
 Alpha  occ. eigenvalues --   -1.14056  -1.13500  -1.13477  -1.13439  -1.13168
 Alpha  occ. eigenvalues --   -1.13151  -1.13111  -1.12397  -1.12393  -1.12357
 Alpha  occ. eigenvalues --   -0.17398  -0.13347  -0.11748  -0.11279
 Alpha virt. eigenvalues --   -0.07278  -0.05425  -0.04240  -0.03250  -0.02791
 Alpha virt. eigenvalues --   -0.02607  -0.02314  -0.01401  -0.01378  -0.00824
 Alpha virt. eigenvalues --   -0.00396  -0.00238   0.00018   0.00535   0.00591

  Beta  occ. eigenvalues --  -38.45183 -38.44798 -38.44657 -38.44574 -38.43919
  Beta  occ. eigenvalues --  -38.43677 -38.42951  -2.21051  -2.20676  -2.20390
  Beta  occ. eigenvalues --   -2.20273  -2.19710  -2.19481  -2.18750  -1.14813
  Beta  occ. eigenvalues --   -1.14714  -1.14629  -1.14375  -1.14334  -1.14275
  Beta  occ. eigenvalues --   -1.14068  -1.14067  -1.14047  -1.13985  -1.13971
  Beta  occ. eigenvalues --   -1.13935  -1.13418  -1.13394  -1.13360  -1.13177
  Beta  occ. eigenvalues --   -1.13159  -1.13076  -1.12418  -1.12412  -1.12373
  Beta  occ. eigenvalues --   -0.16890  -0.12909  -0.11339
  Beta virt. eigenvalues --   -0.07732  -0.06973  -0.05025  -0.04035  -0.02914
  Beta virt. eigenvalues --   -0.02451  -0.02361  -0.02017  -0.01202  -0.00824
  Beta virt. eigenvalues --   -0.00604  -0.00255  -0.00022   0.00073   0.00600

 Mulliken charges and spin densities:
               1          2
     1  Na  -0.056214   0.384659
     2  Na   1.064637   0.134443
     3  Na   0.086801  -0.035774
     4  Na   0.146645  -0.172662
     5  Na   0.017779   0.251825
     6  Na  -0.124640   0.111738
     7  Na  -1.135008   0.325772
 Sum of Mulliken charges =  -0.00000   1.00000

 Dipole moment (field-independent basis, Debye):
    X=              0.2604    Y=              0.8523    Z=              0.1199  Tot=              0.8992
 Quadrupole moment (field-independent basis, Debye-Ang):
   XX=            -59.0239   YY=            -69.6235   ZZ=            -68.1422
   XY=              1.0734   XZ=              7.7976   YZ=             -0.9191

 Normal termination of Gaussian 16 at Wed Nov 29 03:53:18 2023.
