 Gaussian 16, Revision B.01,
 Gaussian 16:  ES64L-G16RevB.01 20-Dec-2017

 -------------------------
 #P B3LYP/6-311+g(d) force
 -------------------------

 -----
 DPGEN
 -----
 Symbolic Z-matrix:
 Charge =  0 Multiplicity = 2

                         Standard orientation:
 ---------------------------------------------------------------------
 Center     Atomic      Atomic             Coordinates (Angstroms)
 Number     Number       Type             X           Y           Z
 ---------------------------------------------------------------------
      1         11           0       -0.380849   -0.954371    1.825243
      2         11           0        0.583651   -1.194072   -0.780757
      3         11           0        3.330751   -0.445772   -0.224057
      4         11           0        1.235652    1.405428    0.558743
      5         11           0       -1.519148    1.389629    0.860443
      6         11           0       -0.787048    1.013129   -1.791557
      7         11           0       -2.463009   -1.213971   -0.448057
 ---------------------------------------------------------------------

 SCF Done:  E(UB3LYP) =  -1136.08141212     A.U. after   24 cycles

 The electronic state is 2-A.
 Alpha  occ. eigenvalues --  -38.44843 -38.43988 -38.43881 -38.43786 -38.43745
 Alpha  occ. eigenvalues --  -38.43617 -38.43189  -2.20756  -2.20137  -2.20082
 Alpha  occ. eigenvalues --   -2.19928  -2.19869  -2.19783  -2.19376  -1.14506
 Alpha  occ. eigenvalues --   -1.14449  -1.14346  -1.14148  -1.13997  -1.13945
 Alpha  occ. eigenvalues --   -1.13864  -1.13828  -1.13694  -1.13589  -1.13547
 Alpha  occ. eigenvalues --   -1.13484  -1.13449  -1.13413  -1.13398  -1.13374
 Alpha  occ. eigenvalues --   -1.13348  -1.13336  -1.13060  -1.12997  -1.12923
 Alpha  occ. eigenvalues --   -0.21311  -0.14179  -0.12949  -0.11498
 Alpha virt. eigenvalues --   -0.06162  -0.04229  -0.03765  -0.03593  -0.02828
 Alpha virt. eigenvalues --   -0.02641  -0.01758  -0.00539  -0.00230   0.00253
 Alpha virt. eigenvalues --    0.00572   0.00669   0.00862   0.01025   0.01063

  Beta  occ. eigenvalues --  -38.44843 -38.43919 -38.43833 -38.43727 -38.43724
  Beta  occ. eigenvalues --  -38.43572 -38.43157  -2.20757  -2.20037  -2.19981
  Beta  occ. eigenvalues --   -2.19832  -2.19783  -2.19749  -2.19324  -1.14505
  Beta  occ. eigenvalues --   -1.14444  -1.14343  -1.14076  -1.13908  -1.13870
  Beta  occ. eigenvalues --   -1.13791  -1.13758  -1.13609  -1.13523  -1.13472
  Beta  occ. eigenvalues --   -1.13416  -1.13391  -1.13378  -1.13337  -1.13317
  Beta  occ. eigenvalues --   -1.13300  -1.13254  -1.13023  -1.12932  -1.12877
  Beta  occ. eigenvalues --   -0.20405  -0.13942  -0.11359
  Beta virt. eigenvalues --   -0.08376  -0.06041  -0.03865  -0.03233  -0.03172
  Beta virt. eigenvalues --   -0.02228  -0.01787  -0.01671  -0.00355  -0.00115
  Beta virt. eigenvalues --    0.00290   0.00611   0.00733   0.00993   0.01045

 Mulliken charges and spin densities:
               1          2
     1  Na   0.214397   0.349306
     2  Na  -0.432721   0.278351
     3  Na   0.111666  -0.064363
     4  Na  -0.441110   0.016643
     5  Na   0.088671   0.135408
     6  Na   0.211211   0.392751
     7  Na   0.247885  -0.108097
 Sum of Mulliken charges =  -0.00000   1.00000

 Dipole moment (field-independent basis, Debye):
    X=              0.3951    Y=             -0.1516    Z=             -0.1618  Tot=              0.4531
 Quadrupole moment (field-independent basis, Debye-Ang):
   XX=            -52.6868   YY=            -77.3739   ZZ=            -65.0116
   XY=              0.1493   XZ=              0.5113   YZ=              3.0585

 Normal termination of Gaussian 16 at Fri Dec  8 20:03:56 2023.
