 Gaussian 16, Revision B.01,
 Gaussian 16:  ES64L-G16RevB.01 20-Dec-2017

 -------------------------
 #P B3LYP/6-311+g(d) force
 -------------------------

 -----
 DPGEN
 -----
 Symbolic Z-matrix:
 Charge =  0 Multiplicity = 2

                         Standard orientation:
 ---------------------------------------------------------------------
 Center     Atomic      Atomic             Coordinates (Angstroms)
 Number     Number       Type             X           Y           Z
 ---------------------------------------------------------------------
      1         11           0        2.342458    1.227403    1.787238
      2         11           0        2.462359    0.198276   -1.536224
      3         11           0       -0.025906    2.686585    0.065258
      4         11           0       -3.289038    0.357734   -1.628606
      5         11           0       -0.560351   -0.903320   -0.063721
      6         11           0       -3.938050   -1.167064    1.430094
      7         11           0        3.008527   -2.399614   -0.054039
 ---------------------------------------------------------------------

 SCF Done:  E(UB3LYP) =  -1136.12008122     A.U. after   22 cycles

 The electronic state is 2-A.
 Alpha  occ. eigenvalues --  -38.44860 -38.44710 -38.44460 -38.44149 -38.43738
 Alpha  occ. eigenvalues --  -38.43332 -38.42870  -2.20658  -2.20598  -2.20311
 Alpha  occ. eigenvalues --   -2.19956  -2.19594  -2.19166  -2.18700  -1.14343
 Alpha  occ. eigenvalues --   -1.14313  -1.14288  -1.14280  -1.14277  -1.14213
 Alpha  occ. eigenvalues --   -1.14034  -1.13985  -1.13915  -1.13614  -1.13606
 Alpha  occ. eigenvalues --   -1.13561  -1.13264  -1.13235  -1.13210  -1.12851
 Alpha  occ. eigenvalues --   -1.12811  -1.12810  -1.12384  -1.12366  -1.12334
 Alpha  occ. eigenvalues --   -0.17582  -0.14232  -0.11492  -0.10159
 Alpha virt. eigenvalues --   -0.06370  -0.06140  -0.04793  -0.03232  -0.02662
 Alpha virt. eigenvalues --   -0.02347  -0.02244  -0.01274  -0.00889  -0.00572
 Alpha virt. eigenvalues --   -0.00217   0.00118   0.00197   0.00272   0.00568

  Beta  occ. eigenvalues --  -38.44843 -38.44692 -38.44446 -38.44086 -38.43683
  Beta  occ. eigenvalues --  -38.43337 -38.42869  -2.20629  -2.20567  -2.20290
  Beta  occ. eigenvalues --   -2.19836  -2.19489  -2.19177  -2.18699  -1.14321
  Beta  occ. eigenvalues --   -1.14295  -1.14260  -1.14249  -1.14238  -1.14196
  Beta  occ. eigenvalues --   -1.13988  -1.13963  -1.13907  -1.13530  -1.13524
  Beta  occ. eigenvalues --   -1.13486  -1.13191  -1.13169  -1.13138  -1.12857
  Beta  occ. eigenvalues --   -1.12819  -1.12810  -1.12385  -1.12367  -1.12310
  Beta  occ. eigenvalues --   -0.17085  -0.13854  -0.11305
  Beta virt. eigenvalues --   -0.06844  -0.06219  -0.05338  -0.04597  -0.03099
  Beta virt. eigenvalues --   -0.02514  -0.01960  -0.01656  -0.00964  -0.00572
  Beta virt. eigenvalues --   -0.00473   0.00082   0.00191   0.00342   0.00434

 Mulliken charges and spin densities:
               1          2
     1  Na  -0.191502   0.256044
     2  Na   0.786317   0.098144
     3  Na   0.093837   0.079849
     4  Na   0.601481   0.081940
     5  Na  -2.197571   0.263204
     6  Na   0.517618   0.216876
     7  Na   0.389820   0.003943
 Sum of Mulliken charges =  -0.00000   1.00000

 Dipole moment (field-independent basis, Debye):
    X=             -0.3733    Y=              0.2516    Z=             -0.5514  Tot=              0.7118
 Quadrupole moment (field-independent basis, Debye-Ang):
   XX=            -57.3069   YY=            -73.0506   ZZ=            -67.2313
   XY=             -2.7417   XZ=              2.5080   YZ=             -5.5833

 Normal termination of Gaussian 16 at Tue Dec  5 16:14:38 2023.
