 Gaussian 16, Revision B.01,
 Gaussian 16:  ES64L-G16RevB.01 20-Dec-2017

 -------------------------
 #P B3LYP/6-311+g(d) force
 -------------------------

 -----
 DPGEN
 -----
 Symbolic Z-matrix:
 Charge =  0 Multiplicity = 2

                         Standard orientation:
 ---------------------------------------------------------------------
 Center     Atomic      Atomic             Coordinates (Angstroms)
 Number     Number       Type             X           Y           Z
 ---------------------------------------------------------------------
      1         11           0       -2.326951    1.583365    0.174942
      2         11           0        1.015660    2.847552   -0.141542
      3         11           0       -3.602080   -1.426467   -0.810023
      4         11           0       -0.254601   -1.179244   -0.941390
      5         11           0       -0.375955   -0.014868    2.255231
      6         11           0        2.909991    0.422053   -1.245193
      7         11           0        2.633935   -2.232392    0.707975
 ---------------------------------------------------------------------

 SCF Done:  E(UB3LYP) =  -1136.12904390     A.U. after   20 cycles

 The electronic state is 2-A.
 Alpha  occ. eigenvalues --  -38.44497 -38.44001 -38.43994 -38.43976 -38.43968
 Alpha  occ. eigenvalues --  -38.43814 -38.42853  -2.20358  -2.19862  -2.19842
 Alpha  occ. eigenvalues --   -2.19820  -2.19791  -2.19705  -2.18673  -1.14034
 Alpha  occ. eigenvalues --   -1.13989  -1.13962  -1.13557  -1.13546  -1.13532
 Alpha  occ. eigenvalues --   -1.13519  -1.13497  -1.13491  -1.13483  -1.13469
 Alpha  occ. eigenvalues --   -1.13460  -1.13439  -1.13423  -1.13415  -1.13404
 Alpha  occ. eigenvalues --   -1.13379  -1.13288  -1.12352  -1.12345  -1.12307
 Alpha  occ. eigenvalues --   -0.18064  -0.13786  -0.11824  -0.11095
 Alpha virt. eigenvalues --   -0.05984  -0.05516  -0.04715  -0.03299  -0.02839
 Alpha virt. eigenvalues --   -0.02508  -0.02122  -0.01206  -0.00482  -0.00218
 Alpha virt. eigenvalues --   -0.00037   0.00217   0.00477   0.00606   0.00780

  Beta  occ. eigenvalues --  -38.44394 -38.43990 -38.43989 -38.43940 -38.43939
  Beta  occ. eigenvalues --  -38.43803 -38.42850  -2.20169  -2.19857  -2.19801
  Beta  occ. eigenvalues --   -2.19773  -2.19738  -2.19687  -2.18670  -1.13910
  Beta  occ. eigenvalues --   -1.13858  -1.13827  -1.13547  -1.13532  -1.13506
  Beta  occ. eigenvalues --   -1.13480  -1.13476  -1.13464  -1.13454  -1.13441
  Beta  occ. eigenvalues --   -1.13425  -1.13400  -1.13390  -1.13382  -1.13379
  Beta  occ. eigenvalues --   -1.13360  -1.13273  -1.12351  -1.12341  -1.12292
  Beta  occ. eigenvalues --   -0.17436  -0.13442  -0.11544
  Beta virt. eigenvalues --   -0.07461  -0.05844  -0.05138  -0.04329  -0.02986
  Beta virt. eigenvalues --   -0.02329  -0.01887  -0.01735  -0.01104  -0.00326
  Beta virt. eigenvalues --   -0.00072   0.00035   0.00280   0.00640   0.00791

 Mulliken charges and spin densities:
               1          2
     1  Na   0.558958   0.035771
     2  Na  -0.648105   0.059408
     3  Na   0.097639   0.188123
     4  Na  -1.127533   0.341820
     5  Na   0.027877   0.376140
     6  Na   0.868470  -0.024853
     7  Na   0.222695   0.023590
 Sum of Mulliken charges =  -0.00000   1.00000

 Dipole moment (field-independent basis, Debye):
    X=             -0.2347    Y=             -0.4746    Z=              0.4813  Tot=              0.7155
 Quadrupole moment (field-independent basis, Debye-Ang):
   XX=            -55.3549   YY=            -69.9333   ZZ=            -70.2850
   XY=             -2.4161   XZ=              0.3667   YZ=             -1.4243

 Normal termination of Gaussian 16 at Wed Nov 29 16:09:36 2023.
