 Gaussian 16, Revision B.01,
 Gaussian 16:  ES64L-G16RevB.01 20-Dec-2017

 -------------------------
 #P B3LYP/6-311+g(d) force
 -------------------------

 -----
 DPGEN
 -----
 Symbolic Z-matrix:
 Charge =  0 Multiplicity = 2

                         Standard orientation:
 ---------------------------------------------------------------------
 Center     Atomic      Atomic             Coordinates (Angstroms)
 Number     Number       Type             X           Y           Z
 ---------------------------------------------------------------------
      1         11           0       -1.038303   -2.285436   -0.126795
      2         11           0       -3.407906   -0.177611   -0.248342
      3         11           0        2.472991    1.818487   -0.361960
      4         11           0       -1.121517    2.444044    0.161367
      5         11           0        0.192809    0.109734   -1.507608
      6         11           0        2.571026   -1.840843   -0.134176
      7         11           0        0.330899   -0.068374    2.217514
 ---------------------------------------------------------------------

 SCF Done:  E(UB3LYP) =  -1136.13337313     A.U. after   20 cycles

 The electronic state is 2-A.
 Alpha  occ. eigenvalues --  -38.44273 -38.43853 -38.43810 -38.43805 -38.43268
 Alpha  occ. eigenvalues --  -38.43174 -38.43058  -2.20102  -2.19710  -2.19686
 Alpha  occ. eigenvalues --   -2.19645  -2.19325  -2.19047  -2.18981  -1.13783
 Alpha  occ. eigenvalues --   -1.13759  -1.13742  -1.13447  -1.13365  -1.13348
 Alpha  occ. eigenvalues --   -1.13334  -1.13323  -1.13314  -1.13305  -1.13285
 Alpha  occ. eigenvalues --   -1.13279  -1.13048  -1.13006  -1.12934  -1.12729
 Alpha  occ. eigenvalues --   -1.12714  -1.12669  -1.12654  -1.12637  -1.12583
 Alpha  occ. eigenvalues --   -0.18893  -0.13260  -0.12189  -0.10986
 Alpha virt. eigenvalues --   -0.05874  -0.05276  -0.04014  -0.03205  -0.02815
 Alpha virt. eigenvalues --   -0.02764  -0.01815  -0.01166  -0.00243  -0.00048
 Alpha virt. eigenvalues --    0.00026   0.00305   0.00736   0.00883   0.00929

  Beta  occ. eigenvalues --  -38.44273 -38.43843 -38.43807 -38.43695 -38.43214
  Beta  occ. eigenvalues --  -38.43168 -38.43049  -2.20103  -2.19695  -2.19642
  Beta  occ. eigenvalues --   -2.19483  -2.19229  -2.19038  -2.18969  -1.13786
  Beta  occ. eigenvalues --   -1.13746  -1.13744  -1.13426  -1.13342  -1.13321
  Beta  occ. eigenvalues --   -1.13310  -1.13292  -1.13275  -1.13213  -1.13168
  Beta  occ. eigenvalues --   -1.13152  -1.12983  -1.12943  -1.12868  -1.12717
  Beta  occ. eigenvalues --   -1.12679  -1.12656  -1.12650  -1.12603  -1.12574
  Beta  occ. eigenvalues --   -0.18164  -0.13028  -0.11949
  Beta virt. eigenvalues --   -0.06984  -0.05804  -0.05277  -0.04007  -0.02476
  Beta virt. eigenvalues --   -0.01983  -0.01736  -0.01642  -0.01125  -0.00254
  Beta virt. eigenvalues --   -0.00012   0.00105   0.00339   0.00806   0.00879

 Mulliken charges and spin densities:
               1          2
     1  Na   0.517434   0.077938
     2  Na  -0.038469  -0.031730
     3  Na   0.359137   0.009380
     4  Na   0.376212   0.068904
     5  Na  -0.837387   0.193359
     6  Na   0.341586  -0.003291
     7  Na  -0.718512   0.685440
 Sum of Mulliken charges =  -0.00000   1.00000

 Dipole moment (field-independent basis, Debye):
    X=              0.1233    Y=              0.0638    Z=              0.2637  Tot=              0.2980
 Quadrupole moment (field-independent basis, Debye-Ang):
   XX=            -52.3931   YY=            -67.2536   ZZ=            -73.3727
   XY=             -0.7239   XZ=             -0.0095   YZ=              0.2730

 Normal termination of Gaussian 16 at Thu Dec  7 08:13:40 2023.
