 Gaussian 16, Revision B.01,
 Gaussian 16:  ES64L-G16RevB.01 20-Dec-2017

 -------------------------
 #P B3LYP/6-311+g(d) force
 -------------------------

 -----
 DPGEN
 -----
 Symbolic Z-matrix:
 Charge =  0 Multiplicity = 2

                         Standard orientation:
 ---------------------------------------------------------------------
 Center     Atomic      Atomic             Coordinates (Angstroms)
 Number     Number       Type             X           Y           Z
 ---------------------------------------------------------------------
      1         11           0       -3.038978    0.159439   -0.962562
      2         11           0       -0.975324   -2.615342   -1.422392
      3         11           0        4.746371   -0.303813    0.361161
      4         11           0        1.784812   -0.537306   -0.438833
      5         11           0       -1.011733    2.274620    1.533447
      6         11           0        0.063291    2.598230   -1.369510
      7         11           0       -1.568438   -1.575829    2.298689
 ---------------------------------------------------------------------

 SCF Done:  E(UB3LYP) =  -1136.11686285     A.U. after   22 cycles

 The electronic state is 2-A.
 Alpha  occ. eigenvalues --  -38.45356 -38.44627 -38.44354 -38.43970 -38.43960
 Alpha  occ. eigenvalues --  -38.43830 -38.43120  -2.21134  -2.20413  -2.20133
 Alpha  occ. eigenvalues --   -2.19798  -2.19784  -2.19635  -2.18960  -1.14821
 Alpha  occ. eigenvalues --   -1.14791  -1.14753  -1.14074  -1.14056  -1.14017
 Alpha  occ. eigenvalues --   -1.13813  -1.13784  -1.13779  -1.13551  -1.13459
 Alpha  occ. eigenvalues --   -1.13452  -1.13436  -1.13415  -1.13358  -1.13309
 Alpha  occ. eigenvalues --   -1.13290  -1.13260  -1.12648  -1.12615  -1.12605
 Alpha  occ. eigenvalues --   -0.17210  -0.12590  -0.12214  -0.11246
 Alpha virt. eigenvalues --   -0.06964  -0.05035  -0.04459  -0.03322  -0.03105
 Alpha virt. eigenvalues --   -0.02706  -0.02423  -0.00842  -0.00633  -0.00505
 Alpha virt. eigenvalues --   -0.00438  -0.00099   0.00263   0.00471   0.00655

  Beta  occ. eigenvalues --  -38.45334 -38.44539 -38.44355 -38.43948 -38.43942
  Beta  occ. eigenvalues --  -38.43805 -38.43115  -2.21097  -2.20251  -2.20135
  Beta  occ. eigenvalues --   -2.19760  -2.19750  -2.19590  -2.18953  -1.14776
  Beta  occ. eigenvalues --   -1.14766  -1.14730  -1.13963  -1.13942  -1.13903
  Beta  occ. eigenvalues --   -1.13814  -1.13785  -1.13781  -1.13525  -1.13431
  Beta  occ. eigenvalues --   -1.13427  -1.13409  -1.13387  -1.13326  -1.13277
  Beta  occ. eigenvalues --   -1.13248  -1.13233  -1.12627  -1.12612  -1.12604
  Beta  occ. eigenvalues --   -0.16540  -0.12419  -0.12073
  Beta virt. eigenvalues --   -0.07441  -0.06758  -0.04421  -0.04300  -0.03161
  Beta virt. eigenvalues --   -0.02660  -0.02220  -0.01913  -0.00809  -0.00475
  Beta virt. eigenvalues --   -0.00227  -0.00186  -0.00052   0.00302   0.00616

 Mulliken charges and spin densities:
               1          2
     1  Na  -0.167603   0.294996
     2  Na   1.523739  -0.148943
     3  Na  -0.363692  -0.033425
     4  Na  -1.743329   0.362277
     5  Na  -0.087176   0.149723
     6  Na   0.768742  -0.053267
     7  Na   0.069320   0.428638
 Sum of Mulliken charges =  -0.00000   1.00000

 Dipole moment (field-independent basis, Debye):
    X=             -0.5893    Y=              0.2494    Z=              0.0086  Tot=              0.6399
 Quadrupole moment (field-independent basis, Debye-Ang):
   XX=            -58.0333   YY=            -69.6280   ZZ=            -67.2943
   XY=              0.5435   XZ=              2.6076   YZ=             -1.0461

 Normal termination of Gaussian 16 at Sun Dec  3 19:09:17 2023.
