 Gaussian 16, Revision B.01,
 Gaussian 16:  ES64L-G16RevB.01 20-Dec-2017

 -------------------------
 #P B3LYP/6-311+g(d) force
 -------------------------

 -----
 DPGEN
 -----
 Symbolic Z-matrix:
 Charge =  0 Multiplicity = 2

                         Standard orientation:
 ---------------------------------------------------------------------
 Center     Atomic      Atomic             Coordinates (Angstroms)
 Number     Number       Type             X           Y           Z
 ---------------------------------------------------------------------
      1         11           0        4.050457   -1.640265   -0.116158
      2         11           0        0.019649   -2.371280    0.991131
      3         11           0       -3.048161   -2.129559   -1.259322
      4         11           0       -3.549893    0.757923   -0.448844
      5         11           0        3.490375    1.238507   -0.988040
      6         11           0       -0.221647    3.153643   -0.352859
      7         11           0       -0.740779    0.991031    2.174092
 ---------------------------------------------------------------------

 SCF Done:  E(UB3LYP) =  -1136.11218796     A.U. after   20 cycles

 The electronic state is 2-A.
 Alpha  occ. eigenvalues --  -38.44839 -38.44658 -38.44478 -38.44435 -38.44228
 Alpha  occ. eigenvalues --  -38.43960 -38.43871  -2.20666  -2.20470  -2.20254
 Alpha  occ. eigenvalues --   -2.20229  -2.20016  -2.19778  -2.19643  -1.14359
 Alpha  occ. eigenvalues --   -1.14328  -1.14277  -1.14140  -1.14123  -1.14089
 Alpha  occ. eigenvalues --   -1.13944  -1.13917  -1.13911  -1.13890  -1.13864
 Alpha  occ. eigenvalues --   -1.13862  -1.13675  -1.13655  -1.13652  -1.13461
 Alpha  occ. eigenvalues --   -1.13431  -1.13398  -1.13318  -1.13311  -1.13279
 Alpha  occ. eigenvalues --   -0.16489  -0.13662  -0.12059  -0.11370
 Alpha virt. eigenvalues --   -0.06613  -0.05725  -0.04235  -0.03591  -0.03530
 Alpha virt. eigenvalues --   -0.02203  -0.02047  -0.01683  -0.01018  -0.00740
 Alpha virt. eigenvalues --   -0.00310  -0.00083   0.00184   0.00550   0.00689

  Beta  occ. eigenvalues --  -38.44789 -38.44602 -38.44411 -38.44406 -38.44230
  Beta  occ. eigenvalues --  -38.43938 -38.43873  -2.20577  -2.20368  -2.20175
  Beta  occ. eigenvalues --   -2.20129  -2.20023  -2.19741  -2.19646  -1.14295
  Beta  occ. eigenvalues --   -1.14270  -1.14203  -1.14071  -1.14059  -1.14003
  Beta  occ. eigenvalues --   -1.13914  -1.13853  -1.13832  -1.13824  -1.13815
  Beta  occ. eigenvalues --   -1.13787  -1.13681  -1.13659  -1.13639  -1.13425
  Beta  occ. eigenvalues --   -1.13409  -1.13365  -1.13318  -1.13311  -1.13281
  Beta  occ. eigenvalues --   -0.15793  -0.13153  -0.11916
  Beta virt. eigenvalues --   -0.07746  -0.06523  -0.05275  -0.03911  -0.03226
  Beta virt. eigenvalues --   -0.03006  -0.02073  -0.01562  -0.01520  -0.00848
  Beta virt. eigenvalues --   -0.00726  -0.00073   0.00139   0.00289   0.00664

 Mulliken charges and spin densities:
               1          2
     1  Na   0.403602  -0.053898
     2  Na  -0.664870   0.382085
     3  Na   0.437698   0.001514
     4  Na  -0.356084   0.326876
     5  Na  -0.311836   0.180610
     6  Na   0.032193  -0.036610
     7  Na   0.459296   0.199425
 Sum of Mulliken charges =  -0.00000   1.00000

 Dipole moment (field-independent basis, Debye):
    X=             -0.1270    Y=              0.1284    Z=              0.0200  Tot=              0.1817
 Quadrupole moment (field-independent basis, Debye-Ang):
   XX=            -67.5468   YY=            -64.8405   ZZ=            -69.1076
   XY=             -3.2254   XZ=             -0.2358   YZ=             -1.6002

 Normal termination of Gaussian 16 at Mon Dec  4 03:25:08 2023.
