 Gaussian 16, Revision B.01,
 Gaussian 16:  ES64L-G16RevB.01 20-Dec-2017

 -------------------------
 #P B3LYP/6-311+g(d) force
 -------------------------

 -----
 DPGEN
 -----
 Symbolic Z-matrix:
 Charge =  0 Multiplicity = 2

                         Standard orientation:
 ---------------------------------------------------------------------
 Center     Atomic      Atomic             Coordinates (Angstroms)
 Number     Number       Type             X           Y           Z
 ---------------------------------------------------------------------
      1         11           0        3.162505    0.762855    0.086892
      2         11           0       -1.577855   -2.317098    0.226261
      3         11           0       -3.050867    0.695417    0.454120
      4         11           0        0.651889   -0.339394    2.086588
      5         11           0       -0.757146    0.353660   -1.995860
      6         11           0       -0.099495    2.750217   -0.016934
      7         11           0        1.670970   -1.905658   -0.841066
 ---------------------------------------------------------------------

 SCF Done:  E(UB3LYP) =  -1136.13612280     A.U. after   19 cycles

 The electronic state is 2-A.
 Alpha  occ. eigenvalues --  -38.44248 -38.44098 -38.44084 -38.43811 -38.43329
 Alpha  occ. eigenvalues --  -38.43095 -38.42972  -2.20084  -2.19977  -2.19919
 Alpha  occ. eigenvalues --   -2.19731  -2.19229  -2.18936  -2.18844  -1.13764
 Alpha  occ. eigenvalues --   -1.13747  -1.13718  -1.13655  -1.13627  -1.13611
 Alpha  occ. eigenvalues --   -1.13603  -1.13558  -1.13545  -1.13409  -1.13365
 Alpha  occ. eigenvalues --   -1.13357  -1.12904  -1.12877  -1.12868  -1.12637
 Alpha  occ. eigenvalues --   -1.12604  -1.12547  -1.12519  -1.12506  -1.12488
 Alpha  occ. eigenvalues --   -0.18608  -0.13237  -0.12059  -0.11343
 Alpha virt. eigenvalues --   -0.05894  -0.04735  -0.04320  -0.03704  -0.03071
 Alpha virt. eigenvalues --   -0.03000  -0.01548  -0.00766  -0.00221  -0.00084
 Alpha virt. eigenvalues --    0.00056   0.00401   0.00677   0.00845   0.00917

  Beta  occ. eigenvalues --  -38.44241 -38.44084 -38.44022 -38.43739 -38.43304
  Beta  occ. eigenvalues --  -38.43091 -38.42966  -2.20073  -2.19921  -2.19837
  Beta  occ. eigenvalues --   -2.19599  -2.19185  -2.18932  -2.18837  -1.13755
  Beta  occ. eigenvalues --   -1.13728  -1.13709  -1.13618  -1.13584  -1.13555
  Beta  occ. eigenvalues --   -1.13545  -1.13511  -1.13483  -1.13323  -1.13272
  Beta  occ. eigenvalues --   -1.13257  -1.12875  -1.12844  -1.12822  -1.12627
  Beta  occ. eigenvalues --   -1.12587  -1.12547  -1.12516  -1.12488  -1.12470
  Beta  occ. eigenvalues --   -0.17845  -0.13056  -0.11826
  Beta virt. eigenvalues --   -0.07431  -0.05764  -0.04725  -0.04135  -0.03064
  Beta virt. eigenvalues --   -0.02308  -0.01985  -0.01453  -0.00699  -0.00182
  Beta virt. eigenvalues --    0.00018   0.00062   0.00430   0.00859   0.00919

 Mulliken charges and spin densities:
               1          2
     1  Na   0.195380  -0.060493
     2  Na   0.159123   0.030410
     3  Na   0.130261  -0.014720
     4  Na  -0.488744   0.584747
     5  Na  -0.175648   0.406325
     6  Na   0.027703  -0.084002
     7  Na   0.151925   0.137734
 Sum of Mulliken charges =  -0.00000   1.00000

 Dipole moment (field-independent basis, Debye):
    X=             -0.0224    Y=              0.1850    Z=              0.2175  Tot=              0.2864
 Quadrupole moment (field-independent basis, Debye-Ang):
   XX=            -56.8493   YY=            -69.4557   ZZ=            -69.3539
   XY=              0.5484   XZ=             -2.0783   YZ=              1.3791

 Normal termination of Gaussian 16 at Wed Dec  6 01:09:03 2023.
