 Gaussian 16, Revision B.01,
 Gaussian 16:  ES64L-G16RevB.01 20-Dec-2017

 -------------------------
 #P B3LYP/6-311+g(d) force
 -------------------------

 -----
 DPGEN
 -----
 Symbolic Z-matrix:
 Charge =  0 Multiplicity = 2

                         Standard orientation:
 ---------------------------------------------------------------------
 Center     Atomic      Atomic             Coordinates (Angstroms)
 Number     Number       Type             X           Y           Z
 ---------------------------------------------------------------------
      1         11           0       -1.967836    1.974074   -0.141537
      2         11           0       -0.348151    0.027494    1.902348
      3         11           0        2.734635   -0.520812    0.034079
      4         11           0        0.131028    0.093142   -1.771925
      5         11           0        0.511948   -2.613294    0.020614
      6         11           0       -2.432817   -1.371950   -0.150358
      7         11           0        1.371194    2.411345    0.106778
 ---------------------------------------------------------------------

 SCF Done:  E(UB3LYP) =  -1136.13633695     A.U. after   17 cycles

 The electronic state is 2-A.
 Alpha  occ. eigenvalues --  -38.43434 -38.43384 -38.43366 -38.43359 -38.43312
 Alpha  occ. eigenvalues --  -38.43257 -38.43173  -2.19432  -2.19308  -2.19305
 Alpha  occ. eigenvalues --   -2.19298  -2.19295  -2.19232  -2.19134  -1.13153
 Alpha  occ. eigenvalues --   -1.13098  -1.13092  -1.13059  -1.13043  -1.13030
 Alpha  occ. eigenvalues --   -1.13013  -1.12977  -1.12954  -1.12951  -1.12940
 Alpha  occ. eigenvalues --   -1.12929  -1.12927  -1.12902  -1.12883  -1.12876
 Alpha  occ. eigenvalues --   -1.12859  -1.12833  -1.12780  -1.12773  -1.12734
 Alpha  occ. eigenvalues --   -0.19765  -0.13105  -0.12967  -0.11244
 Alpha virt. eigenvalues --   -0.05004  -0.04882  -0.04661  -0.03239  -0.03158
 Alpha virt. eigenvalues --   -0.02686  -0.01067  -0.00979  -0.00024   0.00132
 Alpha virt. eigenvalues --    0.00188   0.00377   0.00951   0.00986   0.01014

  Beta  occ. eigenvalues --  -38.43376 -38.43358 -38.43354 -38.43347 -38.43306
  Beta  occ. eigenvalues --  -38.43177 -38.43165  -2.19296  -2.19293  -2.19286
  Beta  occ. eigenvalues --   -2.19271  -2.19224  -2.19160  -2.19125  -1.13091
  Beta  occ. eigenvalues --   -1.13061  -1.13031  -1.13021  -1.12983  -1.12977
  Beta  occ. eigenvalues --   -1.12965  -1.12955  -1.12914  -1.12908  -1.12897
  Beta  occ. eigenvalues --   -1.12891  -1.12884  -1.12863  -1.12849  -1.12834
  Beta  occ. eigenvalues --   -1.12811  -1.12787  -1.12764  -1.12735  -1.12723
  Beta  occ. eigenvalues --   -0.18987  -0.12825  -0.12678
  Beta virt. eigenvalues --   -0.07239  -0.05010  -0.04860  -0.04666  -0.02384
  Beta virt. eigenvalues --   -0.02294  -0.01594  -0.00999  -0.00917   0.00067
  Beta virt. eigenvalues --    0.00106   0.00132   0.00387   0.00973   0.00987

 Mulliken charges and spin densities:
               1          2
     1  Na   0.320159  -0.083397
     2  Na  -0.727012   0.670886
     3  Na   0.183782  -0.029162
     4  Na  -0.654850   0.568814
     5  Na   0.291255  -0.018814
     6  Na   0.331287  -0.052766
     7  Na   0.255379  -0.055561
 Sum of Mulliken charges =  -0.00000   1.00000

 Dipole moment (field-independent basis, Debye):
    X=             -0.1200    Y=              0.1472    Z=              0.0937  Tot=              0.2118
 Quadrupole moment (field-independent basis, Debye-Ang):
   XX=            -60.7299   YY=            -62.4270   ZZ=            -71.8337
   XY=              0.1576   XZ=              1.0296   YZ=              0.1680

 Normal termination of Gaussian 16 at Sat Dec  9 06:43:52 2023.
