 Gaussian 16, Revision B.01,
 Gaussian 16:  ES64L-G16RevB.01 20-Dec-2017

 -------------------------
 #P B3LYP/6-311+g(d) force
 -------------------------

 -----
 DPGEN
 -----
 Symbolic Z-matrix:
 Charge =  0 Multiplicity = 2

                         Standard orientation:
 ---------------------------------------------------------------------
 Center     Atomic      Atomic             Coordinates (Angstroms)
 Number     Number       Type             X           Y           Z
 ---------------------------------------------------------------------
      1         11           0       -0.092669   -0.000369   -1.705105
      2         11           0        1.253456    2.545449   -0.565183
      3         11           0       -0.082526    0.299587    2.073287
      4         11           0        2.978397   -0.488249    0.029189
      5         11           0       -2.578235   -1.827082   -0.466176
      6         11           0        0.772053   -2.518958    0.284347
      7         11           0       -2.250476    1.989622    0.349641
 ---------------------------------------------------------------------

 SCF Done:  E(UB3LYP) =  -1136.13652565     A.U. after   19 cycles

 The electronic state is 2-A.
 Alpha  occ. eigenvalues --  -38.43908 -38.43799 -38.43596 -38.43569 -38.43452
 Alpha  occ. eigenvalues --  -38.43338 -38.43175  -2.19815  -2.19640  -2.19454
 Alpha  occ. eigenvalues --   -2.19420  -2.19340  -2.19324  -2.19103  -1.13491
 Alpha  occ. eigenvalues --   -1.13466  -1.13436  -1.13311  -1.13295  -1.13261
 Alpha  occ. eigenvalues --   -1.13196  -1.13142  -1.13110  -1.13103  -1.13087
 Alpha  occ. eigenvalues --   -1.13075  -1.13056  -1.13008  -1.12971  -1.12955
 Alpha  occ. eigenvalues --   -1.12929  -1.12912  -1.12771  -1.12759  -1.12713
 Alpha  occ. eigenvalues --   -0.18919  -0.12890  -0.12597  -0.11245
 Alpha virt. eigenvalues --   -0.05294  -0.05080  -0.04493  -0.03342  -0.03069
 Alpha virt. eigenvalues --   -0.02847  -0.01330  -0.01129  -0.00211  -0.00005
 Alpha virt. eigenvalues --    0.00051   0.00356   0.00842   0.00911   0.00959

  Beta  occ. eigenvalues --  -38.43815 -38.43790 -38.43587 -38.43567 -38.43436
  Beta  occ. eigenvalues --  -38.43270 -38.43166  -2.19645  -2.19625  -2.19453
  Beta  occ. eigenvalues --   -2.19407  -2.19301  -2.19214  -2.19091  -1.13394
  Beta  occ. eigenvalues --   -1.13349  -1.13321  -1.13279  -1.13259  -1.13252
  Beta  occ. eigenvalues --   -1.13197  -1.13108  -1.13097  -1.13080  -1.13065
  Beta  occ. eigenvalues --   -1.13057  -1.13045  -1.12951  -1.12925  -1.12917
  Beta  occ. eigenvalues --   -1.12874  -1.12835  -1.12762  -1.12735  -1.12694
  Beta  occ. eigenvalues --   -0.18185  -0.12624  -0.12310
  Beta virt. eigenvalues --   -0.07313  -0.05242  -0.05027  -0.04472  -0.02516
  Beta virt. eigenvalues --   -0.02345  -0.01797  -0.01234  -0.01036  -0.00200
  Beta virt. eigenvalues --   -0.00004   0.00107   0.00380   0.00877   0.00930

 Mulliken charges and spin densities:
               1          2
     1  Na  -0.378031   0.461521
     2  Na   0.293652  -0.008285
     3  Na  -0.406486   0.570497
     4  Na   0.042939  -0.046204
     5  Na   0.106533  -0.035968
     6  Na   0.224073   0.071568
     7  Na   0.117321  -0.013129
 Sum of Mulliken charges =  -0.00000   1.00000

 Dipole moment (field-independent basis, Debye):
    X=             -0.2084    Y=              0.2485    Z=              0.1853  Tot=              0.3735
 Quadrupole moment (field-independent basis, Debye-Ang):
   XX=            -58.7585   YY=            -63.7770   ZZ=            -72.0411
   XY=              0.2671   XZ=              0.1152   YZ=             -0.5183

 Normal termination of Gaussian 16 at Wed Dec  6 00:16:34 2023.
