 Gaussian 16, Revision B.01,
 Gaussian 16:  ES64L-G16RevB.01 20-Dec-2017

 -------------------------
 #P B3LYP/6-311+g(d) force
 -------------------------

 -----
 DPGEN
 -----
 Symbolic Z-matrix:
 Charge =  0 Multiplicity = 2

                         Standard orientation:
 ---------------------------------------------------------------------
 Center     Atomic      Atomic             Coordinates (Angstroms)
 Number     Number       Type             X           Y           Z
 ---------------------------------------------------------------------
      1         11           0        3.783680    2.072098    0.672290
      2         11           0       -3.828075    2.140067   -0.212388
      3         11           0        2.901042   -0.903326   -1.170392
      4         11           0       -0.510522    1.193474   -1.121700
      5         11           0       -0.271992   -2.533949   -0.596173
      6         11           0       -2.905501   -1.212053    0.726565
      7         11           0        0.831368   -0.756312    1.701798
 ---------------------------------------------------------------------

 SCF Done:  E(UB3LYP) =  -1136.12095085     A.U. after   21 cycles

 The electronic state is 2-A.
 Alpha  occ. eigenvalues --  -38.44691 -38.44670 -38.44331 -38.44319 -38.44169
 Alpha  occ. eigenvalues --  -38.43762 -38.43058  -2.20534  -2.20491  -2.20164
 Alpha  occ. eigenvalues --   -2.20158  -2.19937  -2.19539  -2.18976  -1.14240
 Alpha  occ. eigenvalues --   -1.14225  -1.14196  -1.14161  -1.14117  -1.14077
 Alpha  occ. eigenvalues --   -1.13859  -1.13843  -1.13822  -1.13821  -1.13785
 Alpha  occ. eigenvalues --   -1.13763  -1.13601  -1.13595  -1.13555  -1.13209
 Alpha  occ. eigenvalues --   -1.13207  -1.13175  -1.12662  -1.12646  -1.12604
 Alpha  occ. eigenvalues --   -0.17916  -0.13706  -0.11786  -0.10355
 Alpha virt. eigenvalues --   -0.06712  -0.06173  -0.04519  -0.03139  -0.02681
 Alpha virt. eigenvalues --   -0.02471  -0.02164  -0.01620  -0.00943  -0.00499
 Alpha virt. eigenvalues --   -0.00179   0.00077   0.00350   0.00459   0.00593

  Beta  occ. eigenvalues --  -38.44657 -38.44635 -38.44297 -38.44297 -38.44131
  Beta  occ. eigenvalues --  -38.43768 -38.43047  -2.20469  -2.20428  -2.20118
  Beta  occ. eigenvalues --   -2.20105  -2.19865  -2.19551  -2.18961  -1.14196
  Beta  occ. eigenvalues --   -1.14172  -1.14146  -1.14119  -1.14066  -1.14031
  Beta  occ. eigenvalues --   -1.13835  -1.13805  -1.13793  -1.13782  -1.13730
  Beta  occ. eigenvalues --   -1.13721  -1.13552  -1.13541  -1.13509  -1.13218
  Beta  occ. eigenvalues --   -1.13211  -1.13182  -1.12658  -1.12642  -1.12546
  Beta  occ. eigenvalues --   -0.17318  -0.13447  -0.11495
  Beta virt. eigenvalues --   -0.06890  -0.06397  -0.05936  -0.04178  -0.02809
  Beta virt. eigenvalues --   -0.02406  -0.02170  -0.01717  -0.01205  -0.00805
  Beta virt. eigenvalues --   -0.00239  -0.00057   0.00133   0.00486   0.00551

 Mulliken charges and spin densities:
               1          2
     1  Na   0.061409   0.218772
     2  Na   0.441363  -0.069592
     3  Na   0.385022   0.141480
     4  Na  -0.958727   0.159606
     5  Na   0.338201   0.169659
     6  Na  -0.021605   0.098421
     7  Na  -0.245661   0.281652
 Sum of Mulliken charges =  -0.00000   1.00000

 Dipole moment (field-independent basis, Debye):
    X=             -0.1035    Y=             -0.2970    Z=             -0.0436  Tot=              0.3175
 Quadrupole moment (field-independent basis, Debye-Ang):
   XX=            -56.6367   YY=            -67.7189   ZZ=            -72.8315
   XY=              0.3101   XZ=             -2.9319   YZ=              2.4660

 Normal termination of Gaussian 16 at Thu Dec  7 09:51:47 2023.
