 Gaussian 16, Revision B.01,
 Gaussian 16:  ES64L-G16RevB.01 20-Dec-2017

 -------------------------
 #P B3LYP/6-311+g(d) force
 -------------------------

 -----
 DPGEN
 -----
 Symbolic Z-matrix:
 Charge =  0 Multiplicity = 2

                         Standard orientation:
 ---------------------------------------------------------------------
 Center     Atomic      Atomic             Coordinates (Angstroms)
 Number     Number       Type             X           Y           Z
 ---------------------------------------------------------------------
      1         11           0        2.631410    1.775596    0.086105
      2         11           0        1.073616   -1.391631   -0.243221
      3         11           0       -1.314568   -1.554192    1.953765
      4         11           0       -2.070895   -0.736150   -1.682724
      5         11           0        4.609569   -0.629087   -0.395889
      6         11           0       -0.787805    1.984238    0.629411
      7         11           0       -4.141326    0.551227   -0.347447
 ---------------------------------------------------------------------

 SCF Done:  E(UB3LYP) =  -1136.11231523     A.U. after   29 cycles

 The electronic state is 2-A.
 Alpha  occ. eigenvalues --  -38.45044 -38.44490 -38.44099 -38.44077 -38.44039
 Alpha  occ. eigenvalues --  -38.43724 -38.43051  -2.20966  -2.20319  -2.19945
 Alpha  occ. eigenvalues --   -2.19920  -2.19910  -2.19580  -2.18930  -1.14756
 Alpha  occ. eigenvalues --   -1.14610  -1.14543  -1.13979  -1.13965  -1.13952
 Alpha  occ. eigenvalues --   -1.13631  -1.13614  -1.13600  -1.13581  -1.13560
 Alpha  occ. eigenvalues --   -1.13552  -1.13539  -1.13532  -1.13506  -1.13258
 Alpha  occ. eigenvalues --   -1.13248  -1.13220  -1.12653  -1.12629  -1.12526
 Alpha  occ. eigenvalues --   -0.17983  -0.14553  -0.11470  -0.11156
 Alpha virt. eigenvalues --   -0.07225  -0.05232  -0.04091  -0.03415  -0.03191
 Alpha virt. eigenvalues --   -0.02549  -0.02043  -0.01469  -0.01048  -0.00609
 Alpha virt. eigenvalues --   -0.00155   0.00172   0.00287   0.00658   0.00810

  Beta  occ. eigenvalues --  -38.45006 -38.44447 -38.44031 -38.44022 -38.44019
  Beta  occ. eigenvalues --  -38.43709 -38.43071  -2.20895  -2.20239  -2.19900
  Beta  occ. eigenvalues --   -2.19817  -2.19802  -2.19558  -2.18968  -1.14715
  Beta  occ. eigenvalues --   -1.14558  -1.14492  -1.13934  -1.13909  -1.13895
  Beta  occ. eigenvalues --   -1.13590  -1.13535  -1.13530  -1.13511  -1.13510
  Beta  occ. eigenvalues --   -1.13500  -1.13481  -1.13469  -1.13440  -1.13247
  Beta  occ. eigenvalues --   -1.13238  -1.13159  -1.12677  -1.12637  -1.12558
  Beta  occ. eigenvalues --   -0.17443  -0.14111  -0.10836
  Beta virt. eigenvalues --   -0.07748  -0.06987  -0.04910  -0.03881  -0.03016
  Beta virt. eigenvalues --   -0.02836  -0.02057  -0.01646  -0.01169  -0.00785
  Beta virt. eigenvalues --   -0.00404  -0.00070   0.00198   0.00433   0.00736

 Mulliken charges and spin densities:
               1          2
     1  Na  -0.018654  -0.064336
     2  Na  -0.530247   0.119715
     3  Na   0.058159   0.275371
     4  Na   0.199332   0.290507
     5  Na   0.378568   0.107870
     6  Na  -0.411975   0.314784
     7  Na   0.324816  -0.043912
 Sum of Mulliken charges =  -0.00000   1.00000

 Dipole moment (field-independent basis, Debye):
    X=              0.1332    Y=             -0.6340    Z=              0.4110  Tot=              0.7673
 Quadrupole moment (field-independent basis, Debye-Ang):
   XX=            -58.1817   YY=            -76.0576   ZZ=            -65.8683
   XY=             -0.0596   XZ=             -5.5280   YZ=              2.5261

 Normal termination of Gaussian 16 at Wed Dec  6 01:25:16 2023.
