 Gaussian 16, Revision B.01,
 Gaussian 16:  ES64L-G16RevB.01 20-Dec-2017

 -------------------------
 #P B3LYP/6-311+g(d) force
 -------------------------

 -----
 DPGEN
 -----
 Symbolic Z-matrix:
 Charge =  0 Multiplicity = 2

                         Standard orientation:
 ---------------------------------------------------------------------
 Center     Atomic      Atomic             Coordinates (Angstroms)
 Number     Number       Type             X           Y           Z
 ---------------------------------------------------------------------
      1         11           0        0.805400   -0.995923   -1.877929
      2         11           0        3.087791   -1.528968    0.934545
      3         11           0       -0.532774    2.426579   -0.482431
      4         11           0        2.453943    1.805018   -0.335436
      5         11           0       -3.474450    0.624923    0.696934
      6         11           0       -2.275704   -1.993317   -0.760894
      7         11           0       -0.064206   -0.338311    1.825210
 ---------------------------------------------------------------------

 SCF Done:  E(UB3LYP) =  -1136.12928506     A.U. after   21 cycles

 The electronic state is 2-A.
 Alpha  occ. eigenvalues --  -38.44593 -38.44539 -38.44044 -38.43914 -38.43858
 Alpha  occ. eigenvalues --  -38.43767 -38.42634  -2.20415  -2.20388  -2.19861
 Alpha  occ. eigenvalues --   -2.19773  -2.19696  -2.19636  -2.18499  -1.14090
 Alpha  occ. eigenvalues --   -1.14078  -1.14069  -1.14054  -1.14039  -1.14000
 Alpha  occ. eigenvalues --   -1.13524  -1.13516  -1.13499  -1.13462  -1.13415
 Alpha  occ. eigenvalues --   -1.13398  -1.13354  -1.13345  -1.13337  -1.13332
 Alpha  occ. eigenvalues --   -1.13297  -1.13258  -1.12188  -1.12157  -1.12137
 Alpha  occ. eigenvalues --   -0.18199  -0.13762  -0.11657  -0.11233
 Alpha virt. eigenvalues --   -0.06400  -0.05383  -0.04464  -0.03356  -0.02883
 Alpha virt. eigenvalues --   -0.02574  -0.02185  -0.01129  -0.00552  -0.00193
 Alpha virt. eigenvalues --    0.00117   0.00233   0.00385   0.00649   0.00775

  Beta  occ. eigenvalues --  -38.44582 -38.44482 -38.44019 -38.43842 -38.43836
  Beta  occ. eigenvalues --  -38.43760 -38.42632  -2.20396  -2.20284  -2.19817
  Beta  occ. eigenvalues --   -2.19659  -2.19641  -2.19625  -2.18498  -1.14075
  Beta  occ. eigenvalues --   -1.14056  -1.14039  -1.14003  -1.13972  -1.13917
  Beta  occ. eigenvalues --   -1.13489  -1.13478  -1.13472  -1.13380  -1.13338
  Beta  occ. eigenvalues --   -1.13331  -1.13324  -1.13310  -1.13306  -1.13286
  Beta  occ. eigenvalues --   -1.13263  -1.13249  -1.12191  -1.12153  -1.12122
  Beta  occ. eigenvalues --   -0.17533  -0.13556  -0.11327
  Beta virt. eigenvalues --   -0.07437  -0.06216  -0.05329  -0.03947  -0.03084
  Beta virt. eigenvalues --   -0.02238  -0.01995  -0.01723  -0.01030  -0.00367
  Beta virt. eigenvalues --   -0.00102   0.00125   0.00281   0.00541   0.00783

 Mulliken charges and spin densities:
               1          2
     1  Na   0.028819   0.364149
     2  Na   0.272728   0.089733
     3  Na  -0.513395  -0.075414
     4  Na   0.154124   0.076979
     5  Na   0.869224   0.087994
     6  Na  -0.356518   0.068793
     7  Na  -0.454981   0.387766
 Sum of Mulliken charges =  -0.00000   1.00000

 Dipole moment (field-independent basis, Debye):
    X=             -0.1604    Y=             -0.2587    Z=              0.2694  Tot=              0.4065
 Quadrupole moment (field-independent basis, Debye-Ang):
   XX=            -50.6585   YY=            -73.9824   ZZ=            -70.9954
   XY=             -0.8827   XZ=             -0.7501   YZ=              0.3152

 Normal termination of Gaussian 16 at Mon Dec  4 02:24:42 2023.
