 Gaussian 16, Revision B.01,
 Gaussian 16:  ES64L-G16RevB.01 20-Dec-2017

 -------------------------
 #P B3LYP/6-311+g(d) force
 -------------------------

 -----
 DPGEN
 -----
 Symbolic Z-matrix:
 Charge =  0 Multiplicity = 2

                         Standard orientation:
 ---------------------------------------------------------------------
 Center     Atomic      Atomic             Coordinates (Angstroms)
 Number     Number       Type             X           Y           Z
 ---------------------------------------------------------------------
      1         11           0       -2.878234   -1.850347   -0.518940
      2         11           0        0.838349    2.507281    0.201829
      3         11           0       -2.508103    1.758593   -0.010156
      4         11           0        0.144777    0.073979   -1.577620
      5         11           0        1.742099   -2.456883    0.182951
      6         11           0        3.087629    0.352443   -0.297137
      7         11           0       -0.426518   -0.385066    2.019073
 ---------------------------------------------------------------------

 SCF Done:  E(UB3LYP) =  -1136.13215380     A.U. after   20 cycles

 The electronic state is 2-A.
 Alpha  occ. eigenvalues --  -38.44266 -38.44079 -38.44030 -38.43583 -38.43535
 Alpha  occ. eigenvalues --  -38.43425 -38.42808  -2.20045  -2.19943  -2.19918
 Alpha  occ. eigenvalues --   -2.19436  -2.19419  -2.19414  -2.18736  -1.13716
 Alpha  occ. eigenvalues --   -1.13695  -1.13686  -1.13637  -1.13613  -1.13598
 Alpha  occ. eigenvalues --   -1.13589  -1.13589  -1.13545  -1.13141  -1.13116
 Alpha  occ. eigenvalues --   -1.13103  -1.13085  -1.13076  -1.13044  -1.13037
 Alpha  occ. eigenvalues --   -1.13030  -1.13029  -1.12430  -1.12386  -1.12365
 Alpha  occ. eigenvalues --   -0.18749  -0.13479  -0.12089  -0.10721
 Alpha virt. eigenvalues --   -0.05894  -0.05600  -0.04179  -0.03357  -0.02815
 Alpha virt. eigenvalues --   -0.02379  -0.01771  -0.01249  -0.00466  -0.00115
 Alpha virt. eigenvalues --   -0.00023   0.00322   0.00698   0.00817   0.00903

  Beta  occ. eigenvalues --  -38.44252 -38.44075 -38.44024 -38.43578 -38.43443
  Beta  occ. eigenvalues --  -38.43371 -38.42800  -2.20020  -2.19934  -2.19914
  Beta  occ. eigenvalues --   -2.19430  -2.19318  -2.19249  -2.18727  -1.13689
  Beta  occ. eigenvalues --   -1.13677  -1.13672  -1.13628  -1.13612  -1.13593
  Beta  occ. eigenvalues --   -1.13570  -1.13563  -1.13539  -1.13112  -1.13082
  Beta  occ. eigenvalues --   -1.13066  -1.13058  -1.12986  -1.12972  -1.12955
  Beta  occ. eigenvalues --   -1.12920  -1.12911  -1.12423  -1.12379  -1.12332
  Beta  occ. eigenvalues --   -0.18045  -0.13219  -0.11840
  Beta virt. eigenvalues --   -0.06865  -0.05814  -0.05546  -0.04112  -0.02651
  Beta virt. eigenvalues --   -0.02053  -0.01634  -0.01411  -0.01177  -0.00486
  Beta virt. eigenvalues --   -0.00136   0.00122   0.00366   0.00777   0.00829

 Mulliken charges and spin densities:
               1          2
     1  Na  -0.031934   0.008628
     2  Na   0.189125   0.103395
     3  Na   0.169322   0.017724
     4  Na  -0.382604   0.261568
     5  Na   0.175764  -0.022771
     6  Na   0.366287   0.091047
     7  Na  -0.485959   0.540410
 Sum of Mulliken charges =  -0.00000   1.00000

 Dipole moment (field-independent basis, Debye):
    X=             -0.3617    Y=             -0.2064    Z=              0.0827  Tot=              0.4246
 Quadrupole moment (field-independent basis, Debye-Ang):
   XX=            -54.2292   YY=            -65.1148   ZZ=            -74.2290
   XY=             -0.2481   XZ=              0.6325   YZ=              1.1130

 Normal termination of Gaussian 16 at Fri Dec  8 03:48:53 2023.
