 Gaussian 16, Revision B.01,
 Gaussian 16:  ES64L-G16RevB.01 20-Dec-2017

 -------------------------
 #P B3LYP/6-311+g(d) force
 -------------------------

 -----
 DPGEN
 -----
 Symbolic Z-matrix:
 Charge =  0 Multiplicity = 2

                         Standard orientation:
 ---------------------------------------------------------------------
 Center     Atomic      Atomic             Coordinates (Angstroms)
 Number     Number       Type             X           Y           Z
 ---------------------------------------------------------------------
      1         11           0        1.867626    1.663900   -0.255082
      2         11           0        0.642375   -0.740468    0.712605
      3         11           0        3.635760   -1.255930    0.365509
      4         11           0       -2.685383   -2.263520    0.051687
      5         11           0       -0.615814   -0.806793   -2.413145
      6         11           0       -1.298288    2.503378   -1.123778
      7         11           0       -1.546276    0.899432    2.662204
 ---------------------------------------------------------------------

 SCF Done:  E(UB3LYP) =  -1136.11922488     A.U. after   21 cycles

 The electronic state is 2-A.
 Alpha  occ. eigenvalues --  -38.45602 -38.44894 -38.43580 -38.43507 -38.43498
 Alpha  occ. eigenvalues --  -38.43073 -38.43048  -2.21404  -2.20734  -2.19490
 Alpha  occ. eigenvalues --   -2.19345  -2.19271  -2.19107  -2.18862  -1.15074
 Alpha  occ. eigenvalues --   -1.15017  -1.14997  -1.14411  -1.14373  -1.14327
 Alpha  occ. eigenvalues --   -1.13338  -1.13152  -1.13086  -1.13049  -1.12992
 Alpha  occ. eigenvalues --   -1.12969  -1.12945  -1.12931  -1.12920  -1.12809
 Alpha  occ. eigenvalues --   -1.12757  -1.12669  -1.12531  -1.12521  -1.12504
 Alpha  occ. eigenvalues --   -0.18071  -0.12825  -0.12338  -0.11378
 Alpha virt. eigenvalues --   -0.05466  -0.05273  -0.04433  -0.03532  -0.03104
 Alpha virt. eigenvalues --   -0.02906  -0.01609  -0.01052  -0.00796  -0.00009
 Alpha virt. eigenvalues --    0.00229   0.00285   0.00487   0.00753   0.00810

  Beta  occ. eigenvalues --  -38.45487 -38.44819 -38.43577 -38.43512 -38.43506
  Beta  occ. eigenvalues --  -38.43051 -38.43041  -2.21190  -2.20596  -2.19486
  Beta  occ. eigenvalues --   -2.19354  -2.19287  -2.19073  -2.18851  -1.14921
  Beta  occ. eigenvalues --   -1.14875  -1.14851  -1.14319  -1.14281  -1.14224
  Beta  occ. eigenvalues --   -1.13334  -1.13134  -1.13088  -1.13053  -1.12996
  Beta  occ. eigenvalues --   -1.12975  -1.12957  -1.12934  -1.12926  -1.12755
  Beta  occ. eigenvalues --   -1.12726  -1.12654  -1.12516  -1.12511  -1.12492
  Beta  occ. eigenvalues --   -0.17303  -0.12555  -0.11274
  Beta virt. eigenvalues --   -0.08267  -0.05309  -0.04903  -0.03824  -0.02884
  Beta virt. eigenvalues --   -0.02859  -0.02310  -0.01555  -0.00995  -0.00397
  Beta virt. eigenvalues --    0.00214   0.00287   0.00368   0.00641   0.00824

 Mulliken charges and spin densities:
               1          2
     1  Na  -0.175031   0.065871
     2  Na   0.132745   0.050273
     3  Na   0.066556  -0.148946
     4  Na  -0.071733  -0.070371
     5  Na  -0.083221   0.592438
     6  Na   0.095984   0.003424
     7  Na   0.034699   0.507311
 Sum of Mulliken charges =  -0.00000   1.00000

 Dipole moment (field-independent basis, Debye):
    X=             -0.2932    Y=              0.1124    Z=              0.0668  Tot=              0.3211
 Quadrupole moment (field-independent basis, Debye-Ang):
   XX=            -59.3632   YY=            -72.4684   ZZ=            -62.1777
   XY=             -2.0673   XZ=             -3.0772   YZ=              2.3037

 Normal termination of Gaussian 16 at Thu Dec  7 11:26:38 2023.
