 Gaussian 16, Revision B.01,
 Gaussian 16:  ES64L-G16RevB.01 20-Dec-2017

 -------------------------
 #P B3LYP/6-311+g(d) force
 -------------------------

 -----
 DPGEN
 -----
 Symbolic Z-matrix:
 Charge =  0 Multiplicity = 2

                         Standard orientation:
 ---------------------------------------------------------------------
 Center     Atomic      Atomic             Coordinates (Angstroms)
 Number     Number       Type             X           Y           Z
 ---------------------------------------------------------------------
      1         11           0        0.034384    0.084111   -1.651371
      2         11           0        0.043404   -1.934689   -0.067121
      3         11           0        2.460617   -0.807544    0.058579
      4         11           0        0.026781    0.124110    1.657979
      5         11           0       -2.392059   -0.880234    0.059179
      6         11           0       -1.469908    1.615031   -0.031421
      7         11           0        1.296781    1.799216   -0.025821
 ---------------------------------------------------------------------

 SCF Done:  E(UB3LYP) =  -1136.03975829     A.U. after   21 cycles

 The electronic state is 2-A.
 Alpha  occ. eigenvalues --  -38.44788 -38.44554 -38.44282 -38.44199 -38.44103
 Alpha  occ. eigenvalues --  -38.44086 -38.43853  -2.21211  -2.20957  -2.20550
 Alpha  occ. eigenvalues --   -2.20454  -2.20361  -2.20215  -2.20095  -1.15239
 Alpha  occ. eigenvalues --   -1.15130  -1.14887  -1.14831  -1.14800  -1.14675
 Alpha  occ. eigenvalues --   -1.14567  -1.14398  -1.14169  -1.14069  -1.14045
 Alpha  occ. eigenvalues --   -1.13975  -1.13959  -1.13902  -1.13897  -1.13797
 Alpha  occ. eigenvalues --   -1.13783  -1.13680  -1.13665  -1.13650  -1.13514
 Alpha  occ. eigenvalues --   -0.22455  -0.14310  -0.13079  -0.12466
 Alpha virt. eigenvalues --   -0.05314  -0.04233  -0.04031  -0.03777  -0.03167
 Alpha virt. eigenvalues --   -0.02606  -0.01163  -0.00407  -0.00052   0.00317
 Alpha virt. eigenvalues --    0.00832   0.00910   0.01063   0.01192   0.01273

  Beta  occ. eigenvalues --  -38.44689 -38.44457 -38.44271 -38.44176 -38.44084
  Beta  occ. eigenvalues --  -38.44076 -38.43836  -2.21036  -2.20786  -2.20519
  Beta  occ. eigenvalues --   -2.20435  -2.20337  -2.20202  -2.20072  -1.15154
  Beta  occ. eigenvalues --   -1.15017  -1.14788  -1.14716  -1.14697  -1.14584
  Beta  occ. eigenvalues --   -1.14533  -1.14365  -1.14140  -1.14034  -1.13965
  Beta  occ. eigenvalues --   -1.13948  -1.13888  -1.13881  -1.13805  -1.13772
  Beta  occ. eigenvalues --   -1.13737  -1.13663  -1.13641  -1.13583  -1.13508
  Beta  occ. eigenvalues --   -0.21628  -0.13895  -0.12674
  Beta virt. eigenvalues --   -0.08176  -0.05367  -0.04209  -0.03968  -0.02761
  Beta virt. eigenvalues --   -0.02201  -0.01547  -0.01085  -0.00371   0.00085
  Beta virt. eigenvalues --    0.00348   0.00834   0.00907   0.01074   0.01216

 Mulliken charges and spin densities:
               1          2
     1  Na  -0.381530   0.447324
     2  Na   0.467016   0.131815
     3  Na  -0.087407  -0.067108
     4  Na  -0.345537   0.483712
     5  Na  -0.136258  -0.055252
     6  Na   0.270501   0.047485
     7  Na   0.213217   0.012022
 Sum of Mulliken charges =  -0.00000   1.00000

 Dipole moment (field-independent basis, Debye):
    X=              0.1127    Y=             -0.0479    Z=              0.0777  Tot=              0.1450
 Quadrupole moment (field-independent basis, Debye-Ang):
   XX=            -58.7304   YY=            -70.6325   ZZ=            -69.2841
   XY=              0.1791   XZ=              0.0203   YZ=             -0.1539

 Normal termination of Gaussian 16 at Fri Dec  8 19:38:00 2023.
