 Gaussian 16, Revision B.01,
 Gaussian 16:  ES64L-G16RevB.01 20-Dec-2017

 -------------------------
 #P B3LYP/6-311+g(d) force
 -------------------------

 -----
 DPGEN
 -----
 Symbolic Z-matrix:
 Charge =  0 Multiplicity = 2

                         Standard orientation:
 ---------------------------------------------------------------------
 Center     Atomic      Atomic             Coordinates (Angstroms)
 Number     Number       Type             X           Y           Z
 ---------------------------------------------------------------------
      1         11           0       -0.433079   -2.580884    0.110034
      2         11           0       -3.117162   -0.584215   -0.133925
      3         11           0       -1.594571    2.187572   -0.306396
      4         11           0        0.456021   -0.156676   -1.886657
      5         11           0       -0.357516    0.112515    1.909460
      6         11           0        3.170625   -0.969367    0.083316
      7         11           0        1.875683    1.991055    0.224169
 ---------------------------------------------------------------------

 SCF Done:  E(UB3LYP) =  -1136.13522205     A.U. after   19 cycles

 The electronic state is 2-A.
 Alpha  occ. eigenvalues --  -38.44447 -38.44312 -38.43578 -38.43549 -38.43252
 Alpha  occ. eigenvalues --  -38.42953 -38.42884  -2.20271  -2.20178  -2.19526
 Alpha  occ. eigenvalues --   -2.19508  -2.19158  -2.18864  -2.18775  -1.13948
 Alpha  occ. eigenvalues --   -1.13938  -1.13905  -1.13859  -1.13837  -1.13823
 Alpha  occ. eigenvalues --   -1.13215  -1.13183  -1.13174  -1.13153  -1.13138
 Alpha  occ. eigenvalues --   -1.13129  -1.12836  -1.12823  -1.12787  -1.12544
 Alpha  occ. eigenvalues --   -1.12520  -1.12501  -1.12469  -1.12450  -1.12383
 Alpha  occ. eigenvalues --   -0.19080  -0.13522  -0.12088  -0.11033
 Alpha virt. eigenvalues --   -0.06150  -0.04905  -0.04003  -0.03530  -0.02828
 Alpha virt. eigenvalues --   -0.02660  -0.01859  -0.00894  -0.00093  -0.00073
 Alpha virt. eigenvalues --    0.00015   0.00360   0.00794   0.00876   0.00932

  Beta  occ. eigenvalues --  -38.44447 -38.44309 -38.43500 -38.43465 -38.43242
  Beta  occ. eigenvalues --  -38.42943 -38.42876  -2.20273  -2.20176  -2.19382
  Beta  occ. eigenvalues --   -2.19355  -2.19146  -2.18850  -2.18764  -1.13953
  Beta  occ. eigenvalues --   -1.13920  -1.13909  -1.13861  -1.13826  -1.13810
  Beta  occ. eigenvalues --   -1.13122  -1.13084  -1.13073  -1.13042  -1.13032
  Beta  occ. eigenvalues --   -1.13018  -1.12827  -1.12786  -1.12778  -1.12537
  Beta  occ. eigenvalues --   -1.12496  -1.12476  -1.12465  -1.12408  -1.12381
  Beta  occ. eigenvalues --   -0.18316  -0.13305  -0.11819
  Beta virt. eigenvalues --   -0.07092  -0.06070  -0.04918  -0.03988  -0.02736
  Beta virt. eigenvalues --   -0.02009  -0.01769  -0.01596  -0.00847  -0.00129
  Beta virt. eigenvalues --   -0.00040   0.00090   0.00377   0.00863   0.00935

 Mulliken charges and spin densities:
               1          2
     1  Na   0.195696  -0.144283
     2  Na   0.155862  -0.035344
     3  Na   0.243422   0.005101
     4  Na  -0.520660   0.653981
     5  Na  -0.482051   0.639268
     6  Na   0.145581  -0.110385
     7  Na   0.262149  -0.008337
 Sum of Mulliken charges =  -0.00000   1.00000

 Dipole moment (field-independent basis, Debye):
    X=              0.1900    Y=             -0.2182    Z=              0.0005  Tot=              0.2894
 Quadrupole moment (field-independent basis, Debye-Ang):
   XX=            -52.6118   YY=            -68.8569   ZZ=            -72.4177
   XY=             -0.6063   XZ=              1.6061   YZ=             -0.5210

 Normal termination of Gaussian 16 at Wed Dec  6 00:26:12 2023.
