 Gaussian 16, Revision B.01,
 Gaussian 16:  ES64L-G16RevB.01 20-Dec-2017

 -------------------------
 #P B3LYP/6-311+g(d) force
 -------------------------

 -----
 DPGEN
 -----
 Symbolic Z-matrix:
 Charge =  0 Multiplicity = 2

                         Standard orientation:
 ---------------------------------------------------------------------
 Center     Atomic      Atomic             Coordinates (Angstroms)
 Number     Number       Type             X           Y           Z
 ---------------------------------------------------------------------
      1         11           0        2.750066   -1.748494   -1.054567
      2         11           0       -0.531207   -0.827522   -1.401263
      3         11           0        0.357437    2.313155   -0.615824
      4         11           0        3.621862    0.945267    0.726033
      5         11           0       -0.081774   -0.732366    2.331742
      6         11           0       -3.120632   -1.667464    0.171770
      7         11           0       -2.995751    1.717424   -0.157892
 ---------------------------------------------------------------------

 SCF Done:  E(UB3LYP) =  -1136.11720326     A.U. after   24 cycles

 The electronic state is 2-A.
 Alpha  occ. eigenvalues --  -38.45286 -38.44905 -38.44302 -38.44296 -38.44245
 Alpha  occ. eigenvalues --  -38.43816 -38.42822  -2.21061  -2.20688  -2.20131
 Alpha  occ. eigenvalues --   -2.20113  -2.20057  -2.19739  -2.18642  -1.14729
 Alpha  occ. eigenvalues --   -1.14718  -1.14699  -1.14348  -1.14332  -1.14288
 Alpha  occ. eigenvalues --   -1.13847  -1.13819  -1.13786  -1.13770  -1.13756
 Alpha  occ. eigenvalues --   -1.13734  -1.13730  -1.13706  -1.13696  -1.13428
 Alpha  occ. eigenvalues --   -1.13389  -1.13350  -1.12357  -1.12319  -1.12251
 Alpha  occ. eigenvalues --   -0.17870  -0.13899  -0.11178  -0.11016
 Alpha virt. eigenvalues --   -0.07228  -0.05915  -0.04154  -0.03283  -0.02718
 Alpha virt. eigenvalues --   -0.02625  -0.02448  -0.01709  -0.00661  -0.00418
 Alpha virt. eigenvalues --    0.00053   0.00120   0.00276   0.00547   0.00596

  Beta  occ. eigenvalues --  -38.45273 -38.44806 -38.44319 -38.44293 -38.44214
  Beta  occ. eigenvalues --  -38.43764 -38.42826  -2.21036  -2.20505  -2.20165
  Beta  occ. eigenvalues --   -2.20107  -2.20001  -2.19645  -2.18652  -1.14709
  Beta  occ. eigenvalues --   -1.14698  -1.14682  -1.14224  -1.14206  -1.14156
  Beta  occ. eigenvalues --   -1.13865  -1.13837  -1.13782  -1.13772  -1.13754
  Beta  occ. eigenvalues --   -1.13742  -1.13679  -1.13667  -1.13657  -1.13370
  Beta  occ. eigenvalues --   -1.13322  -1.13270  -1.12361  -1.12315  -1.12258
  Beta  occ. eigenvalues --   -0.17243  -0.13782  -0.10988
  Beta virt. eigenvalues --   -0.07206  -0.06926  -0.05711  -0.03709  -0.03050
  Beta virt. eigenvalues --   -0.02474  -0.01943  -0.01856  -0.01408  -0.00528
  Beta virt. eigenvalues --   -0.00308   0.00087   0.00184   0.00428   0.00632

 Mulliken charges and spin densities:
               1          2
     1  Na   0.142303   0.027712
     2  Na  -0.756951   0.299120
     3  Na  -0.095671  -0.081677
     4  Na   0.176275   0.187662
     5  Na  -0.401414   0.556421
     6  Na   0.852386   0.014159
     7  Na   0.083073  -0.003397
 Sum of Mulliken charges =  -0.00000   1.00000

 Dipole moment (field-independent basis, Debye):
    X=              0.1289    Y=             -0.1243    Z=              0.5796  Tot=              0.6066
 Quadrupole moment (field-independent basis, Debye-Ang):
   XX=            -45.9123   YY=            -75.7661   ZZ=            -73.0825
   XY=              0.9619   XZ=              0.4748   YZ=              2.1568

 Normal termination of Gaussian 16 at Thu Dec  7 11:25:56 2023.
