 Gaussian 16, Revision B.01,
 Gaussian 16:  ES64L-G16RevB.01 20-Dec-2017

 -------------------------
 #P B3LYP/6-311+g(d) force
 -------------------------

 -----
 DPGEN
 -----
 Symbolic Z-matrix:
 Charge =  0 Multiplicity = 2

                         Standard orientation:
 ---------------------------------------------------------------------
 Center     Atomic      Atomic             Coordinates (Angstroms)
 Number     Number       Type             X           Y           Z
 ---------------------------------------------------------------------
      1         11           0        0.039303    0.493424   -1.153112
      2         11           0       -1.696224   -1.111505    1.654555
      3         11           0        1.132356   -2.019138    0.267130
      4         11           0        1.562502    1.003914    1.347563
      5         11           0       -2.931379   -1.044582   -1.346923
      6         11           0        3.727947    0.119290   -0.883730
      7         11           0       -1.834506    2.558596    0.114517
 ---------------------------------------------------------------------

 SCF Done:  E(UB3LYP) =  -1136.12308202     A.U. after   23 cycles

 The electronic state is 2-A.
 Alpha  occ. eigenvalues --  -38.44763 -38.44332 -38.43800 -38.43513 -38.43359
 Alpha  occ. eigenvalues --  -38.43221 -38.42797  -2.20601  -2.20175  -2.19762
 Alpha  occ. eigenvalues --   -2.19426  -2.19407  -2.19155  -2.18630  -1.14275
 Alpha  occ. eigenvalues --   -1.14246  -1.14225  -1.13855  -1.13830  -1.13780
 Alpha  occ. eigenvalues --   -1.13561  -1.13399  -1.13355  -1.13158  -1.13106
 Alpha  occ. eigenvalues --   -1.13094  -1.13060  -1.13032  -1.13019  -1.12858
 Alpha  occ. eigenvalues --   -1.12822  -1.12726  -1.12320  -1.12283  -1.12256
 Alpha  occ. eigenvalues --   -0.18941  -0.13994  -0.11231  -0.11023
 Alpha virt. eigenvalues --   -0.06399  -0.05011  -0.04402  -0.03081  -0.02514
 Alpha virt. eigenvalues --   -0.02263  -0.02220  -0.00956  -0.00773   0.00106
 Alpha virt. eigenvalues --    0.00207   0.00343   0.00416   0.00725   0.00822

  Beta  occ. eigenvalues --  -38.44736 -38.44284 -38.43761 -38.43478 -38.43334
  Beta  occ. eigenvalues --  -38.43206 -38.42799  -2.20551  -2.20086  -2.19695
  Beta  occ. eigenvalues --   -2.19383  -2.19346  -2.19133  -2.18635  -1.14239
  Beta  occ. eigenvalues --   -1.14210  -1.14192  -1.13788  -1.13774  -1.13719
  Beta  occ. eigenvalues --   -1.13518  -1.13331  -1.13301  -1.13132  -1.13056
  Beta  occ. eigenvalues --   -1.13041  -1.13010  -1.12990  -1.12980  -1.12846
  Beta  occ. eigenvalues --   -1.12773  -1.12709  -1.12323  -1.12284  -1.12248
  Beta  occ. eigenvalues --   -0.18209  -0.13675  -0.11015
  Beta virt. eigenvalues --   -0.07252  -0.06172  -0.04747  -0.03960  -0.02990
  Beta virt. eigenvalues --   -0.02174  -0.01791  -0.01473  -0.00739  -0.00465
  Beta virt. eigenvalues --    0.00211   0.00254   0.00346   0.00524   0.00805

 Mulliken charges and spin densities:
               1          2
     1  Na  -0.459450   0.195870
     2  Na   0.234696   0.176856
     3  Na  -0.059860   0.080902
     4  Na  -0.058543   0.309390
     5  Na  -0.036440   0.115231
     6  Na   0.484797   0.072450
     7  Na  -0.105199   0.049301
 Sum of Mulliken charges =  -0.00000   1.00000

 Dipole moment (field-independent basis, Debye):
    X=              0.6491    Y=             -0.2183    Z=              0.0660  Tot=              0.6880
 Quadrupole moment (field-independent basis, Debye-Ang):
   XX=            -48.7531   YY=            -75.2234   ZZ=            -67.4112
   XY=              0.5592   XZ=             -1.6781   YZ=              2.4983

 Normal termination of Gaussian 16 at Tue Dec  5 11:08:26 2023.
