 Gaussian 16, Revision B.01,
 Gaussian 16:  ES64L-G16RevB.01 20-Dec-2017

 -------------------------
 #P B3LYP/6-311+g(d) force
 -------------------------

 -----
 DPGEN
 -----
 Symbolic Z-matrix:
 Charge =  0 Multiplicity = 2

                         Standard orientation:
 ---------------------------------------------------------------------
 Center     Atomic      Atomic             Coordinates (Angstroms)
 Number     Number       Type             X           Y           Z
 ---------------------------------------------------------------------
      1         11           0       -1.021408    0.176004    2.256473
      2         11           0        4.551407   -0.355895   -0.118653
      3         11           0        1.387687   -1.184611    0.242947
      4         11           0       -3.161107   -1.798265   -0.004090
      5         11           0       -2.648057    1.936874   -0.500436
      6         11           0        1.540232    1.682611   -0.021765
      7         11           0       -0.648755   -0.456717   -1.854476
 ---------------------------------------------------------------------

 SCF Done:  E(UB3LYP) =  -1136.10680856     A.U. after   27 cycles

 The electronic state is 2-A.
 Alpha  occ. eigenvalues --  -38.45992 -38.44731 -38.44452 -38.44116 -38.43587
 Alpha  occ. eigenvalues --  -38.43463 -38.43454  -2.21765  -2.20536  -2.20432
 Alpha  occ. eigenvalues --   -2.20039  -2.19459  -2.19355  -2.19272  -1.15441
 Alpha  occ. eigenvalues --   -1.15425  -1.15398  -1.14236  -1.14220  -1.14193
 Alpha  occ. eigenvalues --   -1.14149  -1.14108  -1.14028  -1.13743  -1.13658
 Alpha  occ. eigenvalues --   -1.13629  -1.13147  -1.13106  -1.13093  -1.13052
 Alpha  occ. eigenvalues --   -1.13014  -1.12939  -1.12934  -1.12913  -1.12912
 Alpha  occ. eigenvalues --   -0.18639  -0.14209  -0.11281  -0.10404
 Alpha virt. eigenvalues --   -0.07953  -0.05167  -0.03973  -0.03574  -0.02980
 Alpha virt. eigenvalues --   -0.02364  -0.02065  -0.01580  -0.00807  -0.00457
 Alpha virt. eigenvalues --   -0.00116   0.00219   0.00282   0.00638   0.00692

  Beta  occ. eigenvalues --  -38.46000 -38.44704 -38.44430 -38.44065 -38.43498
  Beta  occ. eigenvalues --  -38.43456 -38.43446  -2.21779  -2.20488  -2.20396
  Beta  occ. eigenvalues --   -2.19946  -2.19345  -2.19296  -2.19261  -1.15450
  Beta  occ. eigenvalues --   -1.15434  -1.15408  -1.14207  -1.14167  -1.14164
  Beta  occ. eigenvalues --   -1.14120  -1.14076  -1.13980  -1.13679  -1.13597
  Beta  occ. eigenvalues --   -1.13552  -1.13102  -1.13030  -1.12987  -1.12982
  Beta  occ. eigenvalues --   -1.12939  -1.12932  -1.12909  -1.12908  -1.12902
  Beta  occ. eigenvalues --   -0.17892  -0.14030  -0.10242
  Beta virt. eigenvalues --   -0.07784  -0.07220  -0.05078  -0.03577  -0.03219
  Beta virt. eigenvalues --   -0.02565  -0.01916  -0.01431  -0.01303  -0.00512
  Beta virt. eigenvalues --   -0.00391  -0.00107   0.00252   0.00424   0.00679

 Mulliken charges and spin densities:
               1          2
     1  Na   0.056210   0.457451
     2  Na   0.488698  -0.105511
     3  Na  -0.310255   0.317436
     4  Na  -0.096735  -0.057098
     5  Na  -0.124379   0.032508
     6  Na  -0.336474  -0.031048
     7  Na   0.322935   0.386262
 Sum of Mulliken charges =  -0.00000   1.00000

 Dipole moment (field-independent basis, Debye):
    X=              1.4723    Y=              0.7731    Z=              0.1592  Tot=              1.6705
 Quadrupole moment (field-independent basis, Debye-Ang):
   XX=            -40.6144   YY=            -77.5258   ZZ=            -72.5931
   XY=             -2.5417   XZ=             -1.7758   YZ=             -4.1471

 Normal termination of Gaussian 16 at Thu Dec  7 03:57:24 2023.
