 Gaussian 16, Revision B.01,
 Gaussian 16:  ES64L-G16RevB.01 20-Dec-2017

 -------------------------
 #P B3LYP/6-311+g(d) force
 -------------------------

 -----
 DPGEN
 -----
 Symbolic Z-matrix:
 Charge =  0 Multiplicity = 2

                         Standard orientation:
 ---------------------------------------------------------------------
 Center     Atomic      Atomic             Coordinates (Angstroms)
 Number     Number       Type             X           Y           Z
 ---------------------------------------------------------------------
      1         11           0       -0.176749   -1.778062    0.443344
      2         11           0       -3.065714   -3.182112   -0.263181
      3         11           0       -3.100533    0.095781   -0.625423
      4         11           0       -2.857479    3.415444   -0.268021
      5         11           0       -0.242150    1.758941    0.985205
      6         11           0        3.268058   -0.800553    0.521554
      7         11           0        6.174568    0.490560   -0.793478
 ---------------------------------------------------------------------

 SCF Done:  E(UB3LYP) =  -1136.12625552     A.U. after   21 cycles

 The electronic state is 2-A.
 Alpha  occ. eigenvalues --  -38.44732 -38.44500 -38.44177 -38.43982 -38.43671
 Alpha  occ. eigenvalues --  -38.43629 -38.43463  -2.20549  -2.20295  -2.20049
 Alpha  occ. eigenvalues --   -2.19809  -2.19543  -2.19470  -2.19239  -1.14245
 Alpha  occ. eigenvalues --   -1.14234  -1.14141  -1.13930  -1.13929  -1.13909
 Alpha  occ. eigenvalues --   -1.13748  -1.13740  -1.13662  -1.13471  -1.13463
 Alpha  occ. eigenvalues --   -1.13435  -1.13239  -1.13229  -1.13186  -1.13125
 Alpha  occ. eigenvalues --   -1.13119  -1.13068  -1.12933  -1.12925  -1.12880
 Alpha  occ. eigenvalues --   -0.16993  -0.13646  -0.12822  -0.11279
 Alpha virt. eigenvalues --   -0.05840  -0.05477  -0.04583  -0.04025  -0.02604
 Alpha virt. eigenvalues --   -0.02150  -0.01848  -0.01816  -0.01348  -0.00848
 Alpha virt. eigenvalues --   -0.00532   0.00074   0.00213   0.00373   0.00669

  Beta  occ. eigenvalues --  -38.44703 -38.44395 -38.44152 -38.43972 -38.43637
  Beta  occ. eigenvalues --  -38.43614 -38.43472  -2.20497  -2.20099  -2.20006
  Beta  occ. eigenvalues --   -2.19790  -2.19483  -2.19441  -2.19265  -1.14210
  Beta  occ. eigenvalues --   -1.14201  -1.14093  -1.13796  -1.13796  -1.13780
  Beta  occ. eigenvalues --   -1.13718  -1.13708  -1.13626  -1.13452  -1.13451
  Beta  occ. eigenvalues --   -1.13424  -1.13199  -1.13192  -1.13150  -1.13100
  Beta  occ. eigenvalues --   -1.13096  -1.13033  -1.12959  -1.12949  -1.12842
  Beta  occ. eigenvalues --   -0.16491  -0.12919  -0.12505
  Beta virt. eigenvalues --   -0.07839  -0.05427  -0.05298  -0.04098  -0.03875
  Beta virt. eigenvalues --   -0.02251  -0.01876  -0.01742  -0.01497  -0.01080
  Beta virt. eigenvalues --   -0.00495  -0.00193   0.00218   0.00378   0.00489

 Mulliken charges and spin densities:
               1          2
     1  Na  -1.463032   0.004490
     2  Na   1.512701   0.275978
     3  Na  -0.907347   0.307915
     4  Na   1.054884   0.040931
     5  Na  -0.427647   0.066534
     6  Na  -0.371028  -0.200813
     7  Na   0.601469   0.504965
 Sum of Mulliken charges =  -0.00000   1.00000

 Dipole moment (field-independent basis, Debye):
    X=             -1.2025    Y=              0.7554    Z=             -0.1240  Tot=              1.4255
 Quadrupole moment (field-independent basis, Debye-Ang):
   XX=            -63.9309   YY=            -59.2832   ZZ=            -71.3535
   XY=              1.4450   XZ=             -0.2941   YZ=             -0.8607

 Normal termination of Gaussian 16 at Wed Nov 29 04:08:55 2023.
