 Gaussian 16, Revision B.01,
 Gaussian 16:  ES64L-G16RevB.01 20-Dec-2017

 -------------------------
 #P B3LYP/6-311+g(d) force
 -------------------------

 -----
 DPGEN
 -----
 Symbolic Z-matrix:
 Charge =  0 Multiplicity = 2

                         Standard orientation:
 ---------------------------------------------------------------------
 Center     Atomic      Atomic             Coordinates (Angstroms)
 Number     Number       Type             X           Y           Z
 ---------------------------------------------------------------------
      1         11           0        0.063914    0.137620    1.656254
      2         11           0        1.812380    2.257434   -0.170337
      3         11           0       -1.917210    2.407371    0.158364
      4         11           0       -0.218191    0.001595   -1.618258
      5         11           0       -3.089408   -1.270585   -0.107166
      6         11           0        0.322020   -2.693399    0.156510
      7         11           0        3.026495   -0.840037   -0.075366
 ---------------------------------------------------------------------

 SCF Done:  E(UB3LYP) =  -1136.13706052     A.U. after   19 cycles

 The electronic state is 2-A.
 Alpha  occ. eigenvalues --  -38.44328 -38.43871 -38.43811 -38.43488 -38.43173
 Alpha  occ. eigenvalues --  -38.42911 -38.42853  -2.20124  -2.19740  -2.19645
 Alpha  occ. eigenvalues --   -2.19372  -2.19081  -2.18913  -2.18863  -1.13801
 Alpha  occ. eigenvalues --   -1.13772  -1.13768  -1.13410  -1.13405  -1.13396
 Alpha  occ. eigenvalues --   -1.13327  -1.13317  -1.13268  -1.13063  -1.13042
 Alpha  occ. eigenvalues --   -1.12991  -1.12814  -1.12759  -1.12692  -1.12638
 Alpha  occ. eigenvalues --   -1.12537  -1.12526  -1.12516  -1.12482  -1.12465
 Alpha  occ. eigenvalues --   -0.18998  -0.13144  -0.12582  -0.10284
 Alpha virt. eigenvalues --   -0.05814  -0.05415  -0.04503  -0.02973  -0.02695
 Alpha virt. eigenvalues --   -0.02004  -0.01774  -0.01307  -0.00385  -0.00277
 Alpha virt. eigenvalues --    0.00032   0.00336   0.00765   0.00841   0.00910

  Beta  occ. eigenvalues --  -38.44326 -38.43866 -38.43805 -38.43479 -38.43163
  Beta  occ. eigenvalues --  -38.42841 -38.42775  -2.20123  -2.19736  -2.19637
  Beta  occ. eigenvalues --   -2.19359  -2.19067  -2.18786  -2.18720  -1.13783
  Beta  occ. eigenvalues --   -1.13772  -1.13770  -1.13412  -1.13404  -1.13364
  Beta  occ. eigenvalues --   -1.13319  -1.13291  -1.13267  -1.13057  -1.13005
  Beta  occ. eigenvalues --   -1.12983  -1.12799  -1.12713  -1.12686  -1.12552
  Beta  occ. eigenvalues --   -1.12449  -1.12430  -1.12420  -1.12380  -1.12362
  Beta  occ. eigenvalues --   -0.18282  -0.12896  -0.12304
  Beta virt. eigenvalues --   -0.06399  -0.05778  -0.05407  -0.04502  -0.02214
  Beta virt. eigenvalues --   -0.01909  -0.01690  -0.01247  -0.00991  -0.00443
  Beta virt. eigenvalues --   -0.00314   0.00167   0.00371   0.00806   0.00840

 Mulliken charges and spin densities:
               1          2
     1  Na  -0.355703   0.670505
     2  Na   0.280808  -0.043916
     3  Na   0.067167  -0.136547
     4  Na  -0.455302   0.697659
     5  Na   0.063694  -0.112394
     6  Na   0.244771  -0.067424
     7  Na   0.154565  -0.007884
 Sum of Mulliken charges =  -0.00000   1.00000

 Dipole moment (field-independent basis, Debye):
    X=             -0.3528    Y=              0.0754    Z=             -0.0024  Tot=              0.3608
 Quadrupole moment (field-independent basis, Debye-Ang):
   XX=            -52.2371   YY=            -61.6696   ZZ=            -76.9035
   XY=             -0.0332   XZ=             -0.6324   YZ=             -0.2431

 Normal termination of Gaussian 16 at Fri Dec  8 06:08:49 2023.
