 Gaussian 16, Revision B.01,
 Gaussian 16:  ES64L-G16RevB.01 20-Dec-2017

 -------------------------
 #P B3LYP/6-311+g(d) force
 -------------------------

 -----
 DPGEN
 -----
 Symbolic Z-matrix:
 Charge =  0 Multiplicity = 2

                         Standard orientation:
 ---------------------------------------------------------------------
 Center     Atomic      Atomic             Coordinates (Angstroms)
 Number     Number       Type             X           Y           Z
 ---------------------------------------------------------------------
      1         11           0       -2.590213    2.010971    0.135009
      2         11           0       -2.732765   -1.294024    0.156271
      3         11           0        0.571546   -3.032405   -0.394056
      4         11           0        1.691906    2.962955   -0.277795
      5         11           0        0.403655   -0.188172    2.018539
      6         11           0        3.054976   -0.496417    0.001003
      7         11           0       -0.399105    0.037091   -1.638971
 ---------------------------------------------------------------------

 SCF Done:  E(UB3LYP) =  -1136.13495465     A.U. after   19 cycles

 The electronic state is 2-A.
 Alpha  occ. eigenvalues --  -38.44154 -38.44133 -38.43955 -38.43876 -38.43615
 Alpha  occ. eigenvalues --  -38.43392 -38.43296  -2.19964  -2.19957  -2.19737
 Alpha  occ. eigenvalues --   -2.19713  -2.19483  -2.19228  -2.19224  -1.13651
 Alpha  occ. eigenvalues --   -1.13642  -1.13630  -1.13623  -1.13608  -1.13581
 Alpha  occ. eigenvalues --   -1.13433  -1.13398  -1.13391  -1.13366  -1.13358
 Alpha  occ. eigenvalues --   -1.13358  -1.13150  -1.13112  -1.13100  -1.12930
 Alpha  occ. eigenvalues --   -1.12904  -1.12879  -1.12868  -1.12858  -1.12834
 Alpha  occ. eigenvalues --   -0.18201  -0.13120  -0.12183  -0.10448
 Alpha virt. eigenvalues --   -0.05801  -0.05340  -0.05031  -0.03262  -0.02711
 Alpha virt. eigenvalues --   -0.02371  -0.01520  -0.01358  -0.00748  -0.00571
 Alpha virt. eigenvalues --   -0.00015   0.00353   0.00769   0.00789   0.00826

  Beta  occ. eigenvalues --  -38.44153 -38.44129 -38.43953 -38.43869 -38.43525
  Beta  occ. eigenvalues --  -38.43383 -38.43235  -2.19963  -2.19953  -2.19729
  Beta  occ. eigenvalues --   -2.19711  -2.19317  -2.19210  -2.19117  -1.13643
  Beta  occ. eigenvalues --   -1.13638  -1.13612  -1.13610  -1.13605  -1.13584
  Beta  occ. eigenvalues --   -1.13424  -1.13378  -1.13371  -1.13365  -1.13358
  Beta  occ. eigenvalues --   -1.13354  -1.13040  -1.12991  -1.12986  -1.12894
  Beta  occ. eigenvalues --   -1.12866  -1.12849  -1.12834  -1.12782  -1.12757
  Beta  occ. eigenvalues --   -0.17494  -0.12913  -0.11962
  Beta virt. eigenvalues --   -0.06616  -0.05766  -0.05256  -0.04964  -0.02482
  Beta virt. eigenvalues --   -0.02047  -0.01434  -0.01393  -0.01229  -0.00786
  Beta virt. eigenvalues --   -0.00619   0.00139   0.00388   0.00786   0.00825

 Mulliken charges and spin densities:
               1          2
     1  Na  -0.037934  -0.094758
     2  Na   0.212842   0.021145
     3  Na   0.105646  -0.025678
     4  Na  -0.131259  -0.107614
     5  Na  -0.274674   0.673599
     6  Na   0.170072  -0.037046
     7  Na  -0.044693   0.570352
 Sum of Mulliken charges =  -0.00000   1.00000

 Dipole moment (field-independent basis, Debye):
    X=             -0.1050    Y=              0.1314    Z=              0.1035  Tot=              0.1975
 Quadrupole moment (field-independent basis, Debye-Ang):
   XX=            -57.3478   YY=            -59.9236   ZZ=            -75.8927
   XY=             -0.9105   XZ=             -1.7002   YZ=              0.5506

 Normal termination of Gaussian 16 at Thu Dec  7 11:06:02 2023.
