 Gaussian 16, Revision B.01,
 Gaussian 16:  ES64L-G16RevB.01 20-Dec-2017

 -------------------------
 #P B3LYP/6-311+g(d) force
 -------------------------

 -----
 DPGEN
 -----
 Symbolic Z-matrix:
 Charge =  0 Multiplicity = 2

                         Standard orientation:
 ---------------------------------------------------------------------
 Center     Atomic      Atomic             Coordinates (Angstroms)
 Number     Number       Type             X           Y           Z
 ---------------------------------------------------------------------
      1         11           0        0.118624    0.075913   -1.531662
      2         11           0        2.680001    0.912031   -0.296843
      3         11           0        1.801978   -2.301347    0.188084
      4         11           0       -1.877613   -2.106600   -0.061980
      5         11           0        0.096476   -0.100210    1.531219
      6         11           0       -2.651015    0.668262   -0.162350
      7         11           0       -0.168450    2.851952    0.333533
 ---------------------------------------------------------------------

 SCF Done:  E(UB3LYP) =  -1136.12804848     A.U. after   22 cycles

 The electronic state is 2-A.
 Alpha  occ. eigenvalues --  -38.43741 -38.43555 -38.43538 -38.43538 -38.43237
 Alpha  occ. eigenvalues --  -38.42879 -38.42754  -2.19680  -2.19547  -2.19486
 Alpha  occ. eigenvalues --   -2.19443  -2.19150  -2.19017  -2.18889  -1.13442
 Alpha  occ. eigenvalues --   -1.13419  -1.13337  -1.13291  -1.13227  -1.13189
 Alpha  occ. eigenvalues --   -1.13167  -1.13131  -1.13123  -1.13098  -1.13058
 Alpha  occ. eigenvalues --   -1.13026  -1.12863  -1.12812  -1.12779  -1.12757
 Alpha  occ. eigenvalues --   -1.12643  -1.12592  -1.12538  -1.12496  -1.12486
 Alpha  occ. eigenvalues --   -0.19909  -0.13504  -0.12900  -0.10627
 Alpha virt. eigenvalues --   -0.05266  -0.05039  -0.04704  -0.03120  -0.02751
 Alpha virt. eigenvalues --   -0.01946  -0.01318  -0.01199  -0.00060   0.00032
 Alpha virt. eigenvalues --    0.00122   0.00363   0.00901   0.00932   0.00974

  Beta  occ. eigenvalues --  -38.43728 -38.43545 -38.43530 -38.43530 -38.43227
  Beta  occ. eigenvalues --  -38.42805 -38.42680  -2.19661  -2.19534  -2.19476
  Beta  occ. eigenvalues --   -2.19433  -2.19135  -2.18885  -2.18754  -1.13422
  Beta  occ. eigenvalues --   -1.13414  -1.13298  -1.13282  -1.13220  -1.13156
  Beta  occ. eigenvalues --   -1.13141  -1.13123  -1.13084  -1.13070  -1.13052
  Beta  occ. eigenvalues --   -1.13021  -1.12844  -1.12779  -1.12764  -1.12674
  Beta  occ. eigenvalues --   -1.12543  -1.12504  -1.12443  -1.12402  -1.12387
  Beta  occ. eigenvalues --   -0.19192  -0.13181  -0.12604
  Beta virt. eigenvalues --   -0.06660  -0.05244  -0.05032  -0.04698  -0.02256
  Beta virt. eigenvalues --   -0.01976  -0.01230  -0.01127  -0.00940  -0.00072
  Beta virt. eigenvalues --    0.00002   0.00201   0.00402   0.00933   0.00948

 Mulliken charges and spin densities:
               1          2
     1  Na  -0.412244   0.487612
     2  Na   0.215548  -0.015143
     3  Na   0.153776  -0.073104
     4  Na   0.141798  -0.052958
     5  Na  -0.552671   0.611962
     6  Na   0.269909   0.044507
     7  Na   0.183884  -0.002877
 Sum of Mulliken charges =  -0.00000   1.00000

 Dipole moment (field-independent basis, Debye):
    X=              0.2238    Y=             -0.0511    Z=              0.0280  Tot=              0.2313
 Quadrupole moment (field-independent basis, Debye-Ang):
   XX=            -57.6547   YY=            -59.0359   ZZ=            -75.5807
   XY=             -0.1637   XZ=              0.0248   YZ=              0.3770

 Normal termination of Gaussian 16 at Sun Dec  3 18:40:55 2023.
