 Gaussian 16, Revision B.01,
 Gaussian 16:  ES64L-G16RevB.01 20-Dec-2017

 -------------------------
 #P B3LYP/6-311+g(d) force
 -------------------------

 -----
 DPGEN
 -----
 Symbolic Z-matrix:
 Charge =  0 Multiplicity = 2

                         Standard orientation:
 ---------------------------------------------------------------------
 Center     Atomic      Atomic             Coordinates (Angstroms)
 Number     Number       Type             X           Y           Z
 ---------------------------------------------------------------------
      1         11           0       -0.958272   -1.600516   -1.017220
      2         11           0       -0.217697    2.298419   -0.896519
      3         11           0        3.628105    2.576264    0.444532
      4         11           0        4.742987   -0.672406    1.072069
      5         11           0        2.744043   -2.753115   -0.474603
      6         11           0       -4.014089    0.659518   -0.732659
      7         11           0       -5.925076   -0.508165    1.604400
 ---------------------------------------------------------------------

 SCF Done:  E(UB3LYP) =  -1136.10465837     A.U. after   26 cycles

 The electronic state is 2-A.
 Alpha  occ. eigenvalues --  -38.46081 -38.45074 -38.44695 -38.44559 -38.44320
 Alpha  occ. eigenvalues --  -38.43971 -38.43794  -2.21837  -2.20874  -2.20450
 Alpha  occ. eigenvalues --   -2.20350  -2.20114  -2.19698  -2.19578  -1.15513
 Alpha  occ. eigenvalues --   -1.15490  -1.15433  -1.14521  -1.14510  -1.14504
 Alpha  occ. eigenvalues --   -1.14124  -1.14109  -1.14072  -1.14039  -1.14025
 Alpha  occ. eigenvalues --   -1.13981  -1.13787  -1.13781  -1.13757  -1.13395
 Alpha  occ. eigenvalues --   -1.13385  -1.13314  -1.13247  -1.13240  -1.13213
 Alpha  occ. eigenvalues --   -0.15821  -0.14244  -0.12363  -0.11384
 Alpha virt. eigenvalues --   -0.06653  -0.06271  -0.04376  -0.03590  -0.02925
 Alpha virt. eigenvalues --   -0.02696  -0.02581  -0.01318  -0.01089  -0.01027
 Alpha virt. eigenvalues --   -0.00830  -0.00585  -0.00283   0.00190   0.00625

  Beta  occ. eigenvalues --  -38.46002 -38.44993 -38.44659 -38.44559 -38.44314
  Beta  occ. eigenvalues --  -38.43979 -38.43776  -2.21693  -2.20724  -2.20384
  Beta  occ. eigenvalues --   -2.20355  -2.20104  -2.19712  -2.19544  -1.15419
  Beta  occ. eigenvalues --   -1.15395  -1.15317  -1.14418  -1.14407  -1.14405
  Beta  occ. eigenvalues --   -1.14080  -1.14063  -1.14045  -1.14036  -1.14028
  Beta  occ. eigenvalues --   -1.13943  -1.13782  -1.13779  -1.13739  -1.13405
  Beta  occ. eigenvalues --   -1.13394  -1.13323  -1.13226  -1.13219  -1.13183
  Beta  occ. eigenvalues --   -0.15059  -0.13648  -0.11228
  Beta virt. eigenvalues --   -0.08888  -0.06116  -0.05871  -0.03996  -0.03285
  Beta virt. eigenvalues --   -0.02773  -0.02419  -0.02353  -0.00988  -0.00914
  Beta virt. eigenvalues --   -0.00739  -0.00509  -0.00413  -0.00200   0.00282

 Mulliken charges and spin densities:
               1          2
     1  Na  -0.133174   0.438035
     2  Na  -0.035943  -0.110085
     3  Na  -0.001002   0.288752
     4  Na  -0.113892  -0.029800
     5  Na   0.000945   0.032845
     6  Na  -0.114784   0.018366
     7  Na   0.397851   0.361886
 Sum of Mulliken charges =  -0.00000   1.00000

 Dipole moment (field-independent basis, Debye):
    X=             -1.0992    Y=             -0.3249    Z=              0.4212  Tot=              1.2212
 Quadrupole moment (field-independent basis, Debye-Ang):
   XX=            -58.2611   YY=            -71.0651   ZZ=            -68.6773
   XY=              4.2114   XZ=             -0.1115   YZ=              0.0804

 Normal termination of Gaussian 16 at Sun Dec  3 23:27:50 2023.
