 Gaussian 16, Revision B.01,
 Gaussian 16:  ES64L-G16RevB.01 20-Dec-2017

 -------------------------
 #P B3LYP/6-311+g(d) force
 -------------------------

 -----
 DPGEN
 -----
 Symbolic Z-matrix:
 Charge =  0 Multiplicity = 2

                         Standard orientation:
 ---------------------------------------------------------------------
 Center     Atomic      Atomic             Coordinates (Angstroms)
 Number     Number       Type             X           Y           Z
 ---------------------------------------------------------------------
      1         11           0       -3.738790    0.040562   -0.566182
      2         11           0        2.798492   -1.501086   -0.924908
      3         11           0        0.029951    0.527216   -1.963435
      4         11           0        1.127440    2.934288   -0.195775
      5         11           0        1.825951   -0.068912    1.715883
      6         11           0       -0.748469   -2.466500    0.223716
      7         11           0       -1.294574    0.534433    1.710700
 ---------------------------------------------------------------------

 SCF Done:  E(UB3LYP) =  -1136.12873974     A.U. after   21 cycles

 The electronic state is 2-A.
 Alpha  occ. eigenvalues --  -38.44601 -38.44082 -38.43891 -38.43884 -38.43814
 Alpha  occ. eigenvalues --  -38.43774 -38.42793  -2.20377  -2.19960  -2.19801
 Alpha  occ. eigenvalues --   -2.19722  -2.19688  -2.19626  -2.18618  -1.14058
 Alpha  occ. eigenvalues --   -1.14032  -1.14005  -1.13628  -1.13609  -1.13586
 Alpha  occ. eigenvalues --   -1.13565  -1.13499  -1.13402  -1.13386  -1.13379
 Alpha  occ. eigenvalues --   -1.13355  -1.13333  -1.13324  -1.13320  -1.13311
 Alpha  occ. eigenvalues --   -1.13276  -1.13212  -1.12309  -1.12266  -1.12260
 Alpha  occ. eigenvalues --   -0.18356  -0.12955  -0.11799  -0.11582
 Alpha virt. eigenvalues --   -0.06226  -0.04627  -0.04351  -0.03288  -0.03243
 Alpha virt. eigenvalues --   -0.03006  -0.01918  -0.00822  -0.00712   0.00143
 Alpha virt. eigenvalues --    0.00162   0.00302   0.00435   0.00785   0.00889

  Beta  occ. eigenvalues --  -38.44596 -38.44010 -38.43877 -38.43829 -38.43807
  Beta  occ. eigenvalues --  -38.43718 -38.42795  -2.20368  -2.19829  -2.19704
  Beta  occ. eigenvalues --   -2.19695  -2.19616  -2.19588  -2.18624  -1.14049
  Beta  occ. eigenvalues --   -1.14023  -1.14000  -1.13544  -1.13514  -1.13489
  Beta  occ. eigenvalues --   -1.13481  -1.13450  -1.13351  -1.13344  -1.13335
  Beta  occ. eigenvalues --   -1.13328  -1.13297  -1.13293  -1.13277  -1.13237
  Beta  occ. eigenvalues --   -1.13220  -1.13199  -1.12304  -1.12272  -1.12254
  Beta  occ. eigenvalues --   -0.17532  -0.12824  -0.11392
  Beta virt. eigenvalues --   -0.07752  -0.06108  -0.04467  -0.03881  -0.03096
  Beta virt. eigenvalues --   -0.02374  -0.02241  -0.01785  -0.00733  -0.00395
  Beta virt. eigenvalues --    0.00164   0.00207   0.00322   0.00530   0.00838

 Mulliken charges and spin densities:
               1          2
     1  Na   0.151248  -0.008743
     2  Na   0.224180  -0.018809
     3  Na  -0.120921   0.647662
     4  Na  -0.300274  -0.026590
     5  Na   0.322989   0.181830
     6  Na  -0.474486   0.060350
     7  Na   0.197264   0.164299
 Sum of Mulliken charges =  -0.00000   1.00000

 Dipole moment (field-independent basis, Debye):
    X=             -0.5752    Y=             -0.2818    Z=             -0.3209  Tot=              0.7164
 Quadrupole moment (field-independent basis, Debye-Ang):
   XX=            -55.8854   YY=            -71.3145   ZZ=            -67.3851
   XY=             -0.3528   XZ=              1.5187   YZ=              1.5359

 Normal termination of Gaussian 16 at Tue Dec  5 13:31:47 2023.
