 Gaussian 16, Revision B.01,
 Gaussian 16:  ES64L-G16RevB.01 20-Dec-2017

 -------------------------
 #P B3LYP/6-311+g(d) force
 -------------------------

 -----
 DPGEN
 -----
 Symbolic Z-matrix:
 Charge =  0 Multiplicity = 2

                         Standard orientation:
 ---------------------------------------------------------------------
 Center     Atomic      Atomic             Coordinates (Angstroms)
 Number     Number       Type             X           Y           Z
 ---------------------------------------------------------------------
      1         11           0        2.608023   -1.946729   -0.405752
      2         11           0        0.037523   -0.392275   -1.580970
      3         11           0       -0.015734    0.237856    2.090671
      4         11           0       -0.601612    3.077587   -0.324748
      5         11           0       -1.595929   -2.651456    0.399306
      6         11           0       -3.037590    0.292118   -0.364597
      7         11           0        2.605319    1.382899    0.186090
 ---------------------------------------------------------------------

 SCF Done:  E(UB3LYP) =  -1136.13796941     A.U. after   19 cycles

 The electronic state is 2-A.
 Alpha  occ. eigenvalues --  -38.43932 -38.43789 -38.43743 -38.43729 -38.43729
 Alpha  occ. eigenvalues --  -38.43379 -38.43237  -2.19775  -2.19642  -2.19614
 Alpha  occ. eigenvalues --   -2.19561  -2.19558  -2.19195  -2.19185  -1.13466
 Alpha  occ. eigenvalues --   -1.13439  -1.13410  -1.13346  -1.13318  -1.13286
 Alpha  occ. eigenvalues --   -1.13274  -1.13251  -1.13240  -1.13234  -1.13226
 Alpha  occ. eigenvalues --   -1.13208  -1.13201  -1.13195  -1.13184  -1.12880
 Alpha  occ. eigenvalues --   -1.12863  -1.12846  -1.12830  -1.12824  -1.12817
 Alpha  occ. eigenvalues --   -0.18392  -0.13105  -0.12280  -0.10754
 Alpha virt. eigenvalues --   -0.05415  -0.05297  -0.04938  -0.03256  -0.02876
 Alpha virt. eigenvalues --   -0.02528  -0.01477  -0.01241  -0.00504  -0.00374
 Alpha virt. eigenvalues --   -0.00020   0.00349   0.00787   0.00847   0.00862

  Beta  occ. eigenvalues --  -38.43923 -38.43783 -38.43721 -38.43719 -38.43648
  Beta  occ. eigenvalues --  -38.43376 -38.43183  -2.19762  -2.19634  -2.19548
  Beta  occ. eigenvalues --   -2.19545  -2.19437  -2.19182  -2.19097  -1.13452
  Beta  occ. eigenvalues --   -1.13417  -1.13400  -1.13330  -1.13294  -1.13279
  Beta  occ. eigenvalues --   -1.13233  -1.13220  -1.13194  -1.13189  -1.13185
  Beta  occ. eigenvalues --   -1.13180  -1.13158  -1.13120  -1.13094  -1.12852
  Beta  occ. eigenvalues --   -1.12843  -1.12818  -1.12808  -1.12756  -1.12748
  Beta  occ. eigenvalues --   -0.17687  -0.12868  -0.12044
  Beta virt. eigenvalues --   -0.06888  -0.05375  -0.05230  -0.04844  -0.02491
  Beta virt. eigenvalues --   -0.02188  -0.01530  -0.01358  -0.01151  -0.00526
  Beta virt. eigenvalues --   -0.00404   0.00123   0.00386   0.00843   0.00860

 Mulliken charges and spin densities:
               1          2
     1  Na   0.154719  -0.029917
     2  Na  -0.120044   0.394030
     3  Na  -0.329762   0.647187
     4  Na  -0.092301  -0.043086
     5  Na   0.063910   0.046802
     6  Na   0.150295  -0.024458
     7  Na   0.173182   0.009442
 Sum of Mulliken charges =  -0.00000   1.00000

 Dipole moment (field-independent basis, Debye):
    X=             -0.0456    Y=             -0.1574    Z=              0.1519  Tot=              0.2235
 Quadrupole moment (field-independent basis, Debye-Ang):
   XX=            -58.1097   YY=            -61.1901   ZZ=            -74.3554
   XY=             -0.0504   XZ=              0.3151   YZ=             -1.4088

 Normal termination of Gaussian 16 at Thu Dec  7 17:37:44 2023.
