 Gaussian 16, Revision B.01,
 Gaussian 16:  ES64L-G16RevB.01 20-Dec-2017

 -------------------------
 #P B3LYP/6-311+g(d) force
 -------------------------

 -----
 DPGEN
 -----
 Symbolic Z-matrix:
 Charge =  0 Multiplicity = 2

                         Standard orientation:
 ---------------------------------------------------------------------
 Center     Atomic      Atomic             Coordinates (Angstroms)
 Number     Number       Type             X           Y           Z
 ---------------------------------------------------------------------
      1         11           0        2.287800    0.522260   -1.371473
      2         11           0        2.462268   -2.485860    0.279043
      3         11           0       -1.986024    2.011571   -0.709763
      4         11           0       -3.395907   -0.823825    0.602307
      5         11           0       -1.063380   -1.407991   -1.562607
      6         11           0        1.669640    2.779912    0.823570
      7         11           0        0.025603   -0.596067    1.938923
 ---------------------------------------------------------------------

 SCF Done:  E(UB3LYP) =  -1136.12901776     A.U. after   20 cycles

 The electronic state is 2-A.
 Alpha  occ. eigenvalues --  -38.44574 -38.44388 -38.44103 -38.43899 -38.43855
 Alpha  occ. eigenvalues --  -38.43760 -38.43204  -2.20359  -2.20228  -2.19955
 Alpha  occ. eigenvalues --   -2.19744  -2.19701  -2.19554  -2.19008  -1.14049
 Alpha  occ. eigenvalues --   -1.14035  -1.13982  -1.13914  -1.13880  -1.13861
 Alpha  occ. eigenvalues --   -1.13639  -1.13617  -1.13553  -1.13423  -1.13413
 Alpha  occ. eigenvalues --   -1.13379  -1.13367  -1.13336  -1.13332  -1.13220
 Alpha  occ. eigenvalues --   -1.13216  -1.13190  -1.12686  -1.12665  -1.12640
 Alpha  occ. eigenvalues --   -0.17832  -0.13426  -0.11712  -0.10892
 Alpha virt. eigenvalues --   -0.05900  -0.05744  -0.04600  -0.03509  -0.02953
 Alpha virt. eigenvalues --   -0.02730  -0.01718  -0.01210  -0.00626  -0.00199
 Alpha virt. eigenvalues --    0.00078   0.00339   0.00442   0.00545   0.00679

  Beta  occ. eigenvalues --  -38.44564 -38.44382 -38.44057 -38.43874 -38.43771
  Beta  occ. eigenvalues --  -38.43763 -38.43198  -2.20342  -2.20220  -2.19872
  Beta  occ. eigenvalues --   -2.19698  -2.19562  -2.19547  -2.18997  -1.14028
  Beta  occ. eigenvalues --   -1.14021  -1.13970  -1.13907  -1.13866  -1.13848
  Beta  occ. eigenvalues --   -1.13583  -1.13547  -1.13495  -1.13385  -1.13377
  Beta  occ. eigenvalues --   -1.13351  -1.13265  -1.13245  -1.13226  -1.13219
  Beta  occ. eigenvalues --   -1.13196  -1.13187  -1.12680  -1.12648  -1.12634
  Beta  occ. eigenvalues --   -0.17114  -0.13256  -0.11566
  Beta virt. eigenvalues --   -0.07093  -0.05858  -0.05514  -0.04218  -0.03066
  Beta virt. eigenvalues --   -0.02378  -0.01846  -0.01601  -0.01114  -0.00406
  Beta virt. eigenvalues --   -0.00171   0.00159   0.00390   0.00570   0.00685

 Mulliken charges and spin densities:
               1          2
     1  Na   0.091936   0.190387
     2  Na   0.153848  -0.113289
     3  Na  -0.307636   0.022641
     4  Na   0.747086   0.012800
     5  Na  -0.336983   0.320682
     6  Na   0.098224  -0.103497
     7  Na  -0.446474   0.670276
 Sum of Mulliken charges =  -0.00000   1.00000

 Dipole moment (field-independent basis, Debye):
    X=             -0.8609    Y=             -0.3041    Z=             -0.0741  Tot=              0.9161
 Quadrupole moment (field-independent basis, Debye-Ang):
   XX=            -56.3696   YY=            -68.0909   ZZ=            -70.8704
   XY=             -1.4301   XZ=             -1.0250   YZ=              0.1306

 Normal termination of Gaussian 16 at Sun Dec  3 17:24:41 2023.
