 Gaussian 16, Revision B.01,
 Gaussian 16:  ES64L-G16RevB.01 20-Dec-2017

 -------------------------
 #P B3LYP/6-311+g(d) force
 -------------------------

 -----
 DPGEN
 -----
 Symbolic Z-matrix:
 Charge =  0 Multiplicity = 2

                         Standard orientation:
 ---------------------------------------------------------------------
 Center     Atomic      Atomic             Coordinates (Angstroms)
 Number     Number       Type             X           Y           Z
 ---------------------------------------------------------------------
      1         11           0       -0.080318    0.550650   -1.678156
      2         11           0       -2.418330    1.778483   -0.170133
      3         11           0        1.134948    2.762142    0.389780
      4         11           0       -2.552922   -1.704412    0.021526
      5         11           0       -0.071182   -0.471120    2.021605
      6         11           0        0.678782   -2.461290   -0.435237
      7         11           0        3.309022   -0.454451   -0.149385
 ---------------------------------------------------------------------

 SCF Done:  E(UB3LYP) =  -1136.13627898     A.U. after   19 cycles

 The electronic state is 2-A.
 Alpha  occ. eigenvalues --  -38.44180 -38.43822 -38.43690 -38.43613 -38.43575
 Alpha  occ. eigenvalues --  -38.43275 -38.43088  -2.19979  -2.19685  -2.19517
 Alpha  occ. eigenvalues --   -2.19510  -2.19437  -2.19253  -2.19011  -1.13651
 Alpha  occ. eigenvalues --   -1.13644  -1.13618  -1.13430  -1.13336  -1.13305
 Alpha  occ. eigenvalues --   -1.13209  -1.13203  -1.13181  -1.13150  -1.13141
 Alpha  occ. eigenvalues --   -1.13132  -1.13107  -1.13080  -1.13077  -1.12926
 Alpha  occ. eigenvalues --   -1.12895  -1.12865  -1.12693  -1.12676  -1.12625
 Alpha  occ. eigenvalues --   -0.18726  -0.12912  -0.12572  -0.10805
 Alpha virt. eigenvalues --   -0.05717  -0.05192  -0.04486  -0.03124  -0.03093
 Alpha virt. eigenvalues --   -0.02544  -0.01591  -0.01118  -0.00358  -0.00123
 Alpha virt. eigenvalues --   -0.00017   0.00350   0.00783   0.00858   0.00931

  Beta  occ. eigenvalues --  -38.44180 -38.43815 -38.43681 -38.43571 -38.43524
  Beta  occ. eigenvalues --  -38.43213 -38.43073  -2.19981  -2.19677  -2.19498
  Beta  occ. eigenvalues --   -2.19434  -2.19350  -2.19141  -2.18989  -1.13651
  Beta  occ. eigenvalues --   -1.13633  -1.13621  -1.13413  -1.13316  -1.13301
  Beta  occ. eigenvalues --   -1.13196  -1.13153  -1.13129  -1.13126  -1.13096
  Beta  occ. eigenvalues --   -1.13074  -1.13064  -1.13032  -1.12995  -1.12853
  Beta  occ. eigenvalues --   -1.12814  -1.12784  -1.12678  -1.12631  -1.12607
  Beta  occ. eigenvalues --   -0.17988  -0.12682  -0.12346
  Beta virt. eigenvalues --   -0.06892  -0.05686  -0.05148  -0.04426  -0.02356
  Beta virt. eigenvalues --   -0.02347  -0.01534  -0.01476  -0.01048  -0.00392
  Beta virt. eigenvalues --   -0.00139   0.00119   0.00376   0.00840   0.00856

 Mulliken charges and spin densities:
               1          2
     1  Na  -0.187737   0.426939
     2  Na   0.281096  -0.049028
     3  Na  -0.042231  -0.039024
     4  Na   0.306829   0.000791
     5  Na  -0.574451   0.738258
     6  Na   0.233273   0.020188
     7  Na  -0.016779  -0.098124
 Sum of Mulliken charges =  -0.00000   1.00000

 Dipole moment (field-independent basis, Debye):
    X=              0.1242    Y=              0.2192    Z=              0.1892  Tot=              0.3150
 Quadrupole moment (field-independent basis, Debye-Ang):
   XX=            -55.4469   YY=            -64.3869   ZZ=            -73.6754
   XY=              0.8071   XZ=              0.0970   YZ=              1.9628

 Normal termination of Gaussian 16 at Tue Dec  5 12:32:14 2023.
