 Gaussian 16, Revision B.01,
 Gaussian 16:  ES64L-G16RevB.01 20-Dec-2017

 -------------------------
 #P B3LYP/6-311+g(d) force
 -------------------------

 -----
 DPGEN
 -----
 Symbolic Z-matrix:
 Charge =  0 Multiplicity = 2

                         Standard orientation:
 ---------------------------------------------------------------------
 Center     Atomic      Atomic             Coordinates (Angstroms)
 Number     Number       Type             X           Y           Z
 ---------------------------------------------------------------------
      1         11           0       -2.511829    1.301626   -0.528559
      2         11           0        1.155830    0.590240    0.479704
      3         11           0        1.989489   -2.771682   -0.270026
      4         11           0       -0.974708   -2.102064   -0.436361
      5         11           0       -4.515296   -0.810030    0.669692
      6         11           0        4.439705    0.202478    0.302762
      7         11           0        0.416809    3.589433   -0.217213
 ---------------------------------------------------------------------

 SCF Done:  E(UB3LYP) =  -1136.12696721     A.U. after   19 cycles

 The electronic state is 2-A.
 Alpha  occ. eigenvalues --  -38.44425 -38.44015 -38.44000 -38.43957 -38.43730
 Alpha  occ. eigenvalues --  -38.43539 -38.43407  -2.20246  -2.19846  -2.19838
 Alpha  occ. eigenvalues --   -2.19808  -2.19604  -2.19351  -2.19321  -1.13892
 Alpha  occ. eigenvalues --   -1.13882  -1.13853  -1.13586  -1.13549  -1.13530
 Alpha  occ. eigenvalues --   -1.13518  -1.13483  -1.13471  -1.13465  -1.13436
 Alpha  occ. eigenvalues --   -1.13391  -1.13283  -1.13274  -1.13186  -1.13079
 Alpha  occ. eigenvalues --   -1.13023  -1.13016  -1.13002  -1.12981  -1.12892
 Alpha  occ. eigenvalues --   -0.17166  -0.14073  -0.12649  -0.10887
 Alpha virt. eigenvalues --   -0.05656  -0.05331  -0.04762  -0.03783  -0.02561
 Alpha virt. eigenvalues --   -0.02197  -0.01729  -0.01431  -0.01154  -0.00691
 Alpha virt. eigenvalues --   -0.00303   0.00008   0.00565   0.00619   0.00739

  Beta  occ. eigenvalues --  -38.44321 -38.43993 -38.43953 -38.43944 -38.43697
  Beta  occ. eigenvalues --  -38.43533 -38.43403  -2.20052  -2.19833  -2.19792
  Beta  occ. eigenvalues --   -2.19730  -2.19547  -2.19340  -2.19317  -1.13761
  Beta  occ. eigenvalues --   -1.13750  -1.13724  -1.13551  -1.13529  -1.13506
  Beta  occ. eigenvalues --   -1.13486  -1.13465  -1.13418  -1.13407  -1.13391
  Beta  occ. eigenvalues --   -1.13339  -1.13245  -1.13239  -1.13132  -1.13078
  Beta  occ. eigenvalues --   -1.13022  -1.12997  -1.12981  -1.12969  -1.12889
  Beta  occ. eigenvalues --   -0.16716  -0.13244  -0.12229
  Beta virt. eigenvalues --   -0.07490  -0.05540  -0.05123  -0.04403  -0.03286
  Beta virt. eigenvalues --   -0.02184  -0.01868  -0.01501  -0.01222  -0.00964
  Beta virt. eigenvalues --   -0.00374   0.00059   0.00187   0.00641   0.00704

 Mulliken charges and spin densities:
               1          2
     1  Na  -0.070692   0.219960
     2  Na  -1.901891   0.038903
     3  Na   0.182149  -0.016725
     4  Na  -0.127701   0.034368
     5  Na   0.631463   0.299168
     6  Na   0.655329   0.419662
     7  Na   0.631343   0.004664
 Sum of Mulliken charges =  -0.00000   1.00000

 Dipole moment (field-independent basis, Debye):
    X=              0.1012    Y=             -0.2327    Z=             -0.1352  Tot=              0.2875
 Quadrupole moment (field-independent basis, Debye-Ang):
   XX=            -61.7509   YY=            -61.9968   ZZ=            -71.0843
   XY=             -0.3822   XZ=             -2.0390   YZ=             -1.4294

 Normal termination of Gaussian 16 at Wed Nov 29 01:51:24 2023.
