 Gaussian 16, Revision B.01,
 Gaussian 16:  ES64L-G16RevB.01 20-Dec-2017

 -------------------------
 #P B3LYP/6-311+g(d) force
 -------------------------

 -----
 DPGEN
 -----
 Symbolic Z-matrix:
 Charge =  0 Multiplicity = 2

                         Standard orientation:
 ---------------------------------------------------------------------
 Center     Atomic      Atomic             Coordinates (Angstroms)
 Number     Number       Type             X           Y           Z
 ---------------------------------------------------------------------
      1         11           0       -0.478586   -1.041516   -1.058690
      2         11           0       -1.986883    0.682294    1.733726
      3         11           0        0.863216   -1.090160    1.569734
      4         11           0       -0.480129    2.148819   -0.698410
      5         11           0       -3.993550   -0.984415   -0.856039
      6         11           0        2.406764    1.700730   -0.286719
      7         11           0        3.669168   -1.415752   -0.403601
 ---------------------------------------------------------------------

 SCF Done:  E(UB3LYP) =  -1136.11588829     A.U. after   25 cycles

 The electronic state is 2-A.
 Alpha  occ. eigenvalues --  -38.44948 -38.44636 -38.44423 -38.44266 -38.43825
 Alpha  occ. eigenvalues --  -38.43683 -38.42419  -2.20860  -2.20428  -2.20317
 Alpha  occ. eigenvalues --   -2.20079  -2.19765  -2.19575  -2.18368  -1.14639
 Alpha  occ. eigenvalues --   -1.14536  -1.14435  -1.14091  -1.14076  -1.14045
 Alpha  occ. eigenvalues --   -1.13999  -1.13978  -1.13920  -1.13754  -1.13743
 Alpha  occ. eigenvalues --   -1.13707  -1.13495  -1.13386  -1.13340  -1.13291
 Alpha  occ. eigenvalues --   -1.13236  -1.13197  -1.12058  -1.12013  -1.11999
 Alpha  occ. eigenvalues --   -0.18738  -0.14017  -0.11316  -0.11223
 Alpha virt. eigenvalues --   -0.07142  -0.05312  -0.04088  -0.03208  -0.02889
 Alpha virt. eigenvalues --   -0.02433  -0.02149  -0.01591  -0.00677  -0.00112
 Alpha virt. eigenvalues --    0.00003   0.00274   0.00487   0.00596   0.00725

  Beta  occ. eigenvalues --  -38.44934 -38.44587 -38.44370 -38.44257 -38.43761
  Beta  occ. eigenvalues --  -38.43678 -38.42409  -2.20839  -2.20337  -2.20224
  Beta  occ. eigenvalues --   -2.20063  -2.19651  -2.19567  -2.18351  -1.14592
  Beta  occ. eigenvalues --   -1.14521  -1.14424  -1.14024  -1.14012  -1.13987
  Beta  occ. eigenvalues --   -1.13929  -1.13899  -1.13853  -1.13744  -1.13726
  Beta  occ. eigenvalues --   -1.13699  -1.13426  -1.13315  -1.13283  -1.13235
  Beta  occ. eigenvalues --   -1.13220  -1.13193  -1.12046  -1.12005  -1.11974
  Beta  occ. eigenvalues --   -0.18095  -0.13675  -0.11124
  Beta virt. eigenvalues --   -0.07407  -0.06864  -0.05063  -0.03651  -0.03046
  Beta virt. eigenvalues --   -0.02676  -0.01870  -0.01515  -0.01270  -0.00392
  Beta virt. eigenvalues --   -0.00040   0.00065   0.00339   0.00592   0.00698

 Mulliken charges and spin densities:
               1          2
     1  Na  -0.901378   0.169975
     2  Na   0.377813  -0.131633
     3  Na  -0.032551   0.368059
     4  Na  -0.059136   0.223115
     5  Na   0.127560   0.214222
     6  Na  -0.397163   0.043831
     7  Na   0.884855   0.112431
 Sum of Mulliken charges =  -0.00000   1.00000

 Dipole moment (field-independent basis, Debye):
    X=             -0.1766    Y=             -0.1578    Z=              0.2591  Tot=              0.3510
 Quadrupole moment (field-independent basis, Debye-Ang):
   XX=            -49.0744   YY=            -76.5131   ZZ=            -69.3940
   XY=             -2.4165   XZ=             -2.7609   YZ=              3.5360

 Normal termination of Gaussian 16 at Fri Dec  8 01:46:21 2023.
