 Gaussian 16, Revision B.01,
 Gaussian 16:  ES64L-G16RevB.01 20-Dec-2017

 -------------------------
 #P B3LYP/6-311+g(d) force
 -------------------------

 -----
 DPGEN
 -----
 Symbolic Z-matrix:
 Charge =  0 Multiplicity = 2

                         Standard orientation:
 ---------------------------------------------------------------------
 Center     Atomic      Atomic             Coordinates (Angstroms)
 Number     Number       Type             X           Y           Z
 ---------------------------------------------------------------------
      1         11           0        2.198051    2.114723    0.315101
      2         11           0       -1.610514    2.632934   -0.540694
      3         11           0       -3.127919   -0.311895    0.206678
      4         11           0        0.348078    0.123980    1.752148
      5         11           0       -0.464072   -0.781536   -1.549853
      6         11           0        3.169822   -1.012476   -0.635364
      7         11           0       -0.513445   -2.765730    0.451984
 ---------------------------------------------------------------------

 SCF Done:  E(UB3LYP) =  -1136.12895118     A.U. after   21 cycles

 The electronic state is 2-A.
 Alpha  occ. eigenvalues --  -38.44352 -38.44352 -38.43789 -38.43558 -38.43463
 Alpha  occ. eigenvalues --  -38.43447 -38.43245  -2.20209  -2.20151  -2.19636
 Alpha  occ. eigenvalues --   -2.19548  -2.19370  -2.19271  -2.19201  -1.13905
 Alpha  occ. eigenvalues --   -1.13873  -1.13837  -1.13823  -1.13801  -1.13787
 Alpha  occ. eigenvalues --   -1.13429  -1.13372  -1.13284  -1.13254  -1.13201
 Alpha  occ. eigenvalues --   -1.13143  -1.13037  -1.12961  -1.12954  -1.12945
 Alpha  occ. eigenvalues --   -1.12931  -1.12908  -1.12868  -1.12830  -1.12803
 Alpha  occ. eigenvalues --   -0.18612  -0.13373  -0.12338  -0.10506
 Alpha virt. eigenvalues --   -0.05951  -0.05301  -0.04638  -0.03317  -0.02842
 Alpha virt. eigenvalues --   -0.02123  -0.01821  -0.01057  -0.00513  -0.00338
 Alpha virt. eigenvalues --    0.00002   0.00330   0.00781   0.00816   0.00860

  Beta  occ. eigenvalues --  -38.44348 -38.44329 -38.43782 -38.43511 -38.43456
  Beta  occ. eigenvalues --  -38.43433 -38.43164  -2.20206  -2.20110  -2.19626
  Beta  occ. eigenvalues --   -2.19464  -2.19347  -2.19259  -2.19054  -1.13898
  Beta  occ. eigenvalues --   -1.13865  -1.13822  -1.13789  -1.13768  -1.13761
  Beta  occ. eigenvalues --   -1.13384  -1.13350  -1.13267  -1.13251  -1.13143
  Beta  occ. eigenvalues --   -1.13078  -1.12996  -1.12939  -1.12934  -1.12927
  Beta  occ. eigenvalues --   -1.12915  -1.12893  -1.12770  -1.12721  -1.12707
  Beta  occ. eigenvalues --   -0.17941  -0.13112  -0.12071
  Beta virt. eigenvalues --   -0.06748  -0.05828  -0.05190  -0.04570  -0.02622
  Beta virt. eigenvalues --   -0.02149  -0.01698  -0.01222  -0.00956  -0.00513
  Beta virt. eigenvalues --   -0.00345   0.00141   0.00387   0.00835   0.00852

 Mulliken charges and spin densities:
               1          2
     1  Na   0.062416  -0.003110
     2  Na  -0.311009  -0.021402
     3  Na   0.348667   0.060559
     4  Na   0.019447   0.388490
     5  Na  -0.312528   0.499043
     6  Na  -0.167235   0.054055
     7  Na   0.360242   0.022364
 Sum of Mulliken charges =  -0.00000   1.00000

 Dipole moment (field-independent basis, Debye):
    X=              0.0106    Y=             -0.1197    Z=              0.0238  Tot=              0.1225
 Quadrupole moment (field-independent basis, Debye-Ang):
   XX=            -55.0328   YY=            -63.5589   ZZ=            -74.8681
   XY=              0.5484   XZ=             -2.1857   YZ=             -1.7203

 Normal termination of Gaussian 16 at Tue Dec  5 11:58:31 2023.
