 Gaussian 16, Revision B.01,
 Gaussian 16:  ES64L-G16RevB.01 20-Dec-2017

 -------------------------
 #P B3LYP/6-311+g(d) force
 -------------------------

 -----
 DPGEN
 -----
 Symbolic Z-matrix:
 Charge =  0 Multiplicity = 2

                         Standard orientation:
 ---------------------------------------------------------------------
 Center     Atomic      Atomic             Coordinates (Angstroms)
 Number     Number       Type             X           Y           Z
 ---------------------------------------------------------------------
      1         11           0        0.117166    0.056088   -1.706321
      2         11           0        2.764256   -1.354235    0.182549
      3         11           0        2.498498    1.528030    0.002172
      4         11           0       -3.514649   -0.340995    0.366386
      5         11           0       -1.264452    2.754140   -0.180432
      6         11           0       -0.845705   -2.613578   -0.387290
      7         11           0        0.244886   -0.029450    1.722937
 ---------------------------------------------------------------------

 SCF Done:  E(UB3LYP) =  -1136.12916223     A.U. after   20 cycles

 The electronic state is 2-A.
 Alpha  occ. eigenvalues --  -38.44972 -38.44016 -38.43937 -38.43604 -38.43259
 Alpha  occ. eigenvalues --  -38.43036 -38.43029  -2.20736  -2.19943  -2.19874
 Alpha  occ. eigenvalues --   -2.19565  -2.19069  -2.19037  -2.18898  -1.14413
 Alpha  occ. eigenvalues --   -1.14384  -1.14372  -1.13802  -1.13613  -1.13568
 Alpha  occ. eigenvalues --   -1.13532  -1.13517  -1.13424  -1.13260  -1.13191
 Alpha  occ. eigenvalues --   -1.13175  -1.12771  -1.12757  -1.12737  -1.12703
 Alpha  occ. eigenvalues --   -1.12691  -1.12636  -1.12558  -1.12552  -1.12506
 Alpha  occ. eigenvalues --   -0.18940  -0.13483  -0.12056  -0.10614
 Alpha virt. eigenvalues --   -0.06386  -0.05078  -0.04284  -0.03338  -0.02567
 Alpha virt. eigenvalues --   -0.02267  -0.02086  -0.01062  -0.00376  -0.00242
 Alpha virt. eigenvalues --   -0.00009   0.00303   0.00716   0.00800   0.00864

  Beta  occ. eigenvalues --  -38.44965 -38.44006 -38.43927 -38.43538 -38.43258
  Beta  occ. eigenvalues --  -38.43017 -38.42951  -2.20724  -2.19930  -2.19860
  Beta  occ. eigenvalues --   -2.19445  -2.19069  -2.18886  -2.18877  -1.14395
  Beta  occ. eigenvalues --   -1.14379  -1.14364  -1.13798  -1.13594  -1.13532
  Beta  occ. eigenvalues --   -1.13522  -1.13476  -1.13414  -1.13179  -1.13110
  Beta  occ. eigenvalues --   -1.13081  -1.12755  -1.12730  -1.12698  -1.12676
  Beta  occ. eigenvalues --   -1.12598  -1.12538  -1.12531  -1.12503  -1.12476
  Beta  occ. eigenvalues --   -0.18209  -0.13212  -0.11787
  Beta virt. eigenvalues --   -0.06785  -0.06230  -0.05078  -0.04259  -0.02602
  Beta virt. eigenvalues --   -0.01942  -0.01843  -0.01269  -0.01017  -0.00389
  Beta virt. eigenvalues --   -0.00265   0.00125   0.00347   0.00772   0.00866

 Mulliken charges and spin densities:
               1          2
     1  Na  -0.082000   0.571873
     2  Na   0.467283   0.080222
     3  Na   0.259247  -0.044403
     4  Na  -0.153397   0.004492
     5  Na  -0.144998  -0.116188
     6  Na   0.069532  -0.049279
     7  Na  -0.415667   0.553284
 Sum of Mulliken charges =  -0.00000   1.00000

 Dipole moment (field-independent basis, Debye):
    X=             -0.3678    Y=             -0.0177    Z=              0.1383  Tot=              0.3934
 Quadrupole moment (field-independent basis, Debye-Ang):
   XX=            -51.2759   YY=            -65.9861   ZZ=            -75.1582
   XY=             -0.3899   XZ=             -0.9107   YZ=             -0.0075

 Normal termination of Gaussian 16 at Fri Dec  8 07:51:21 2023.
