 Gaussian 16, Revision B.01,
 Gaussian 16:  ES64L-G16RevB.01 20-Dec-2017

 -------------------------
 #P B3LYP/6-311+g(d) force
 -------------------------

 -----
 DPGEN
 -----
 Symbolic Z-matrix:
 Charge =  0 Multiplicity = 2

                         Standard orientation:
 ---------------------------------------------------------------------
 Center     Atomic      Atomic             Coordinates (Angstroms)
 Number     Number       Type             X           Y           Z
 ---------------------------------------------------------------------
      1         11           0       -0.850845    0.231561   -1.797399
      2         11           0       -0.318639   -0.200445    1.838247
      3         11           0       -2.140303   -1.956904    0.058361
      4         11           0        0.922897   -1.840057   -0.286542
      5         11           0        3.257599   -0.103895    0.014913
      6         11           0        1.056806    1.822994   -0.090623
      7         11           0       -1.927516    2.046746    0.263044
 ---------------------------------------------------------------------

 SCF Done:  E(UB3LYP) =  -1136.11489567     A.U. after   19 cycles

 The electronic state is 2-A.
 Alpha  occ. eigenvalues --  -38.44211 -38.43766 -38.43718 -38.43420 -38.43412
 Alpha  occ. eigenvalues --  -38.43079 -38.43047  -2.20127  -2.19848  -2.19809
 Alpha  occ. eigenvalues --   -2.19392  -2.19374  -2.19162  -2.19131  -1.13847
 Alpha  occ. eigenvalues --   -1.13839  -1.13735  -1.13599  -1.13538  -1.13500
 Alpha  occ. eigenvalues --   -1.13496  -1.13477  -1.13440  -1.13097  -1.13070
 Alpha  occ. eigenvalues --   -1.13032  -1.13025  -1.13003  -1.12997  -1.12840
 Alpha  occ. eigenvalues --   -1.12813  -1.12805  -1.12779  -1.12742  -1.12716
 Alpha  occ. eigenvalues --   -0.20350  -0.13585  -0.12696  -0.11587
 Alpha virt. eigenvalues --   -0.05589  -0.04673  -0.03922  -0.03375  -0.03116
 Alpha virt. eigenvalues --   -0.02788  -0.01441  -0.00869  -0.00090   0.00300
 Alpha virt. eigenvalues --    0.00442   0.00574   0.00943   0.01010   0.01081

  Beta  occ. eigenvalues --  -38.44214 -38.43675 -38.43635 -38.43412 -38.43401
  Beta  occ. eigenvalues --  -38.43062 -38.43032  -2.20136  -2.19683  -2.19658
  Beta  occ. eigenvalues --   -2.19378  -2.19363  -2.19137  -2.19110  -1.13852
  Beta  occ. eigenvalues --   -1.13848  -1.13726  -1.13505  -1.13441  -1.13389
  Beta  occ. eigenvalues --   -1.13384  -1.13365  -1.13335  -1.13083  -1.13059
  Beta  occ. eigenvalues --   -1.12997  -1.12993  -1.12979  -1.12973  -1.12826
  Beta  occ. eigenvalues --   -1.12796  -1.12743  -1.12733  -1.12715  -1.12705
  Beta  occ. eigenvalues --   -0.19544  -0.13355  -0.12369
  Beta virt. eigenvalues --   -0.07477  -0.05498  -0.04682  -0.03934  -0.02593
  Beta virt. eigenvalues --   -0.02220  -0.01676  -0.01392  -0.00827   0.00084
  Beta virt. eigenvalues --    0.00318   0.00404   0.00571   0.00976   0.01002

 Mulliken charges and spin densities:
               1          2
     1  Na  -0.237653   0.374591
     2  Na  -0.237122   0.570870
     3  Na   0.304916  -0.085289
     4  Na   0.002315   0.181646
     5  Na  -0.152540  -0.145778
     6  Na  -0.008619   0.185779
     7  Na   0.328703  -0.081819
 Sum of Mulliken charges =  -0.00000   1.00000

 Dipole moment (field-independent basis, Debye):
    X=             -0.0933    Y=             -0.0531    Z=              0.0960  Tot=              0.1440
 Quadrupole moment (field-independent basis, Debye-Ang):
   XX=            -55.5430   YY=            -69.1044   ZZ=            -70.4355
   XY=              0.0766   XZ=             -0.4104   YZ=              0.7209

 Normal termination of Gaussian 16 at Thu Dec  7 21:28:38 2023.
