 Gaussian 16, Revision B.01,
 Gaussian 16:  ES64L-G16RevB.01 20-Dec-2017

 -------------------------
 #P B3LYP/6-311+g(d) force
 -------------------------

 -----
 DPGEN
 -----
 Symbolic Z-matrix:
 Charge =  0 Multiplicity = 2

                         Standard orientation:
 ---------------------------------------------------------------------
 Center     Atomic      Atomic             Coordinates (Angstroms)
 Number     Number       Type             X           Y           Z
 ---------------------------------------------------------------------
      1         11           0       -0.094973   -1.056067   -1.568998
      2         11           0        2.212575   -2.325915    0.425007
      3         11           0       -2.812966    1.347868   -0.049612
      4         11           0       -2.783744   -1.766381   -0.027767
      5         11           0        0.668023    2.763505   -0.395155
      6         11           0       -0.199388    0.326368    1.840814
      7         11           0        3.010473    0.710622   -0.224289
 ---------------------------------------------------------------------

 SCF Done:  E(UB3LYP) =  -1136.13030112     A.U. after   20 cycles

 The electronic state is 2-A.
 Alpha  occ. eigenvalues --  -38.44484 -38.44295 -38.44280 -38.43729 -38.43480
 Alpha  occ. eigenvalues --  -38.43405 -38.42886  -2.20340  -2.20160  -2.20157
 Alpha  occ. eigenvalues --   -2.19578  -2.19387  -2.19311  -2.18750  -1.14050
 Alpha  occ. eigenvalues --   -1.14002  -1.13990  -1.13847  -1.13840  -1.13817
 Alpha  occ. eigenvalues --   -1.13807  -1.13798  -1.13785  -1.13253  -1.13237
 Alpha  occ. eigenvalues --   -1.13220  -1.13072  -1.13029  -1.13003  -1.12990
 Alpha  occ. eigenvalues --   -1.12940  -1.12930  -1.12434  -1.12400  -1.12393
 Alpha  occ. eigenvalues --   -0.18553  -0.13888  -0.12165  -0.10334
 Alpha virt. eigenvalues --   -0.06140  -0.05819  -0.04269  -0.03508  -0.02756
 Alpha virt. eigenvalues --   -0.02058  -0.01913  -0.01288  -0.00638  -0.00246
 Alpha virt. eigenvalues --   -0.00003   0.00326   0.00664   0.00771   0.00860

  Beta  occ. eigenvalues --  -38.44479 -38.44290 -38.44272 -38.43719 -38.43430
  Beta  occ. eigenvalues --  -38.43324 -38.42874  -2.20335  -2.20154  -2.20145
  Beta  occ. eigenvalues --   -2.19561  -2.19294  -2.19162  -2.18731  -1.14052
  Beta  occ. eigenvalues --   -1.13991  -1.13971  -1.13834  -1.13831  -1.13808
  Beta  occ. eigenvalues --   -1.13790  -1.13783  -1.13769  -1.13240  -1.13228
  Beta  occ. eigenvalues --   -1.13191  -1.13006  -1.12961  -1.12937  -1.12890
  Beta  occ. eigenvalues --   -1.12839  -1.12819  -1.12423  -1.12386  -1.12361
  Beta  occ. eigenvalues --   -0.17884  -0.13637  -0.11924
  Beta virt. eigenvalues --   -0.06585  -0.06049  -0.05743  -0.04177  -0.02738
  Beta virt. eigenvalues --   -0.02070  -0.01801  -0.01276  -0.01071  -0.00671
  Beta virt. eigenvalues --   -0.00248   0.00175   0.00377   0.00746   0.00784

 Mulliken charges and spin densities:
               1          2
     1  Na  -0.163600   0.296710
     2  Na   0.211345   0.041921
     3  Na   0.056722   0.064463
     4  Na   0.292208   0.004788
     5  Na  -0.243669   0.053117
     6  Na  -0.214561   0.490831
     7  Na   0.061555   0.048170
 Sum of Mulliken charges =  -0.00000   1.00000

 Dipole moment (field-independent basis, Debye):
    X=             -0.4354    Y=             -0.2806    Z=              0.0791  Tot=              0.5240
 Quadrupole moment (field-independent basis, Debye-Ang):
   XX=            -52.7215   YY=            -65.9077   ZZ=            -75.7570
   XY=             -0.9742   XZ=              0.1846   YZ=             -2.6427

 Normal termination of Gaussian 16 at Tue Dec  5 11:37:01 2023.
