 Gaussian 16, Revision B.01,
 Gaussian 16:  ES64L-G16RevB.01 20-Dec-2017

 -------------------------
 #P B3LYP/6-311+g(d) force
 -------------------------

 -----
 DPGEN
 -----
 Symbolic Z-matrix:
 Charge =  0 Multiplicity = 2

                         Standard orientation:
 ---------------------------------------------------------------------
 Center     Atomic      Atomic             Coordinates (Angstroms)
 Number     Number       Type             X           Y           Z
 ---------------------------------------------------------------------
      1         11           0        3.473224    0.766287   -0.999337
      2         11           0       -1.504774   -2.622839   -0.698153
      3         11           0       -2.979976    0.091905    0.271843
      4         11           0        1.458083   -2.057921    1.413839
      5         11           0        0.674856    1.391357    1.527821
      6         11           0       -1.381885    2.987170   -0.324393
      7         11           0        0.260473   -0.555959   -1.191620
 ---------------------------------------------------------------------

 SCF Done:  E(UB3LYP) =  -1136.12522741     A.U. after   20 cycles

 The electronic state is 2-A.
 Alpha  occ. eigenvalues --  -38.44217 -38.44207 -38.43848 -38.43810 -38.43480
 Alpha  occ. eigenvalues --  -38.43459 -38.43393  -2.20051  -2.20011  -2.19704
 Alpha  occ. eigenvalues --   -2.19644  -2.19448  -2.19388  -2.19350  -1.13730
 Alpha  occ. eigenvalues --   -1.13727  -1.13692  -1.13675  -1.13658  -1.13627
 Alpha  occ. eigenvalues --   -1.13428  -1.13383  -1.13354  -1.13335  -1.13313
 Alpha  occ. eigenvalues --   -1.13298  -1.13283  -1.13132  -1.13058  -1.13040
 Alpha  occ. eigenvalues --   -1.13009  -1.13000  -1.12978  -1.12949  -1.12888
 Alpha  occ. eigenvalues --   -0.18350  -0.13050  -0.12729  -0.10532
 Alpha virt. eigenvalues --   -0.05948  -0.05243  -0.04733  -0.03273  -0.02894
 Alpha virt. eigenvalues --   -0.02078  -0.01807  -0.01228  -0.00524  -0.00367
 Alpha virt. eigenvalues --    0.00071   0.00278   0.00631   0.00752   0.00818

  Beta  occ. eigenvalues --  -38.44210 -38.44162 -38.43811 -38.43789 -38.43473
  Beta  occ. eigenvalues --  -38.43424 -38.43363  -2.20058  -2.19909  -2.19648
  Beta  occ. eigenvalues --   -2.19596  -2.19413  -2.19358  -2.19286  -1.13737
  Beta  occ. eigenvalues --   -1.13726  -1.13692  -1.13596  -1.13588  -1.13562
  Beta  occ. eigenvalues --   -1.13396  -1.13334  -1.13319  -1.13296  -1.13286
  Beta  occ. eigenvalues --   -1.13264  -1.13242  -1.13084  -1.13031  -1.13009
  Beta  occ. eigenvalues --   -1.12978  -1.12953  -1.12937  -1.12908  -1.12860
  Beta  occ. eigenvalues --   -0.17793  -0.12689  -0.12532
  Beta virt. eigenvalues --   -0.06784  -0.05757  -0.05030  -0.04651  -0.02698
  Beta virt. eigenvalues --   -0.02438  -0.01673  -0.01260  -0.01027  -0.00326
  Beta virt. eigenvalues --   -0.00270   0.00188   0.00373   0.00718   0.00773

 Mulliken charges and spin densities:
               1          2
     1  Na  -0.067929   0.160033
     2  Na   1.290768   0.046700
     3  Na  -0.307603   0.016954
     4  Na  -0.382359   0.259270
     5  Na   0.334972   0.296531
     6  Na   0.161013  -0.022790
     7  Na  -1.028862   0.243301
 Sum of Mulliken charges =  -0.00000   1.00000

 Dipole moment (field-independent basis, Debye):
    X=             -0.1345    Y=              0.1994    Z=              0.3273  Tot=              0.4062
 Quadrupole moment (field-independent basis, Debye-Ang):
   XX=            -58.8645   YY=            -62.0403   ZZ=            -72.9798
   XY=              0.0604   XZ=             -0.1973   YZ=             -2.5002

 Normal termination of Gaussian 16 at Tue Dec  5 10:47:26 2023.
