 Gaussian 16, Revision B.01,
 Gaussian 16:  ES64L-G16RevB.01 20-Dec-2017

 -------------------------
 #P B3LYP/6-311+g(d) force
 -------------------------

 -----
 DPGEN
 -----
 Symbolic Z-matrix:
 Charge =  0 Multiplicity = 2

                         Standard orientation:
 ---------------------------------------------------------------------
 Center     Atomic      Atomic             Coordinates (Angstroms)
 Number     Number       Type             X           Y           Z
 ---------------------------------------------------------------------
      1         11           0        0.202980   -3.150939    0.955188
      2         11           0        3.392935   -1.416609   -0.460862
      3         11           0       -0.153473   -0.219405   -0.279597
      4         11           0       -0.064854    3.507937    0.606715
      5         11           0       -3.083063   -1.831774   -0.426627
      6         11           0       -3.184065    1.481221   -0.196218
      7         11           0        2.889539    1.629569   -0.198599
 ---------------------------------------------------------------------

 SCF Done:  E(UB3LYP) =  -1136.12859257     A.U. after   22 cycles

 The electronic state is 2-A.
 Alpha  occ. eigenvalues --  -38.44245 -38.44082 -38.44003 -38.43886 -38.43725
 Alpha  occ. eigenvalues --  -38.43545 -38.43365  -2.20084  -2.19913  -2.19860
 Alpha  occ. eigenvalues --   -2.19734  -2.19654  -2.19386  -2.19174  -1.13773
 Alpha  occ. eigenvalues --   -1.13759  -1.13715  -1.13590  -1.13586  -1.13578
 Alpha  occ. eigenvalues --   -1.13532  -1.13528  -1.13508  -1.13394  -1.13391
 Alpha  occ. eigenvalues --   -1.13358  -1.13348  -1.13307  -1.13286  -1.13044
 Alpha  occ. eigenvalues --   -1.13020  -1.13001  -1.12836  -1.12819  -1.12804
 Alpha  occ. eigenvalues --   -0.17306  -0.14015  -0.13073  -0.09911
 Alpha virt. eigenvalues --   -0.06337  -0.05644  -0.04293  -0.03252  -0.02949
 Alpha virt. eigenvalues --   -0.02171  -0.01859  -0.01506  -0.01181  -0.00418
 Alpha virt. eigenvalues --   -0.00024   0.00271   0.00440   0.00698   0.00746

  Beta  occ. eigenvalues --  -38.44224 -38.44053 -38.43980 -38.43843 -38.43732
  Beta  occ. eigenvalues --  -38.43486 -38.43320  -2.20051  -2.19864  -2.19825
  Beta  occ. eigenvalues --   -2.19666  -2.19659  -2.19276  -2.19089  -1.13755
  Beta  occ. eigenvalues --   -1.13740  -1.13655  -1.13556  -1.13553  -1.13550
  Beta  occ. eigenvalues --   -1.13514  -1.13466  -1.13455  -1.13387  -1.13345
  Beta  occ. eigenvalues --   -1.13322  -1.13314  -1.13299  -1.13269  -1.12970
  Beta  occ. eigenvalues --   -1.12950  -1.12930  -1.12777  -1.12763  -1.12748
  Beta  occ. eigenvalues --   -0.17000  -0.13198  -0.12516
  Beta virt. eigenvalues --   -0.06665  -0.06431  -0.05331  -0.04103  -0.02748
  Beta virt. eigenvalues --   -0.02318  -0.02026  -0.01735  -0.01223  -0.00976
  Beta virt. eigenvalues --   -0.00222   0.00267   0.00434   0.00515   0.00762

 Mulliken charges and spin densities:
               1          2
     1  Na   0.828649   0.238933
     2  Na   0.821501   0.260580
     3  Na  -5.064030  -0.287528
     4  Na   0.303372   0.203696
     5  Na   1.133456   0.122165
     6  Na   0.891712   0.213274
     7  Na   1.085340   0.248879
 Sum of Mulliken charges =  -0.00000   1.00000

 Dipole moment (field-independent basis, Debye):
    X=             -0.3956    Y=             -0.4599    Z=              0.2089  Tot=              0.6416
 Quadrupole moment (field-independent basis, Debye-Ang):
   XX=            -64.2712   YY=            -59.8561   ZZ=            -72.0382
   XY=             -0.4222   XZ=              0.3480   YZ=              0.6941

 Normal termination of Gaussian 16 at Tue Dec  5 19:56:36 2023.
