 Gaussian 16, Revision B.01,
 Gaussian 16:  ES64L-G16RevB.01 20-Dec-2017

 -------------------------
 #P B3LYP/6-311+g(d) force
 -------------------------

 -----
 DPGEN
 -----
 Symbolic Z-matrix:
 Charge =  0 Multiplicity = 2

                         Standard orientation:
 ---------------------------------------------------------------------
 Center     Atomic      Atomic             Coordinates (Angstroms)
 Number     Number       Type             X           Y           Z
 ---------------------------------------------------------------------
      1         11           0        4.264232    0.428582    0.406300
      2         11           0        2.132993    3.483225    0.490605
      3         11           0       -1.696737    4.074302   -0.577592
      4         11           0       -0.567199   -3.781804   -0.202521
      5         11           0       -3.642421   -1.963867    0.937658
      6         11           0       -3.708776    0.639987   -0.423661
      7         11           0        3.217910   -2.880425   -0.630789
 ---------------------------------------------------------------------

 SCF Done:  E(UB3LYP) =  -1136.09924404     A.U. after   25 cycles

 The electronic state is 2-A.
 Alpha  occ. eigenvalues --  -38.45770 -38.45471 -38.45360 -38.44840 -38.44425
 Alpha  occ. eigenvalues --  -38.44130 -38.44054  -2.21506  -2.21273  -2.21070
 Alpha  occ. eigenvalues --   -2.20574  -2.20192  -2.19974  -2.19820  -1.15187
 Alpha  occ. eigenvalues --   -1.15171  -1.15112  -1.14984  -1.14929  -1.14912
 Alpha  occ. eigenvalues --   -1.14767  -1.14753  -1.14698  -1.14263  -1.14248
 Alpha  occ. eigenvalues --   -1.14210  -1.13866  -1.13853  -1.13808  -1.13663
 Alpha  occ. eigenvalues --   -1.13608  -1.13592  -1.13477  -1.13463  -1.13442
 Alpha  occ. eigenvalues --   -0.15344  -0.13825  -0.13221  -0.10928
 Alpha virt. eigenvalues --   -0.08055  -0.04939  -0.04897  -0.03562  -0.03451
 Alpha virt. eigenvalues --   -0.02400  -0.02089  -0.01938  -0.01713  -0.01101
 Alpha virt. eigenvalues --   -0.00952  -0.00329  -0.00046   0.00247   0.00430

  Beta  occ. eigenvalues --  -38.45724 -38.45445 -38.45368 -38.44846 -38.44384
  Beta  occ. eigenvalues --  -38.44096 -38.43978  -2.21422  -2.21232  -2.21090
  Beta  occ. eigenvalues --   -2.20588  -2.20115  -2.19915  -2.19679  -1.15132
  Beta  occ. eigenvalues --   -1.15116  -1.15040  -1.14939  -1.14906  -1.14864
  Beta  occ. eigenvalues --   -1.14785  -1.14770  -1.14684  -1.14274  -1.14261
  Beta  occ. eigenvalues --   -1.14204  -1.13813  -1.13802  -1.13757  -1.13614
  Beta  occ. eigenvalues --   -1.13568  -1.13553  -1.13382  -1.13367  -1.13349
  Beta  occ. eigenvalues --   -0.14777  -0.13397  -0.12388
  Beta virt. eigenvalues --   -0.08250  -0.07719  -0.04448  -0.04367  -0.03403
  Beta virt. eigenvalues --   -0.03155  -0.02266  -0.01916  -0.01751  -0.01515
  Beta virt. eigenvalues --   -0.00771  -0.00689  -0.00053   0.00182   0.00222

 Mulliken charges and spin densities:
               1          2
     1  Na  -0.060574   0.157903
     2  Na  -0.050444  -0.034759
     3  Na   0.171663   0.401589
     4  Na  -0.009103   0.249433
     5  Na   0.102506   0.094690
     6  Na  -0.321080   0.181272
     7  Na   0.167031  -0.050127
 Sum of Mulliken charges =  -0.00000   1.00000

 Dipole moment (field-independent basis, Debye):
    X=             -0.2710    Y=             -0.9015    Z=              0.0815  Tot=              0.9448
 Quadrupole moment (field-independent basis, Debye-Ang):
   XX=            -63.2523   YY=            -64.8892   ZZ=            -72.7330
   XY=              1.4220   XZ=              0.0095   YZ=             -0.0723

 Normal termination of Gaussian 16 at Sun Dec  3 22:03:57 2023.
