 Gaussian 16, Revision B.01,
 Gaussian 16:  ES64L-G16RevB.01 20-Dec-2017

 -------------------------
 #P B3LYP/6-311+g(d) force
 -------------------------

 -----
 DPGEN
 -----
 Symbolic Z-matrix:
 Charge =  0 Multiplicity = 2

                         Standard orientation:
 ---------------------------------------------------------------------
 Center     Atomic      Atomic             Coordinates (Angstroms)
 Number     Number       Type             X           Y           Z
 ---------------------------------------------------------------------
      1         11           0        1.935096   -2.299198   -0.062992
      2         11           0        3.590452    0.856447   -0.484008
      3         11           0        0.232387    0.241311   -1.556779
      4         11           0       -1.815840   -1.867700    0.673197
      5         11           0        0.716847    0.452075    1.737375
      6         11           0       -0.985248    2.684392    0.398520
      7         11           0       -3.673695   -0.067327   -0.705313
 ---------------------------------------------------------------------

 SCF Done:  E(UB3LYP) =  -1136.12430166     A.U. after   22 cycles

 The electronic state is 2-A.
 Alpha  occ. eigenvalues --  -38.45135 -38.44526 -38.44396 -38.43557 -38.43267
 Alpha  occ. eigenvalues --  -38.43164 -38.42891  -2.20935  -2.20363  -2.20307
 Alpha  occ. eigenvalues --   -2.19400  -2.19148  -2.19133  -2.18746  -1.14608
 Alpha  occ. eigenvalues --   -1.14572  -1.14565  -1.14092  -1.14028  -1.14004
 Alpha  occ. eigenvalues --   -1.13967  -1.13960  -1.13916  -1.13092  -1.13074
 Alpha  occ. eigenvalues --   -1.13020  -1.12842  -1.12825  -1.12804  -1.12791
 Alpha  occ. eigenvalues --   -1.12768  -1.12746  -1.12421  -1.12410  -1.12359
 Alpha  occ. eigenvalues --   -0.18490  -0.13760  -0.11625  -0.10680
 Alpha virt. eigenvalues --   -0.06899  -0.05115  -0.04094  -0.03283  -0.02799
 Alpha virt. eigenvalues --   -0.02365  -0.02246  -0.01168  -0.00690  -0.00200
 Alpha virt. eigenvalues --    0.00044   0.00154   0.00474   0.00727   0.00774

  Beta  occ. eigenvalues --  -38.45103 -38.44499 -38.44369 -38.43552 -38.43257
  Beta  occ. eigenvalues --  -38.43084 -38.42884  -2.20878  -2.20311  -2.20258
  Beta  occ. eigenvalues --   -2.19394  -2.19133  -2.18988  -2.18735  -1.14558
  Beta  occ. eigenvalues --   -1.14534  -1.14526  -1.14062  -1.13982  -1.13962
  Beta  occ. eigenvalues --   -1.13933  -1.13931  -1.13875  -1.13089  -1.13064
  Beta  occ. eigenvalues --   -1.12997  -1.12814  -1.12786  -1.12769  -1.12738
  Beta  occ. eigenvalues --   -1.12667  -1.12638  -1.12411  -1.12383  -1.12352
  Beta  occ. eigenvalues --   -0.17846  -0.13394  -0.11365
  Beta virt. eigenvalues --   -0.07095  -0.06586  -0.05038  -0.03779  -0.02945
  Beta virt. eigenvalues --   -0.02432  -0.01846  -0.01409  -0.01083  -0.00574
  Beta virt. eigenvalues --   -0.00040   0.00075   0.00235   0.00593   0.00799

 Mulliken charges and spin densities:
               1          2
     1  Na   0.073276   0.048089
     2  Na   0.209177   0.107518
     3  Na  -0.404004   0.362680
     4  Na  -0.129034  -0.103234
     5  Na   0.085835   0.442833
     6  Na  -0.005970  -0.086045
     7  Na   0.170720   0.228160
 Sum of Mulliken charges =  -0.00000   1.00000

 Dipole moment (field-independent basis, Debye):
    X=              0.7860    Y=              0.3177    Z=             -0.1466  Tot=              0.8604
 Quadrupole moment (field-independent basis, Debye-Ang):
   XX=            -51.4917   YY=            -70.7615   ZZ=            -71.7132
   XY=             -1.0418   XZ=              1.0002   YZ=             -0.9409

 Normal termination of Gaussian 16 at Tue Dec  5 15:02:29 2023.
