 Gaussian 16, Revision B.01,
 Gaussian 16:  ES64L-G16RevB.01 20-Dec-2017

 -------------------------
 #P B3LYP/6-311+g(d) force
 -------------------------

 -----
 DPGEN
 -----
 Symbolic Z-matrix:
 Charge =  0 Multiplicity = 2

                         Standard orientation:
 ---------------------------------------------------------------------
 Center     Atomic      Atomic             Coordinates (Angstroms)
 Number     Number       Type             X           Y           Z
 ---------------------------------------------------------------------
      1         11           0        2.296057   -2.346087    0.003618
      2         11           0       -0.233839    2.901889   -0.068731
      3         11           0       -0.086497   -0.035094    2.224235
      4         11           0        0.363712   -0.477597   -1.515640
      5         11           0       -3.004500    0.890275   -0.377438
      6         11           0       -2.247426   -2.253777   -0.069789
      7         11           0        2.912493    1.320392   -0.196256
 ---------------------------------------------------------------------

 SCF Done:  E(UB3LYP) =  -1136.13425167     A.U. after   19 cycles

 The electronic state is 2-A.
 Alpha  occ. eigenvalues --  -38.44320 -38.44095 -38.43970 -38.43957 -38.43730
 Alpha  occ. eigenvalues --  -38.43318 -38.43058  -2.20135  -2.19913  -2.19807
 Alpha  occ. eigenvalues --   -2.19779  -2.19573  -2.19270  -2.18892  -1.13822
 Alpha  occ. eigenvalues --   -1.13795  -1.13764  -1.13629  -1.13563  -1.13538
 Alpha  occ. eigenvalues --   -1.13520  -1.13475  -1.13462  -1.13444  -1.13427
 Alpha  occ. eigenvalues --   -1.13388  -1.13228  -1.13194  -1.13192  -1.12955
 Alpha  occ. eigenvalues --   -1.12914  -1.12894  -1.12565  -1.12557  -1.12538
 Alpha  occ. eigenvalues --   -0.18241  -0.13219  -0.12191  -0.10616
 Alpha virt. eigenvalues --   -0.05906  -0.05570  -0.04542  -0.03228  -0.02749
 Alpha virt. eigenvalues --   -0.02617  -0.01663  -0.01335  -0.00671  -0.00389
 Alpha virt. eigenvalues --   -0.00033   0.00325   0.00732   0.00771   0.00881

  Beta  occ. eigenvalues --  -38.44316 -38.44093 -38.43962 -38.43954 -38.43618
  Beta  occ. eigenvalues --  -38.43274 -38.43055  -2.20129  -2.19913  -2.19795
  Beta  occ. eigenvalues --   -2.19777  -2.19366  -2.19190  -2.18889  -1.13810
  Beta  occ. eigenvalues --   -1.13783  -1.13764  -1.13624  -1.13552  -1.13537
  Beta  occ. eigenvalues --   -1.13518  -1.13462  -1.13444  -1.13434  -1.13414
  Beta  occ. eigenvalues --   -1.13386  -1.13089  -1.13051  -1.13045  -1.12895
  Beta  occ. eigenvalues --   -1.12858  -1.12834  -1.12564  -1.12539  -1.12533
  Beta  occ. eigenvalues --   -0.17548  -0.13008  -0.12005
  Beta virt. eigenvalues --   -0.06668  -0.05909  -0.05483  -0.04506  -0.02488
  Beta virt. eigenvalues --   -0.02011  -0.01571  -0.01540  -0.01252  -0.00721
  Beta virt. eigenvalues --   -0.00415   0.00140   0.00377   0.00772   0.00827

 Mulliken charges and spin densities:
               1          2
     1  Na   0.204618  -0.034923
     2  Na   0.044231   0.017561
     3  Na  -0.552878   0.776385
     4  Na  -0.144470   0.197639
     5  Na   0.057110   0.038160
     6  Na   0.247931   0.011286
     7  Na   0.143458  -0.006109
 Sum of Mulliken charges =  -0.00000   1.00000

 Dipole moment (field-independent basis, Debye):
    X=              0.3051    Y=             -0.3234    Z=              0.0940  Tot=              0.4544
 Quadrupole moment (field-independent basis, Debye-Ang):
   XX=            -55.3225   YY=            -63.0425   ZZ=            -75.4667
   XY=              0.1218   XZ=              0.9756   YZ=             -1.1072

 Normal termination of Gaussian 16 at Thu Dec  7 17:06:21 2023.
