 Gaussian 16, Revision B.01,
 Gaussian 16:  ES64L-G16RevB.01 20-Dec-2017

 -------------------------
 #P B3LYP/6-311+g(d) force
 -------------------------

 -----
 DPGEN
 -----
 Symbolic Z-matrix:
 Charge =  0 Multiplicity = 2

                         Standard orientation:
 ---------------------------------------------------------------------
 Center     Atomic      Atomic             Coordinates (Angstroms)
 Number     Number       Type             X           Y           Z
 ---------------------------------------------------------------------
      1         11           0        1.488521   -3.303474   -0.265591
      2         11           0       -2.254857   -3.218646   -0.514741
      3         11           0        4.082289   -0.882495    0.962797
      4         11           0        3.467941    1.457766   -0.672637
      5         11           0        0.089133    4.086796   -0.060361
      6         11           0       -4.169283   -0.594796    0.593093
      7         11           0       -2.703744    2.454849   -0.042560
 ---------------------------------------------------------------------

 SCF Done:  E(UB3LYP) =  -1136.10686673     A.U. after   21 cycles

 The electronic state is 2-A.
 Alpha  occ. eigenvalues --  -38.45433 -38.44806 -38.44804 -38.44674 -38.44421
 Alpha  occ. eigenvalues --  -38.43876 -38.43805  -2.21242  -2.20576  -2.20550
 Alpha  occ. eigenvalues --   -2.20508  -2.20209  -2.19693  -2.19603  -1.14970
 Alpha  occ. eigenvalues --   -1.14884  -1.14869  -1.14244  -1.14240  -1.14234
 Alpha  occ. eigenvalues --   -1.14224  -1.14202  -1.14183  -1.14175  -1.14149
 Alpha  occ. eigenvalues --   -1.14128  -1.13889  -1.13884  -1.13870  -1.13341
 Alpha  occ. eigenvalues --   -1.13339  -1.13322  -1.13252  -1.13248  -1.13239
 Alpha  occ. eigenvalues --   -0.15553  -0.14207  -0.13240  -0.10892
 Alpha virt. eigenvalues --   -0.07558  -0.04961  -0.04343  -0.03635  -0.03414
 Alpha virt. eigenvalues --   -0.02571  -0.02158  -0.01845  -0.01519  -0.00815
 Alpha virt. eigenvalues --   -0.00488  -0.00100   0.00081   0.00393   0.00539

  Beta  occ. eigenvalues --  -38.45400 -38.44816 -38.44732 -38.44658 -38.44417
  Beta  occ. eigenvalues --  -38.43815 -38.43755  -2.21186  -2.20577  -2.20484
  Beta  occ. eigenvalues --   -2.20439  -2.20208  -2.19578  -2.19511  -1.14922
  Beta  occ. eigenvalues --   -1.14848  -1.14825  -1.14264  -1.14251  -1.14179
  Beta  occ. eigenvalues --   -1.14154  -1.14150  -1.14136  -1.14135  -1.14114
  Beta  occ. eigenvalues --   -1.14077  -1.13895  -1.13887  -1.13826  -1.13262
  Beta  occ. eigenvalues --   -1.13260  -1.13252  -1.13190  -1.13187  -1.13175
  Beta  occ. eigenvalues --   -0.15024  -0.13610  -0.12427
  Beta virt. eigenvalues --   -0.07760  -0.07601  -0.04636  -0.03846  -0.03393
  Beta virt. eigenvalues --   -0.03003  -0.02332  -0.01954  -0.01761  -0.01332
  Beta virt. eigenvalues --   -0.00426  -0.00310   0.00133   0.00257   0.00381

 Mulliken charges and spin densities:
               1          2
     1  Na  -0.037275   0.353645
     2  Na   0.146963  -0.069500
     3  Na   0.127764   0.057409
     4  Na  -0.185070   0.140877
     5  Na   0.113252   0.224616
     6  Na   0.106727   0.264912
     7  Na  -0.272361   0.028041
 Sum of Mulliken charges =  -0.00000   1.00000

 Dipole moment (field-independent basis, Debye):
    X=              1.2630    Y=             -0.3279    Z=              0.0123  Tot=              1.3049
 Quadrupole moment (field-independent basis, Debye-Ang):
   XX=            -62.1737   YY=            -68.5342   ZZ=            -70.5551
   XY=              1.8651   XZ=              0.6345   YZ=             -1.6087

 Normal termination of Gaussian 16 at Sun Dec  3 22:18:28 2023.
