 Gaussian 16, Revision B.01,
 Gaussian 16:  ES64L-G16RevB.01 20-Dec-2017

 -------------------------
 #P B3LYP/6-311+g(d) force
 -------------------------

 -----
 DPGEN
 -----
 Symbolic Z-matrix:
 Charge =  0 Multiplicity = 2

                         Standard orientation:
 ---------------------------------------------------------------------
 Center     Atomic      Atomic             Coordinates (Angstroms)
 Number     Number       Type             X           Y           Z
 ---------------------------------------------------------------------
      1         11           0       -4.186550   -1.249878   -0.122404
      2         11           0       -0.801563   -2.651167   -0.646201
      3         11           0        3.139669   -2.102879    0.135918
      4         11           0        3.896577    0.643811    0.044836
      5         11           0        1.034431    3.000385   -0.861006
      6         11           0        0.123101    0.359513    1.172607
      7         11           0       -3.205665    2.000216    0.276249
 ---------------------------------------------------------------------

 SCF Done:  E(UB3LYP) =  -1136.11568127     A.U. after   21 cycles

 The electronic state is 2-A.
 Alpha  occ. eigenvalues --  -38.44694 -38.44630 -38.44479 -38.44147 -38.44130
 Alpha  occ. eigenvalues --  -38.44024 -38.43681  -2.20470  -2.20450  -2.20265
 Alpha  occ. eigenvalues --   -2.20026  -2.19905  -2.19873  -2.19469  -1.14156
 Alpha  occ. eigenvalues --   -1.14154  -1.14134  -1.14097  -1.14087  -1.14069
 Alpha  occ. eigenvalues --   -1.13939  -1.13908  -1.13898  -1.13888  -1.13672
 Alpha  occ. eigenvalues --   -1.13622  -1.13578  -1.13554  -1.13541  -1.13522
 Alpha  occ. eigenvalues --   -1.13480  -1.13454  -1.13139  -1.13128  -1.13086
 Alpha  occ. eigenvalues --   -0.16793  -0.14137  -0.12143  -0.10427
 Alpha virt. eigenvalues --   -0.06936  -0.05688  -0.03783  -0.03679  -0.03131
 Alpha virt. eigenvalues --   -0.02792  -0.02217  -0.01303  -0.00690  -0.00577
 Alpha virt. eigenvalues --   -0.00210  -0.00001   0.00342   0.00612   0.00634

  Beta  occ. eigenvalues --  -38.44661 -38.44601 -38.44447 -38.44116 -38.44093
  Beta  occ. eigenvalues --  -38.43999 -38.43637  -2.20413  -2.20396  -2.20208
  Beta  occ. eigenvalues --   -2.19930  -2.19880  -2.19833  -2.19389  -1.14120
  Beta  occ. eigenvalues --   -1.14113  -1.14100  -1.14067  -1.14030  -1.14022
  Beta  occ. eigenvalues --   -1.13903  -1.13871  -1.13840  -1.13822  -1.13611
  Beta  occ. eigenvalues --   -1.13561  -1.13552  -1.13531  -1.13522  -1.13500
  Beta  occ. eigenvalues --   -1.13453  -1.13380  -1.13084  -1.13068  -1.13037
  Beta  occ. eigenvalues --   -0.16287  -0.13322  -0.11799
  Beta virt. eigenvalues --   -0.07012  -0.06950  -0.05550  -0.03594  -0.03096
  Beta virt. eigenvalues --   -0.02646  -0.02481  -0.01986  -0.01144  -0.00595
  Beta virt. eigenvalues --   -0.00514   0.00044   0.00289   0.00431   0.00656

 Mulliken charges and spin densities:
               1          2
     1  Na   0.081916   0.221528
     2  Na  -0.210791   0.163688
     3  Na   0.129762   0.100089
     4  Na   0.096670   0.324270
     5  Na  -0.135439   0.073863
     6  Na   0.020639  -0.121771
     7  Na   0.017242   0.238333
 Sum of Mulliken charges =  -0.00000   1.00000

 Dipole moment (field-independent basis, Debye):
    X=             -0.3312    Y=              0.4455    Z=             -0.3216  Tot=              0.6415
 Quadrupole moment (field-independent basis, Debye-Ang):
   XX=            -69.9936   YY=            -63.7715   ZZ=            -68.3660
   XY=              4.0072   XZ=             -0.5422   YZ=             -0.8335

 Normal termination of Gaussian 16 at Sun Dec  3 16:36:26 2023.
