 Gaussian 16, Revision B.01,
 Gaussian 16:  ES64L-G16RevB.01 20-Dec-2017

 -------------------------
 #P B3LYP/6-311+g(d) force
 -------------------------

 -----
 DPGEN
 -----
 Symbolic Z-matrix:
 Charge =  0 Multiplicity = 2

                         Standard orientation:
 ---------------------------------------------------------------------
 Center     Atomic      Atomic             Coordinates (Angstroms)
 Number     Number       Type             X           Y           Z
 ---------------------------------------------------------------------
      1         11           0       -0.582897   -2.775087    0.337506
      2         11           0        2.463730   -2.996411   -0.394347
      3         11           0        3.241053    0.839605   -0.907069
      4         11           0        0.758277    0.556774    1.360930
      5         11           0       -2.713169    0.500935    1.498041
      6         11           0        1.211952    3.746327   -0.207074
      7         11           0       -4.378946    0.127858   -1.687985
 ---------------------------------------------------------------------

 SCF Done:  E(UB3LYP) =  -1136.11931112     A.U. after   19 cycles

 The electronic state is 2-A.
 Alpha  occ. eigenvalues --  -38.45137 -38.44584 -38.44514 -38.43966 -38.43956
 Alpha  occ. eigenvalues --  -38.43689 -38.43553  -2.20895  -2.20383  -2.20315
 Alpha  occ. eigenvalues --   -2.19826  -2.19757  -2.19495  -2.19336  -1.14571
 Alpha  occ. eigenvalues --   -1.14556  -1.14521  -1.14066  -1.14055  -1.14014
 Alpha  occ. eigenvalues --   -1.14007  -1.13990  -1.13906  -1.13520  -1.13493
 Alpha  occ. eigenvalues --   -1.13434  -1.13396  -1.13395  -1.13362  -1.13169
 Alpha  occ. eigenvalues --   -1.13155  -1.13132  -1.13018  -1.13000  -1.12991
 Alpha  occ. eigenvalues --   -0.16669  -0.13278  -0.12649  -0.10525
 Alpha virt. eigenvalues --   -0.06694  -0.05248  -0.04925  -0.03840  -0.02550
 Alpha virt. eigenvalues --   -0.02196  -0.01983  -0.01493  -0.01261  -0.00853
 Alpha virt. eigenvalues --   -0.00244   0.00167   0.00241   0.00274   0.00568

  Beta  occ. eigenvalues --  -38.45138 -38.44580 -38.44485 -38.43913 -38.43853
  Beta  occ. eigenvalues --  -38.43684 -38.43555  -2.20898  -2.20377  -2.20261
  Beta  occ. eigenvalues --   -2.19750  -2.19545  -2.19487  -2.19347  -1.14573
  Beta  occ. eigenvalues --   -1.14553  -1.14524  -1.14063  -1.14046  -1.14010
  Beta  occ. eigenvalues --   -1.13972  -1.13954  -1.13865  -1.13474  -1.13429
  Beta  occ. eigenvalues --   -1.13373  -1.13251  -1.13250  -1.13224  -1.13164
  Beta  occ. eigenvalues --   -1.13147  -1.13124  -1.13030  -1.13011  -1.12954
  Beta  occ. eigenvalues --   -0.16237  -0.12886  -0.12255
  Beta virt. eigenvalues --   -0.06988  -0.06513  -0.05067  -0.04346  -0.03677
  Beta virt. eigenvalues --   -0.02387  -0.01857  -0.01518  -0.01363  -0.01036
  Beta virt. eigenvalues --   -0.00747   0.00090   0.00279   0.00481   0.00540

 Mulliken charges and spin densities:
               1          2
     1  Na  -0.064600   0.038539
     2  Na   0.113524   0.037650
     3  Na   0.168198   0.281164
     4  Na  -0.429256   0.001214
     5  Na   0.050398   0.003901
     6  Na   0.278286   0.010196
     7  Na  -0.116551   0.627336
 Sum of Mulliken charges =  -0.00000   1.00000

 Dipole moment (field-independent basis, Debye):
    X=              1.3262    Y=              0.8566    Z=             -0.2120  Tot=              1.5929
 Quadrupole moment (field-independent basis, Debye-Ang):
   XX=            -72.3545   YY=            -57.0408   ZZ=            -70.5374
   XY=              0.9455   XZ=             -2.6996   YZ=             -0.5753

 Normal termination of Gaussian 16 at Tue Nov 28 19:40:25 2023.
