 Gaussian 16, Revision B.01,
 Gaussian 16:  ES64L-G16RevB.01 20-Dec-2017

 -------------------------
 #P B3LYP/6-311+g(d) force
 -------------------------

 -----
 DPGEN
 -----
 Symbolic Z-matrix:
 Charge =  0 Multiplicity = 2

                         Standard orientation:
 ---------------------------------------------------------------------
 Center     Atomic      Atomic             Coordinates (Angstroms)
 Number     Number       Type             X           Y           Z
 ---------------------------------------------------------------------
      1         11           0       -2.938356   -2.362175    0.056515
      2         11           0        2.957444    2.076882   -0.151305
      3         11           0       -0.858311    3.425274    0.301187
      4         11           0        0.848245   -2.996988    0.056876
      5         11           0       -0.392660   -0.025813    1.370934
      6         11           0       -3.471284    0.977239   -1.045815
      7         11           0        3.854921   -1.094420   -0.588392
 ---------------------------------------------------------------------

 SCF Done:  E(UB3LYP) =  -1136.12242821     A.U. after   20 cycles

 The electronic state is 2-A.
 Alpha  occ. eigenvalues --  -38.44765 -38.44533 -38.44363 -38.44257 -38.44090
 Alpha  occ. eigenvalues --  -38.43893 -38.43806  -2.20530  -2.20315  -2.20184
 Alpha  occ. eigenvalues --   -2.20051  -2.19886  -2.19669  -2.19612  -1.14216
 Alpha  occ. eigenvalues --   -1.14201  -1.14157  -1.14005  -1.13983  -1.13944
 Alpha  occ. eigenvalues --   -1.13883  -1.13840  -1.13794  -1.13721  -1.13691
 Alpha  occ. eigenvalues --   -1.13670  -1.13562  -1.13556  -1.13504  -1.13343
 Alpha  occ. eigenvalues --   -1.13319  -1.13309  -1.13275  -1.13265  -1.13245
 Alpha  occ. eigenvalues --   -0.16658  -0.13665  -0.12714  -0.10257
 Alpha virt. eigenvalues --   -0.06913  -0.05726  -0.04330  -0.03558  -0.03209
 Alpha virt. eigenvalues --   -0.02005  -0.01805  -0.01576  -0.01405  -0.01173
 Alpha virt. eigenvalues --    0.00096   0.00207   0.00341   0.00539   0.00640

  Beta  occ. eigenvalues --  -38.44747 -38.44521 -38.44321 -38.44192 -38.44072
  Beta  occ. eigenvalues --  -38.43876 -38.43770  -2.20501  -2.20298  -2.20107
  Beta  occ. eigenvalues --   -2.19932  -2.19854  -2.19639  -2.19547  -1.14200
  Beta  occ. eigenvalues --   -1.14186  -1.14107  -1.13998  -1.13974  -1.13898
  Beta  occ. eigenvalues --   -1.13831  -1.13794  -1.13731  -1.13641  -1.13615
  Beta  occ. eigenvalues --   -1.13576  -1.13539  -1.13531  -1.13484  -1.13321
  Beta  occ. eigenvalues --   -1.13300  -1.13285  -1.13232  -1.13219  -1.13193
  Beta  occ. eigenvalues --   -0.16157  -0.12881  -0.12447
  Beta virt. eigenvalues --   -0.06950  -0.06893  -0.05542  -0.04018  -0.03071
  Beta virt. eigenvalues --   -0.02547  -0.01953  -0.01585  -0.01397  -0.01355
  Beta virt. eigenvalues --   -0.00785   0.00287   0.00403   0.00505   0.00573

 Mulliken charges and spin densities:
               1          2
     1  Na   0.275844   0.119859
     2  Na  -0.043847   0.104117
     3  Na   0.253414   0.054819
     4  Na  -0.010402  -0.050191
     5  Na  -0.366022   0.224718
     6  Na  -0.130880   0.301541
     7  Na   0.021893   0.245136
 Sum of Mulliken charges =  -0.00000   1.00000

 Dipole moment (field-independent basis, Debye):
    X=             -0.1816    Y=             -0.1514    Z=             -0.0160  Tot=              0.2370
 Quadrupole moment (field-independent basis, Debye-Ang):
   XX=            -70.5228   YY=            -56.7240   ZZ=            -72.2304
   XY=             -0.0633   XZ=             -0.4913   YZ=             -0.2104

 Normal termination of Gaussian 16 at Sun Dec  3 13:26:45 2023.
