 Gaussian 16, Revision B.01,
 Gaussian 16:  ES64L-G16RevB.01 20-Dec-2017

 -------------------------
 #P B3LYP/6-311+g(d) force
 -------------------------

 -----
 DPGEN
 -----
 Symbolic Z-matrix:
 Charge =  0 Multiplicity = 2

                         Standard orientation:
 ---------------------------------------------------------------------
 Center     Atomic      Atomic             Coordinates (Angstroms)
 Number     Number       Type             X           Y           Z
 ---------------------------------------------------------------------
      1         11           0       -0.111426    0.200300    2.234362
      2         11           0        1.520161   -2.394224   -0.057957
      3         11           0       -0.391071   -0.352505   -1.433232
      4         11           0       -2.432975    1.918924   -0.486737
      5         11           0        3.154442    0.106718   -0.379787
      6         11           0        0.819325    2.720290    0.031369
      7         11           0       -2.558456   -2.199502    0.091982
 ---------------------------------------------------------------------

 SCF Done:  E(UB3LYP) =  -1136.13276910     A.U. after   19 cycles

 The electronic state is 2-A.
 Alpha  occ. eigenvalues --  -38.44103 -38.44030 -38.43817 -38.43779 -38.43721
 Alpha  occ. eigenvalues --  -38.43332 -38.43085  -2.19895  -2.19869  -2.19675
 Alpha  occ. eigenvalues --   -2.19643  -2.19612  -2.19190  -2.19091  -1.13583
 Alpha  occ. eigenvalues --   -1.13572  -1.13550  -1.13534  -1.13517  -1.13494
 Alpha  occ. eigenvalues --   -1.13447  -1.13334  -1.13322  -1.13301  -1.13292
 Alpha  occ. eigenvalues --   -1.13285  -1.13279  -1.13245  -1.13171  -1.12866
 Alpha  occ. eigenvalues --   -1.12858  -1.12826  -1.12772  -1.12744  -1.12706
 Alpha  occ. eigenvalues --   -0.18541  -0.13038  -0.12465  -0.10785
 Alpha virt. eigenvalues --   -0.05702  -0.05343  -0.04582  -0.03094  -0.02955
 Alpha virt. eigenvalues --   -0.02641  -0.01555  -0.01327  -0.00391  -0.00260
 Alpha virt. eigenvalues --   -0.00027   0.00324   0.00786   0.00824   0.00906

  Beta  occ. eigenvalues --  -38.44103 -38.44016 -38.43774 -38.43715 -38.43707
  Beta  occ. eigenvalues --  -38.43327 -38.43041  -2.19898  -2.19846  -2.19635
  Beta  occ. eigenvalues --   -2.19605  -2.19471  -2.19184  -2.19013  -1.13579
  Beta  occ. eigenvalues --   -1.13551  -1.13545  -1.13534  -1.13491  -1.13482
  Beta  occ. eigenvalues --   -1.13443  -1.13316  -1.13273  -1.13266  -1.13225
  Beta  occ. eigenvalues --   -1.13195  -1.13167  -1.13157  -1.13145  -1.12864
  Beta  occ. eigenvalues --   -1.12831  -1.12820  -1.12710  -1.12686  -1.12650
  Beta  occ. eigenvalues --   -0.17838  -0.12781  -0.12281
  Beta virt. eigenvalues --   -0.06832  -0.05682  -0.05260  -0.04543  -0.02371
  Beta virt. eigenvalues --   -0.02194  -0.01580  -0.01454  -0.01236  -0.00424
  Beta virt. eigenvalues --   -0.00287   0.00135   0.00368   0.00826   0.00862

 Mulliken charges and spin densities:
               1          2
     1  Na  -0.615991   0.713526
     2  Na   0.372000   0.106305
     3  Na  -0.410941   0.064859
     4  Na   0.219685   0.000187
     5  Na  -0.002598   0.014732
     6  Na   0.295022   0.096039
     7  Na   0.142824   0.004353
 Sum of Mulliken charges =  -0.00000   1.00000

 Dipole moment (field-independent basis, Debye):
    X=             -0.3850    Y=             -0.0624    Z=              0.2136  Tot=              0.4446
 Quadrupole moment (field-independent basis, Debye-Ang):
   XX=            -56.8530   YY=            -62.4127   ZZ=            -74.5298
   XY=              0.9686   XZ=             -0.7413   YZ=             -1.4911

 Normal termination of Gaussian 16 at Fri Dec  8 03:42:59 2023.
