 Gaussian 16, Revision B.01,
 Gaussian 16:  ES64L-G16RevB.01 20-Dec-2017

 -------------------------
 #P B3LYP/6-311+g(d) force
 -------------------------

 -----
 DPGEN
 -----
 Symbolic Z-matrix:
 Charge =  0 Multiplicity = 2

                         Standard orientation:
 ---------------------------------------------------------------------
 Center     Atomic      Atomic             Coordinates (Angstroms)
 Number     Number       Type             X           Y           Z
 ---------------------------------------------------------------------
      1         11           0       -0.075489    2.870576   -0.238654
      2         11           0       -0.276244   -0.113366    1.936602
      3         11           0        2.842883    0.964626    0.127732
      4         11           0        1.944009   -2.018618    0.194066
      5         11           0       -1.760172   -2.299286   -0.280267
      6         11           0       -2.991481    0.867153    0.050246
      7         11           0        0.316495   -0.271085   -1.789724
 ---------------------------------------------------------------------

 SCF Done:  E(UB3LYP) =  -1136.13853485     A.U. after   19 cycles

 The electronic state is 2-A.
 Alpha  occ. eigenvalues --  -38.43996 -38.43787 -38.43540 -38.43430 -38.43404
 Alpha  occ. eigenvalues --  -38.43345 -38.43132  -2.19831  -2.19671  -2.19468
 Alpha  occ. eigenvalues --   -2.19359  -2.19327  -2.19279  -2.18972  -1.13510
 Alpha  occ. eigenvalues --   -1.13493  -1.13474  -1.13382  -1.13331  -1.13316
 Alpha  occ. eigenvalues --   -1.13157  -1.13114  -1.13101  -1.13094  -1.13020
 Alpha  occ. eigenvalues --   -1.13004  -1.12972  -1.12971  -1.12933  -1.12917
 Alpha  occ. eigenvalues --   -1.12910  -1.12895  -1.12649  -1.12638  -1.12607
 Alpha  occ. eigenvalues --   -0.19008  -0.13277  -0.12399  -0.10948
 Alpha virt. eigenvalues --   -0.05582  -0.05097  -0.04515  -0.03383  -0.02879
 Alpha virt. eigenvalues --   -0.02623  -0.01435  -0.00998  -0.00225  -0.00151
 Alpha virt. eigenvalues --   -0.00012   0.00377   0.00820   0.00920   0.00934

  Beta  occ. eigenvalues --  -38.43995 -38.43783 -38.43455 -38.43420 -38.43395
  Beta  occ. eigenvalues --  -38.43268 -38.43128  -2.19831  -2.19666  -2.19344
  Beta  occ. eigenvalues --   -2.19312  -2.19267  -2.19188  -2.18967  -1.13502
  Beta  occ. eigenvalues --   -1.13482  -1.13477  -1.13382  -1.13317  -1.13297
  Beta  occ. eigenvalues --   -1.13097  -1.13043  -1.13000  -1.12996  -1.12975
  Beta  occ. eigenvalues --   -1.12962  -1.12947  -1.12903  -1.12900  -1.12884
  Beta  occ. eigenvalues --   -1.12835  -1.12821  -1.12641  -1.12621  -1.12604
  Beta  occ. eigenvalues --   -0.18255  -0.13038  -0.12142
  Beta virt. eigenvalues --   -0.07010  -0.05533  -0.05108  -0.04473  -0.02558
  Beta virt. eigenvalues --   -0.02100  -0.01565  -0.01344  -0.00937  -0.00260
  Beta virt. eigenvalues --   -0.00214   0.00121   0.00398   0.00879   0.00916

 Mulliken charges and spin densities:
               1          2
     1  Na  -0.019209  -0.104973
     2  Na  -0.421166   0.668531
     3  Na   0.057288  -0.038253
     4  Na   0.447625  -0.008900
     5  Na   0.252057  -0.091396
     6  Na   0.024775  -0.080819
     7  Na  -0.341370   0.655811
 Sum of Mulliken charges =  -0.00000   1.00000

 Dipole moment (field-independent basis, Debye):
    X=             -0.1618    Y=             -0.0031    Z=              0.0998  Tot=              0.1901
 Quadrupole moment (field-independent basis, Debye-Ang):
   XX=            -56.7497   YY=            -64.3585   ZZ=            -73.1658
   XY=              0.1755   XZ=              1.1354   YZ=             -0.2583

 Normal termination of Gaussian 16 at Thu Dec  7 02:28:25 2023.
