 Gaussian 16, Revision B.01,
 Gaussian 16:  ES64L-G16RevB.01 20-Dec-2017

 -------------------------
 #P B3LYP/6-311+g(d) force
 -------------------------

 -----
 DPGEN
 -----
 Symbolic Z-matrix:
 Charge =  0 Multiplicity = 2

                         Standard orientation:
 ---------------------------------------------------------------------
 Center     Atomic      Atomic             Coordinates (Angstroms)
 Number     Number       Type             X           Y           Z
 ---------------------------------------------------------------------
      1         11           0        1.139850    2.440631    0.765568
      2         11           0        0.118212   -0.071185   -0.751863
      3         11           0        1.641028   -1.927438    0.925888
      4         11           0        3.362192    0.173678   -0.632914
      5         11           0       -1.555285   -2.854801   -0.705240
      6         11           0       -2.146581    2.655539   -0.610302
      7         11           0       -2.559415   -0.416424    1.008863
 ---------------------------------------------------------------------

 SCF Done:  E(UB3LYP) =  -1136.11944182     A.U. after   24 cycles

 The electronic state is 2-A.
 Alpha  occ. eigenvalues --  -38.44474 -38.44249 -38.44128 -38.44041 -38.43955
 Alpha  occ. eigenvalues --  -38.43738 -38.42538  -2.20315  -2.20127  -2.19946
 Alpha  occ. eigenvalues --   -2.19936  -2.19835  -2.19607  -2.18675  -1.14042
 Alpha  occ. eigenvalues --   -1.13969  -1.13928  -1.13845  -1.13785  -1.13759
 Alpha  occ. eigenvalues --   -1.13690  -1.13607  -1.13601  -1.13578  -1.13571
 Alpha  occ. eigenvalues --   -1.13546  -1.13534  -1.13495  -1.13463  -1.13273
 Alpha  occ. eigenvalues --   -1.13252  -1.13232  -1.12378  -1.12329  -1.12316
 Alpha  occ. eigenvalues --   -0.18501  -0.13635  -0.12907  -0.08996
 Alpha virt. eigenvalues --   -0.06157  -0.05893  -0.05180  -0.03048  -0.02643
 Alpha virt. eigenvalues --   -0.01855  -0.01562  -0.01161  -0.00879  -0.00624
 Alpha virt. eigenvalues --    0.00193   0.00400   0.00624   0.00685   0.00706

  Beta  occ. eigenvalues --  -38.44464 -38.44240 -38.44124 -38.44012 -38.43932
  Beta  occ. eigenvalues --  -38.43720 -38.42497  -2.20299  -2.20113  -2.19931
  Beta  occ. eigenvalues --   -2.19895  -2.19793  -2.19576  -2.18608  -1.14032
  Beta  occ. eigenvalues --   -1.13936  -1.13918  -1.13834  -1.13766  -1.13736
  Beta  occ. eigenvalues --   -1.13658  -1.13604  -1.13584  -1.13572  -1.13518
  Beta  occ. eigenvalues --   -1.13512  -1.13500  -1.13462  -1.13424  -1.13247
  Beta  occ. eigenvalues --   -1.13232  -1.13195  -1.12299  -1.12278  -1.12255
  Beta  occ. eigenvalues --   -0.17859  -0.13405  -0.12696
  Beta virt. eigenvalues --   -0.06081  -0.05739  -0.05494  -0.05006  -0.02400
  Beta virt. eigenvalues --   -0.02066  -0.01772  -0.01475  -0.00894  -0.00712
  Beta virt. eigenvalues --   -0.00306   0.00407   0.00493   0.00693   0.00732

 Mulliken charges and spin densities:
               1          2
     1  Na   0.176433   0.081716
     2  Na  -1.738840   0.501874
     3  Na   0.057220   0.149563
     4  Na   0.610908   0.056844
     5  Na   0.470020   0.047693
     6  Na   0.315248   0.002714
     7  Na   0.109011   0.159597
 Sum of Mulliken charges =  -0.00000   1.00000

 Dipole moment (field-independent basis, Debye):
    X=              0.2130    Y=              0.4227    Z=              0.1610  Tot=              0.5000
 Quadrupole moment (field-independent basis, Debye-Ang):
   XX=            -52.7436   YY=            -57.5965   ZZ=            -78.8046
   XY=              0.2665   XZ=              0.0613   YZ=              0.2676

 Normal termination of Gaussian 16 at Thu Dec  7 12:42:59 2023.
