 Gaussian 16, Revision B.01,
 Gaussian 16:  ES64L-G16RevB.01 20-Dec-2017

 -------------------------
 #P B3LYP/6-311+g(d) force
 -------------------------

 -----
 DPGEN
 -----
 Symbolic Z-matrix:
 Charge =  0 Multiplicity = 2

                         Standard orientation:
 ---------------------------------------------------------------------
 Center     Atomic      Atomic             Coordinates (Angstroms)
 Number     Number       Type             X           Y           Z
 ---------------------------------------------------------------------
      1         11           0        1.546117   -0.526375    1.241854
      2         11           0        6.297259   -1.395190   -0.967537
      3         11           0        5.261760    1.222081    0.102649
      4         11           0       -2.418739   -1.213978   -0.002801
      5         11           0       -5.723130   -1.568796    0.035938
      6         11           0       -4.114974    1.772848   -1.066428
      7         11           0       -0.848293    1.709410    0.656325
 ---------------------------------------------------------------------

 SCF Done:  E(UB3LYP) =  -1136.11600656     A.U. after   18 cycles

 The electronic state is 2-A.
 Alpha  occ. eigenvalues --  -38.44636 -38.44615 -38.44300 -38.44004 -38.43759
 Alpha  occ. eigenvalues --  -38.43717 -38.43574  -2.20438  -2.20409  -2.20140
 Alpha  occ. eigenvalues --   -2.19822  -2.19549  -2.19523  -2.19419  -1.14221
 Alpha  occ. eigenvalues --   -1.14098  -1.14084  -1.14055  -1.14049  -1.13970
 Alpha  occ. eigenvalues --   -1.13844  -1.13836  -1.13735  -1.13493  -1.13474
 Alpha  occ. eigenvalues --   -1.13423  -1.13228  -1.13218  -1.13183  -1.13177
 Alpha  occ. eigenvalues --   -1.13169  -1.13136  -1.13107  -1.13096  -1.13017
 Alpha  occ. eigenvalues --   -0.16190  -0.14096  -0.12016  -0.10617
 Alpha virt. eigenvalues --   -0.06366  -0.05226  -0.04801  -0.03514  -0.02704
 Alpha virt. eigenvalues --   -0.02530  -0.02429  -0.01733  -0.00964  -0.00607
 Alpha virt. eigenvalues --   -0.00540  -0.00078   0.00125   0.00379   0.00527

  Beta  occ. eigenvalues --  -38.44636 -38.44612 -38.44278 -38.43931 -38.43737
  Beta  occ. eigenvalues --  -38.43671 -38.43552  -2.20438  -2.20404  -2.20102
  Beta  occ. eigenvalues --   -2.19688  -2.19505  -2.19439  -2.19382  -1.14219
  Beta  occ. eigenvalues --   -1.14098  -1.14082  -1.14051  -1.14045  -1.13968
  Beta  occ. eigenvalues --   -1.13823  -1.13785  -1.13708  -1.13405  -1.13380
  Beta  occ. eigenvalues --   -1.13321  -1.13200  -1.13189  -1.13139  -1.13124
  Beta  occ. eigenvalues --   -1.13113  -1.13088  -1.13087  -1.13075  -1.12954
  Beta  occ. eigenvalues --   -0.15523  -0.13943  -0.11731
  Beta virt. eigenvalues --   -0.06875  -0.06208  -0.04991  -0.04435  -0.03356
  Beta virt. eigenvalues --   -0.02502  -0.02332  -0.01725  -0.01536  -0.00925
  Beta virt. eigenvalues --   -0.00258  -0.00205   0.00078   0.00320   0.00404

 Mulliken charges and spin densities:
               1          2
     1  Na  -0.250362   0.046265
     2  Na   0.065344   0.018076
     3  Na   0.130989  -0.002628
     4  Na  -0.979102   0.307132
     5  Na   0.950035   0.138342
     6  Na   0.078309   0.293148
     7  Na   0.004786   0.199666
 Sum of Mulliken charges =  -0.00000   1.00000

 Dipole moment (field-independent basis, Debye):
    X=              1.0345    Y=             -0.0978    Z=             -0.2578  Tot=              1.0706
 Quadrupole moment (field-independent basis, Debye-Ang):
   XX=            -58.1585   YY=            -63.2831   ZZ=            -72.1226
   XY=             -3.8900   XZ=             -0.2816   YZ=              2.5815

 Normal termination of Gaussian 16 at Mon Dec  4 02:17:53 2023.
