 Gaussian 16, Revision B.01,
 Gaussian 16:  ES64L-G16RevB.01 20-Dec-2017

 -------------------------
 #P B3LYP/6-311+g(d) force
 -------------------------

 -----
 DPGEN
 -----
 Symbolic Z-matrix:
 Charge =  0 Multiplicity = 2

                         Standard orientation:
 ---------------------------------------------------------------------
 Center     Atomic      Atomic             Coordinates (Angstroms)
 Number     Number       Type             X           Y           Z
 ---------------------------------------------------------------------
      1         11           0        2.209594    1.748403   -0.351163
      2         11           0       -0.430474    3.295465    0.137280
      3         11           0       -3.231566   -0.625680    0.219576
      4         11           0        5.075957   -0.912837   -0.778659
      5         11           0       -6.100584   -0.853462   -0.818578
      6         11           0        0.103423   -0.552802    1.442380
      7         11           0        2.373651   -2.099086    0.149163
 ---------------------------------------------------------------------

 SCF Done:  E(UB3LYP) =  -1136.11520431     A.U. after   21 cycles

 The electronic state is 2-A.
 Alpha  occ. eigenvalues --  -38.44658 -38.44511 -38.44345 -38.44325 -38.44145
 Alpha  occ. eigenvalues --  -38.44026 -38.43545  -2.20549  -2.20335  -2.20234
 Alpha  occ. eigenvalues --   -2.20178  -2.19955  -2.19836  -2.19353  -1.14288
 Alpha  occ. eigenvalues --   -1.14195  -1.14138  -1.14047  -1.13982  -1.13971
 Alpha  occ. eigenvalues --   -1.13894  -1.13881  -1.13866  -1.13854  -1.13832
 Alpha  occ. eigenvalues --   -1.13817  -1.13610  -1.13594  -1.13567  -1.13518
 Alpha  occ. eigenvalues --   -1.13474  -1.13474  -1.13024  -1.13018  -1.13000
 Alpha  occ. eigenvalues --   -0.17245  -0.13724  -0.12521  -0.11592
 Alpha virt. eigenvalues --   -0.06293  -0.05564  -0.04654  -0.03582  -0.02772
 Alpha virt. eigenvalues --   -0.02341  -0.02215  -0.01537  -0.01255  -0.00863
 Alpha virt. eigenvalues --   -0.00528  -0.00111   0.00128   0.00444   0.00631

  Beta  occ. eigenvalues --  -38.44571 -38.44474 -38.44321 -38.44299 -38.44127
  Beta  occ. eigenvalues --  -38.43986 -38.43551  -2.20391  -2.20265  -2.20197
  Beta  occ. eigenvalues --   -2.20132  -2.19922  -2.19761  -2.19370  -1.14180
  Beta  occ. eigenvalues --   -1.14091  -1.14028  -1.13997  -1.13934  -1.13919
  Beta  occ. eigenvalues --   -1.13862  -1.13856  -1.13835  -1.13819  -1.13793
  Beta  occ. eigenvalues --   -1.13759  -1.13588  -1.13565  -1.13548  -1.13470
  Beta  occ. eigenvalues --   -1.13422  -1.13422  -1.13038  -1.13029  -1.12982
  Beta  occ. eigenvalues --   -0.16518  -0.13408  -0.11982
  Beta virt. eigenvalues --   -0.08203  -0.05905  -0.05116  -0.04386  -0.03144
  Beta virt. eigenvalues --   -0.02486  -0.02228  -0.01832  -0.01376  -0.01092
  Beta virt. eigenvalues --   -0.00418  -0.00244   0.00032   0.00249   0.00527

 Mulliken charges and spin densities:
               1          2
     1  Na  -0.553883   0.203402
     2  Na   0.674905   0.062206
     3  Na  -0.531951   0.035598
     4  Na   0.188827   0.148596
     5  Na   0.253191   0.071627
     6  Na  -0.673458   0.460432
     7  Na   0.642369   0.018139
 Sum of Mulliken charges =  -0.00000   1.00000

 Dipole moment (field-independent basis, Debye):
    X=              1.0678    Y=              0.4416    Z=             -0.2210  Tot=              1.1764
 Quadrupole moment (field-independent basis, Debye-Ang):
   XX=            -55.8186   YY=            -68.4338   ZZ=            -71.0851
   XY=             -4.0313   XZ=              0.6050   YZ=              0.6482

 Normal termination of Gaussian 16 at Wed Nov 29 04:05:35 2023.
