 Gaussian 16, Revision B.01,
 Gaussian 16:  ES64L-G16RevB.01 20-Dec-2017

 -------------------------
 #P B3LYP/6-311+g(d) force
 -------------------------

 -----
 DPGEN
 -----
 Symbolic Z-matrix:
 Charge =  0 Multiplicity = 2

                         Standard orientation:
 ---------------------------------------------------------------------
 Center     Atomic      Atomic             Coordinates (Angstroms)
 Number     Number       Type             X           Y           Z
 ---------------------------------------------------------------------
      1         11           0       -0.363446   -0.088817    1.650840
      2         11           0       -2.111049   -2.440126   -0.313151
      3         11           0        0.723805    3.175318   -0.139158
      4         11           0        3.544527    0.045520    0.000161
      5         11           0        1.561374   -2.305660   -0.046757
      6         11           0       -3.049539    1.293751    0.087484
      7         11           0       -0.305672    0.320014   -1.239420
 ---------------------------------------------------------------------

 SCF Done:  E(UB3LYP) =  -1136.12497350     A.U. after   24 cycles

 The electronic state is 2-A.
 Alpha  occ. eigenvalues --  -38.44905 -38.44715 -38.43998 -38.43776 -38.43351
 Alpha  occ. eigenvalues --  -38.42928 -38.42806  -2.20730  -2.20511  -2.19790
 Alpha  occ. eigenvalues --   -2.19609  -2.19247  -2.18919  -2.18859  -1.14419
 Alpha  occ. eigenvalues --   -1.14396  -1.14346  -1.14213  -1.14170  -1.14135
 Alpha  occ. eigenvalues --   -1.13484  -1.13450  -1.13416  -1.13278  -1.13268
 Alpha  occ. eigenvalues --   -1.13250  -1.12945  -1.12908  -1.12883  -1.12803
 Alpha  occ. eigenvalues --   -1.12524  -1.12509  -1.12486  -1.12469  -1.12448
 Alpha  occ. eigenvalues --   -0.18600  -0.13269  -0.12429  -0.09648
 Alpha virt. eigenvalues --   -0.06497  -0.05477  -0.04725  -0.02834  -0.02388
 Alpha virt. eigenvalues --   -0.02123  -0.01648  -0.01495  -0.00926  -0.00419
 Alpha virt. eigenvalues --    0.00025   0.00284   0.00661   0.00744   0.00855

  Beta  occ. eigenvalues --  -38.44895 -38.44719 -38.43993 -38.43761 -38.43343
  Beta  occ. eigenvalues --  -38.42846 -38.42758  -2.20716  -2.20519  -2.19783
  Beta  occ. eigenvalues --   -2.19586  -2.19237  -2.18788  -2.18756  -1.14409
  Beta  occ. eigenvalues --   -1.14358  -1.14341  -1.14221  -1.14162  -1.14142
  Beta  occ. eigenvalues --   -1.13474  -1.13434  -1.13412  -1.13260  -1.13240
  Beta  occ. eigenvalues --   -1.13229  -1.12938  -1.12891  -1.12861  -1.12714
  Beta  occ. eigenvalues --   -1.12440  -1.12416  -1.12398  -1.12378  -1.12374
  Beta  occ. eigenvalues --   -0.17925  -0.13060  -0.12153
  Beta virt. eigenvalues --   -0.06459  -0.05864  -0.05378  -0.04712  -0.02144
  Beta virt. eigenvalues --   -0.02044  -0.01753  -0.01485  -0.00969  -0.00620
  Beta virt. eigenvalues --   -0.00447   0.00193   0.00352   0.00687   0.00778

 Mulliken charges and spin densities:
               1          2
     1  Na  -0.160363   0.627897
     2  Na   0.362699   0.100048
     3  Na   0.139835  -0.073276
     4  Na  -0.011239  -0.053629
     5  Na   0.190998   0.049077
     6  Na   0.312050  -0.045933
     7  Na  -0.833981   0.395818
 Sum of Mulliken charges =  -0.00000   1.00000

 Dipole moment (field-independent basis, Debye):
    X=             -0.2108    Y=              0.4088    Z=              0.1345  Tot=              0.4792
 Quadrupole moment (field-independent basis, Debye-Ang):
   XX=            -48.9557   YY=            -59.7635   ZZ=            -79.9887
   XY=              0.7994   XZ=              0.3743   YZ=              0.9034

 Normal termination of Gaussian 16 at Fri Dec  8 07:41:08 2023.
