 Gaussian 16, Revision B.01,
 Gaussian 16:  ES64L-G16RevB.01 20-Dec-2017

 -------------------------
 #P B3LYP/6-311+g(d) force
 -------------------------

 -----
 DPGEN
 -----
 Symbolic Z-matrix:
 Charge =  0 Multiplicity = 2

                         Standard orientation:
 ---------------------------------------------------------------------
 Center     Atomic      Atomic             Coordinates (Angstroms)
 Number     Number       Type             X           Y           Z
 ---------------------------------------------------------------------
      1         11           0        0.753385    2.256983   -0.428889
      2         11           0       -3.311442   -0.651244    0.544600
      3         11           0       -0.138433   -1.153689    2.268789
      4         11           0        3.898456    0.548450    0.661344
      5         11           0       -2.038709    3.081824   -0.502655
      6         11           0        1.601368   -1.265118   -1.313177
      7         11           0       -0.764626   -2.817206   -1.230011
 ---------------------------------------------------------------------

 SCF Done:  E(UB3LYP) =  -1136.11595442     A.U. after   20 cycles

 The electronic state is 2-A.
 Alpha  occ. eigenvalues --  -38.45221 -38.45145 -38.44668 -38.43934 -38.43874
 Alpha  occ. eigenvalues --  -38.43514 -38.43267  -2.20999  -2.20894  -2.20445
 Alpha  occ. eigenvalues --   -2.19822  -2.19772  -2.19366  -2.19094  -1.14667
 Alpha  occ. eigenvalues --   -1.14639  -1.14614  -1.14574  -1.14547  -1.14524
 Alpha  occ. eigenvalues --   -1.14112  -1.14101  -1.14071  -1.13744  -1.13465
 Alpha  occ. eigenvalues --   -1.13429  -1.13407  -1.13373  -1.13298  -1.13123
 Alpha  occ. eigenvalues --   -1.13043  -1.13025  -1.12733  -1.12721  -1.12707
 Alpha  occ. eigenvalues --   -0.17248  -0.13025  -0.12688  -0.11074
 Alpha virt. eigenvalues --   -0.06747  -0.05043  -0.04769  -0.03568  -0.03023
 Alpha virt. eigenvalues --   -0.02486  -0.02220  -0.01095  -0.00801  -0.00574
 Alpha virt. eigenvalues --   -0.00149   0.00081   0.00250   0.00580   0.00785

  Beta  occ. eigenvalues --  -38.45145 -38.45137 -38.44649 -38.43883 -38.43828
  Beta  occ. eigenvalues --  -38.43507 -38.43258  -2.20881  -2.20857  -2.20408
  Beta  occ. eigenvalues --   -2.19735  -2.19691  -2.19353  -2.19078  -1.14573
  Beta  occ. eigenvalues --   -1.14558  -1.14547  -1.14541  -1.14523  -1.14496
  Beta  occ. eigenvalues --   -1.14087  -1.14073  -1.14048  -1.13664  -1.13409
  Beta  occ. eigenvalues --   -1.13366  -1.13350  -1.13319  -1.13215  -1.13110
  Beta  occ. eigenvalues --   -1.13032  -1.13013  -1.12722  -1.12709  -1.12696
  Beta  occ. eigenvalues --   -0.16665  -0.12809  -0.12227
  Beta virt. eigenvalues --   -0.07469  -0.06387  -0.04950  -0.04552  -0.03089
  Beta virt. eigenvalues --   -0.02431  -0.01994  -0.01832  -0.01028  -0.00599
  Beta virt. eigenvalues --   -0.00504  -0.00008   0.00285   0.00309   0.00681

 Mulliken charges and spin densities:
               1          2
     1  Na  -0.835312   0.138948
     2  Na  -0.180718   0.181604
     3  Na  -0.083246   0.385966
     4  Na   0.653611   0.209505
     5  Na   0.433696  -0.131861
     6  Na  -0.237135   0.242383
     7  Na   0.249105  -0.026545
 Sum of Mulliken charges =  -0.00000   1.00000

 Dipole moment (field-independent basis, Debye):
    X=              0.0208    Y=             -0.6819    Z=              0.7874  Tot=              1.0418
 Quadrupole moment (field-independent basis, Debye-Ang):
   XX=            -52.8737   YY=            -72.8687   ZZ=            -71.5799
   XY=              2.7463   XZ=              3.1955   YZ=              0.3820

 Normal termination of Gaussian 16 at Sun Dec  3 21:23:21 2023.
