 Gaussian 16, Revision B.01,
 Gaussian 16:  ES64L-G16RevB.01 20-Dec-2017

 -------------------------
 #P B3LYP/6-311+g(d) force
 -------------------------

 -----
 DPGEN
 -----
 Symbolic Z-matrix:
 Charge =  0 Multiplicity = 2

                         Standard orientation:
 ---------------------------------------------------------------------
 Center     Atomic      Atomic             Coordinates (Angstroms)
 Number     Number       Type             X           Y           Z
 ---------------------------------------------------------------------
      1         11           0       -3.226427   -0.822215    0.280056
      2         11           0        0.482908   -3.101124   -0.237293
      3         11           0       -1.842275    2.414997   -0.359575
      4         11           0       -0.045214   -0.193006    2.057817
      5         11           0       -0.496685   -0.592344   -1.599351
      6         11           0        1.555092    2.579196   -0.079545
      7         11           0        3.572602   -0.285504   -0.062110
 ---------------------------------------------------------------------

 SCF Done:  E(UB3LYP) =  -1136.13004782     A.U. after   21 cycles

 The electronic state is 2-A.
 Alpha  occ. eigenvalues --  -38.44865 -38.44720 -38.43815 -38.43722 -38.43516
 Alpha  occ. eigenvalues --  -38.43430 -38.43287  -2.20612  -2.20530  -2.19642
 Alpha  occ. eigenvalues --   -2.19571  -2.19350  -2.19243  -2.19230  -1.14292
 Alpha  occ. eigenvalues --   -1.14269  -1.14250  -1.14207  -1.14188  -1.14166
 Alpha  occ. eigenvalues --   -1.13394  -1.13293  -1.13256  -1.13239  -1.13200
 Alpha  occ. eigenvalues --   -1.13185  -1.13038  -1.13015  -1.12994  -1.12916
 Alpha  occ. eigenvalues --   -1.12909  -1.12898  -1.12876  -1.12859  -1.12854
 Alpha  occ. eigenvalues --   -0.18035  -0.12854  -0.12422  -0.10443
 Alpha virt. eigenvalues --   -0.06482  -0.05110  -0.04829  -0.03071  -0.02817
 Alpha virt. eigenvalues --   -0.02431  -0.02025  -0.01198  -0.00849  -0.00457
 Alpha virt. eigenvalues --   -0.00051   0.00305   0.00675   0.00718   0.00774

  Beta  occ. eigenvalues --  -38.44869 -38.44711 -38.43806 -38.43627 -38.43507
  Beta  occ. eigenvalues --  -38.43428 -38.43230  -2.20620  -2.20517  -2.19628
  Beta  occ. eigenvalues --   -2.19395  -2.19337  -2.19241  -2.19127  -1.14291
  Beta  occ. eigenvalues --   -1.14274  -1.14257  -1.14193  -1.14166  -1.14156
  Beta  occ. eigenvalues --   -1.13374  -1.13265  -1.13249  -1.13122  -1.13081
  Beta  occ. eigenvalues --   -1.13055  -1.13026  -1.12996  -1.12980  -1.12909
  Beta  occ. eigenvalues --   -1.12903  -1.12874  -1.12826  -1.12786  -1.12779
  Beta  occ. eigenvalues --   -0.17342  -0.12712  -0.12159
  Beta virt. eigenvalues --   -0.06604  -0.06389  -0.05108  -0.04713  -0.02397
  Beta virt. eigenvalues --   -0.02095  -0.01926  -0.01391  -0.01113  -0.00897
  Beta virt. eigenvalues --   -0.00484   0.00118   0.00353   0.00722   0.00800

 Mulliken charges and spin densities:
               1          2
     1  Na   0.267569  -0.000071
     2  Na   0.074452  -0.123005
     3  Na   0.053850   0.025949
     4  Na  -0.304002   0.764256
     5  Na   0.075118   0.457575
     6  Na  -0.117019  -0.050531
     7  Na  -0.049967  -0.074174
 Sum of Mulliken charges =  -0.00000   1.00000

 Dipole moment (field-independent basis, Debye):
    X=             -0.0425    Y=             -0.4174    Z=              0.1484  Tot=              0.4450
 Quadrupole moment (field-independent basis, Debye-Ang):
   XX=            -52.7464   YY=            -63.8972   ZZ=            -76.4323
   XY=             -0.6450   XZ=             -0.7991   YZ=             -1.0139

 Normal termination of Gaussian 16 at Thu Dec  7 05:24:38 2023.
