 Gaussian 16, Revision B.01,
 Gaussian 16:  ES64L-G16RevB.01 20-Dec-2017

 -------------------------
 #P B3LYP/6-311+g(d) force
 -------------------------

 -----
 DPGEN
 -----
 Symbolic Z-matrix:
 Charge =  0 Multiplicity = 2

                         Standard orientation:
 ---------------------------------------------------------------------
 Center     Atomic      Atomic             Coordinates (Angstroms)
 Number     Number       Type             X           Y           Z
 ---------------------------------------------------------------------
      1         11           0        0.606480    2.355797   -0.551691
      2         11           0       -0.082789   -1.109587   -1.309595
      3         11           0       -0.631575    0.306730    1.929793
      4         11           0       -2.930237   -2.238337   -0.306798
      5         11           0        2.472093   -0.909864    1.420872
      6         11           0        3.439675   -0.166672   -1.008164
      7         11           0       -2.873648    1.761932   -0.174418
 ---------------------------------------------------------------------

 SCF Done:  E(UB3LYP) =  -1136.12122861     A.U. after   22 cycles

 The electronic state is 2-A.
 Alpha  occ. eigenvalues --  -38.44860 -38.44772 -38.44507 -38.43862 -38.43704
 Alpha  occ. eigenvalues --  -38.43274 -38.43085  -2.20757  -2.20572  -2.20433
 Alpha  occ. eigenvalues --   -2.19770  -2.19586  -2.19118  -2.18889  -1.14685
 Alpha  occ. eigenvalues --   -1.14372  -1.14357  -1.14266  -1.14223  -1.14189
 Alpha  occ. eigenvalues --   -1.14069  -1.14032  -1.13996  -1.13470  -1.13399
 Alpha  occ. eigenvalues --   -1.13377  -1.13284  -1.13254  -1.13206  -1.12815
 Alpha  occ. eigenvalues --   -1.12792  -1.12719  -1.12561  -1.12547  -1.12530
 Alpha  occ. eigenvalues --   -0.18509  -0.13950  -0.11359  -0.11253
 Alpha virt. eigenvalues --   -0.06748  -0.05217  -0.04609  -0.03239  -0.02685
 Alpha virt. eigenvalues --   -0.02459  -0.02345  -0.01151  -0.00715  -0.00114
 Alpha virt. eigenvalues --    0.00118   0.00191   0.00399   0.00623   0.00802

  Beta  occ. eigenvalues --  -38.44843 -38.44771 -38.44461 -38.43785 -38.43675
  Beta  occ. eigenvalues --  -38.43253 -38.43088  -2.20726  -2.20570  -2.20353
  Beta  occ. eigenvalues --   -2.19631  -2.19535  -2.19082  -2.18895  -1.14655
  Beta  occ. eigenvalues --   -1.14347  -1.14328  -1.14257  -1.14222  -1.14190
  Beta  occ. eigenvalues --   -1.14006  -1.13978  -1.13937  -1.13380  -1.13294
  Beta  occ. eigenvalues --   -1.13273  -1.13242  -1.13209  -1.13168  -1.12791
  Beta  occ. eigenvalues --   -1.12753  -1.12691  -1.12562  -1.12549  -1.12535
  Beta  occ. eigenvalues --   -0.17758  -0.13834  -0.11174
  Beta virt. eigenvalues --   -0.07229  -0.06616  -0.05076  -0.03958  -0.03099
  Beta virt. eigenvalues --   -0.02355  -0.01877  -0.01747  -0.01035  -0.00352
  Beta virt. eigenvalues --   -0.00067   0.00166   0.00248   0.00532   0.00731

 Mulliken charges and spin densities:
               1          2
     1  Na  -0.546173   0.171026
     2  Na  -0.883460   0.387179
     3  Na   0.298534   0.378085
     4  Na   0.065935  -0.123632
     5  Na  -0.559987  -0.027226
     6  Na   1.310382   0.232140
     7  Na   0.314768  -0.017573
 Sum of Mulliken charges =  -0.00000   1.00000

 Dipole moment (field-independent basis, Debye):
    X=              0.0938    Y=              0.6154    Z=             -0.0667  Tot=              0.6261
 Quadrupole moment (field-independent basis, Debye-Ang):
   XX=            -49.6681   YY=            -74.9462   ZZ=            -70.6903
   XY=             -2.8701   XZ=             -2.3103   YZ=             -2.9185

 Normal termination of Gaussian 16 at Tue Dec  5 22:52:01 2023.
