 Gaussian 16, Revision B.01,
 Gaussian 16:  ES64L-G16RevB.01 20-Dec-2017

 -------------------------
 #P B3LYP/6-311+g(d) force
 -------------------------

 -----
 DPGEN
 -----
 Symbolic Z-matrix:
 Charge =  0 Multiplicity = 2

                         Standard orientation:
 ---------------------------------------------------------------------
 Center     Atomic      Atomic             Coordinates (Angstroms)
 Number     Number       Type             X           Y           Z
 ---------------------------------------------------------------------
      1         11           0        0.393690   -0.930557    1.486902
      2         11           0        2.118058   -3.287119   -0.829885
      3         11           0        3.959520   -0.572563    0.048277
      4         11           0       -0.452399    1.637144   -0.553452
      5         11           0       -2.769523    0.413068    0.979575
      6         11           0        2.547246    3.279450   -0.373279
      7         11           0       -5.796593   -0.539422   -0.758138
 ---------------------------------------------------------------------

 SCF Done:  E(UB3LYP) =  -1136.11522733     A.U. after   21 cycles

 The electronic state is 2-A.
 Alpha  occ. eigenvalues --  -38.44912 -38.44893 -38.44851 -38.44429 -38.43987
 Alpha  occ. eigenvalues --  -38.43527 -38.43014  -2.20728  -2.20691  -2.20642
 Alpha  occ. eigenvalues --   -2.20208  -2.19860  -2.19390  -2.18792  -1.14422
 Alpha  occ. eigenvalues --   -1.14402  -1.14386  -1.14352  -1.14318  -1.14295
 Alpha  occ. eigenvalues --   -1.14273  -1.14273  -1.14248  -1.13879  -1.13872
 Alpha  occ. eigenvalues --   -1.13834  -1.13557  -1.13540  -1.13503  -1.13083
 Alpha  occ. eigenvalues --   -1.13048  -1.13024  -1.12461  -1.12448  -1.12433
 Alpha  occ. eigenvalues --   -0.16806  -0.13918  -0.12024  -0.11209
 Alpha virt. eigenvalues --   -0.06368  -0.05627  -0.04626  -0.03726  -0.02805
 Alpha virt. eigenvalues --   -0.02399  -0.02000  -0.01672  -0.01114  -0.00853
 Alpha virt. eigenvalues --   -0.00507  -0.00160   0.00335   0.00434   0.00464

  Beta  occ. eigenvalues --  -38.44887 -38.44849 -38.44724 -38.44428 -38.43982
  Beta  occ. eigenvalues --  -38.43527 -38.43003  -2.20650  -2.20642  -2.20407
  Beta  occ. eigenvalues --   -2.20207  -2.19854  -2.19399  -2.18770  -1.14369
  Beta  occ. eigenvalues --   -1.14357  -1.14349  -1.14320  -1.14259  -1.14248
  Beta  occ. eigenvalues --   -1.14114  -1.14113  -1.14092  -1.13880  -1.13866
  Beta  occ. eigenvalues --   -1.13835  -1.13553  -1.13521  -1.13508  -1.13097
  Beta  occ. eigenvalues --   -1.13061  -1.12968  -1.12446  -1.12434  -1.12417
  Beta  occ. eigenvalues --   -0.16326  -0.13302  -0.11509
  Beta virt. eigenvalues --   -0.07787  -0.06218  -0.05157  -0.04395  -0.03507
  Beta virt. eigenvalues --   -0.02538  -0.01983  -0.01762  -0.01169  -0.00966
  Beta virt. eigenvalues --   -0.00447  -0.00366   0.00050   0.00428   0.00504

 Mulliken charges and spin densities:
               1          2
     1  Na  -0.373878   0.131486
     2  Na   0.210058   0.007357
     3  Na   0.028937   0.205958
     4  Na  -0.827748  -0.143972
     5  Na   0.518494   0.039619
     6  Na   0.434943   0.126318
     7  Na   0.009194   0.633235
 Sum of Mulliken charges =  -0.00000   1.00000

 Dipole moment (field-independent basis, Debye):
    X=              0.4987    Y=             -1.4341    Z=             -0.0751  Tot=              1.5202
 Quadrupole moment (field-independent basis, Debye-Ang):
   XX=            -64.7756   YY=            -69.2454   ZZ=            -67.0350
   XY=             -1.1584   XZ=              2.5708   YZ=              3.2927

 Normal termination of Gaussian 16 at Tue Nov 28 23:10:03 2023.
