 Gaussian 16, Revision B.01,
 Gaussian 16:  ES64L-G16RevB.01 20-Dec-2017

 -------------------------
 #P B3LYP/6-311+g(d) force
 -------------------------

 -----
 DPGEN
 -----
 Symbolic Z-matrix:
 Charge =  0 Multiplicity = 2

                         Standard orientation:
 ---------------------------------------------------------------------
 Center     Atomic      Atomic             Coordinates (Angstroms)
 Number     Number       Type             X           Y           Z
 ---------------------------------------------------------------------
      1         11           0       -3.167782    2.786127    0.291987
      2         11           0        4.182266   -1.188883   -0.846924
      3         11           0       -1.588911   -3.151036   -0.352153
      4         11           0       -4.140654   -0.900417   -0.434206
      5         11           0        3.355111    1.968938    0.271353
      6         11           0        0.352374    3.101117   -0.184799
      7         11           0        1.007597   -2.615847    1.254743
 ---------------------------------------------------------------------

 SCF Done:  E(UB3LYP) =  -1136.10627161     A.U. after   23 cycles

 The electronic state is 2-A.
 Alpha  occ. eigenvalues --  -38.45159 -38.45047 -38.44844 -38.44605 -38.44405
 Alpha  occ. eigenvalues --  -38.44057 -38.43724  -2.20884  -2.20845  -2.20638
 Alpha  occ. eigenvalues --   -2.20383  -2.20199  -2.19879  -2.19532  -1.14577
 Alpha  occ. eigenvalues --   -1.14560  -1.14528  -1.14525  -1.14499  -1.14467
 Alpha  occ. eigenvalues --   -1.14326  -1.14313  -1.14281  -1.14047  -1.14035
 Alpha  occ. eigenvalues --   -1.14007  -1.13849  -1.13836  -1.13822  -1.13555
 Alpha  occ. eigenvalues --   -1.13536  -1.13526  -1.13190  -1.13183  -1.13164
 Alpha  occ. eigenvalues --   -0.15703  -0.13909  -0.13257  -0.10568
 Alpha virt. eigenvalues --   -0.07838  -0.05194  -0.04129  -0.03500  -0.03241
 Alpha virt. eigenvalues --   -0.02777  -0.02355  -0.01831  -0.01172  -0.00771
 Alpha virt. eigenvalues --   -0.00304  -0.00154   0.00060   0.00238   0.00549

  Beta  occ. eigenvalues --  -38.45183 -38.44999 -38.44836 -38.44550 -38.44329
  Beta  occ. eigenvalues --  -38.44049 -38.43675  -2.20933  -2.20760  -2.20631
  Beta  occ. eigenvalues --   -2.20280  -2.20058  -2.19869  -2.19440  -1.14612
  Beta  occ. eigenvalues --   -1.14595  -1.14541  -1.14462  -1.14443  -1.14399
  Beta  occ. eigenvalues --   -1.14320  -1.14310  -1.14238  -1.13977  -1.13968
  Beta  occ. eigenvalues --   -1.13938  -1.13753  -1.13735  -1.13731  -1.13538
  Beta  occ. eigenvalues --   -1.13533  -1.13500  -1.13127  -1.13122  -1.13108
  Beta  occ. eigenvalues --   -0.15167  -0.13205  -0.12722
  Beta virt. eigenvalues --   -0.07891  -0.07351  -0.04747  -0.03889  -0.03079
  Beta virt. eigenvalues --   -0.02884  -0.02550  -0.02101  -0.01694  -0.01080
  Beta virt. eigenvalues --   -0.00475  -0.00153   0.00008   0.00271   0.00349

 Mulliken charges and spin densities:
               1          2
     1  Na   0.287454  -0.070666
     2  Na   0.187138   0.382855
     3  Na   0.015126   0.001823
     4  Na   0.057827   0.308824
     5  Na   0.077867   0.032479
     6  Na  -0.372765   0.159888
     7  Na  -0.252647   0.184797
 Sum of Mulliken charges =  -0.00000   1.00000

 Dipole moment (field-independent basis, Debye):
    X=              0.0343    Y=             -0.3032    Z=              0.2086  Tot=              0.3696
 Quadrupole moment (field-independent basis, Debye-Ang):
   XX=            -64.8147   YY=            -66.9539   ZZ=            -70.0263
   XY=             -1.6046   XZ=              1.1566   YZ=              2.6601

 Normal termination of Gaussian 16 at Mon Dec  4 03:43:12 2023.
