 Gaussian 16, Revision B.01,
 Gaussian 16:  ES64L-G16RevB.01 20-Dec-2017

 -------------------------
 #P B3LYP/6-311+g(d) force
 -------------------------

 -----
 DPGEN
 -----
 Symbolic Z-matrix:
 Charge =  0 Multiplicity = 2

                         Standard orientation:
 ---------------------------------------------------------------------
 Center     Atomic      Atomic             Coordinates (Angstroms)
 Number     Number       Type             X           Y           Z
 ---------------------------------------------------------------------
      1         11           0        4.170298   -1.496967   -1.177770
      2         11           0        0.674320    3.165099   -0.166365
      3         11           0        0.008707   -0.483639   -0.841165
      4         11           0       -3.908273   -2.126267   -0.168977
      5         11           0       -2.506023    1.420984   -0.876145
      6         11           0       -0.884342   -0.160835    1.719183
      7         11           0        2.445314   -0.318374    1.511240
 ---------------------------------------------------------------------

 SCF Done:  E(UB3LYP) =  -1136.11333970     A.U. after   23 cycles

 The electronic state is 2-A.
 Alpha  occ. eigenvalues --  -38.45169 -38.44372 -38.44314 -38.44094 -38.43854
 Alpha  occ. eigenvalues --  -38.43709 -38.43526  -2.21126  -2.20344  -2.20058
 Alpha  occ. eigenvalues --   -2.19967  -2.19649  -2.19484  -2.19397  -1.15043
 Alpha  occ. eigenvalues --   -1.14752  -1.14699  -1.14059  -1.13949  -1.13886
 Alpha  occ. eigenvalues --   -1.13739  -1.13732  -1.13686  -1.13674  -1.13650
 Alpha  occ. eigenvalues --   -1.13519  -1.13304  -1.13297  -1.13268  -1.13164
 Alpha  occ. eigenvalues --   -1.13144  -1.13110  -1.13088  -1.13054  -1.13025
 Alpha  occ. eigenvalues --   -0.18148  -0.13570  -0.11479  -0.10879
 Alpha virt. eigenvalues --   -0.06440  -0.05649  -0.04655  -0.03198  -0.02496
 Alpha virt. eigenvalues --   -0.02312  -0.02025  -0.01806  -0.00870  -0.00498
 Alpha virt. eigenvalues --    0.00001   0.00144   0.00329   0.00472   0.00604

  Beta  occ. eigenvalues --  -38.45160 -38.44314 -38.44292 -38.44069 -38.43787
  Beta  occ. eigenvalues --  -38.43707 -38.43504  -2.21114  -2.20203  -2.20057
  Beta  occ. eigenvalues --   -2.19921  -2.19522  -2.19481  -2.19364  -1.14993
  Beta  occ. eigenvalues --   -1.14742  -1.14697  -1.13972  -1.13842  -1.13776
  Beta  occ. eigenvalues --   -1.13739  -1.13727  -1.13674  -1.13652  -1.13618
  Beta  occ. eigenvalues --   -1.13484  -1.13218  -1.13209  -1.13188  -1.13162
  Beta  occ. eigenvalues --   -1.13135  -1.13110  -1.13063  -1.13037  -1.12956
  Beta  occ. eigenvalues --   -0.17526  -0.13116  -0.11242
  Beta virt. eigenvalues --   -0.07212  -0.06336  -0.05417  -0.04124  -0.02929
  Beta virt. eigenvalues --   -0.02390  -0.01884  -0.01652  -0.01483  -0.00496
  Beta virt. eigenvalues --   -0.00324   0.00066   0.00325   0.00404   0.00556

 Mulliken charges and spin densities:
               1          2
     1  Na   0.127628   0.374304
     2  Na  -0.206443  -0.037788
     3  Na  -0.973865   0.195788
     4  Na   0.358745   0.021112
     5  Na   0.344972   0.181339
     6  Na   0.236922   0.213064
     7  Na   0.112042   0.052180
 Sum of Mulliken charges =  -0.00000   1.00000

 Dipole moment (field-independent basis, Debye):
    X=             -0.7518    Y=              0.4943    Z=              0.1834  Tot=              0.9182
 Quadrupole moment (field-independent basis, Debye-Ang):
   XX=            -59.4113   YY=            -68.6596   ZZ=            -68.4477
   XY=              4.1148   XZ=              0.6087   YZ=              3.0416

 Normal termination of Gaussian 16 at Tue Dec  5 23:44:52 2023.
