 Gaussian 16, Revision B.01,
 Gaussian 16:  ES64L-G16RevB.01 20-Dec-2017

 -------------------------
 #P B3LYP/6-311+g(d) force
 -------------------------

 -----
 DPGEN
 -----
 Symbolic Z-matrix:
 Charge =  0 Multiplicity = 2

                         Standard orientation:
 ---------------------------------------------------------------------
 Center     Atomic      Atomic             Coordinates (Angstroms)
 Number     Number       Type             X           Y           Z
 ---------------------------------------------------------------------
      1         11           0        3.967012   -1.200029    0.757382
      2         11           0        1.176167   -1.039616   -1.292405
      3         11           0        2.360837    1.919933   -0.059370
      4         11           0       -0.418281    0.406373    1.570393
      5         11           0       -4.382320    0.004435    0.551348
      6         11           0       -0.854683    1.480455   -1.101457
      7         11           0       -1.848732   -1.571551   -0.425890
 ---------------------------------------------------------------------

 SCF Done:  E(UB3LYP) =  -1136.11251877     A.U. after   29 cycles

 The electronic state is 2-A.
 Alpha  occ. eigenvalues --  -38.45641 -38.44782 -38.43923 -38.43594 -38.43343
 Alpha  occ. eigenvalues --  -38.43161 -38.43079  -2.21578  -2.20611  -2.19793
 Alpha  occ. eigenvalues --   -2.19582  -2.19324  -2.19075  -2.18968  -1.15320
 Alpha  occ. eigenvalues --   -1.15226  -1.15160  -1.14278  -1.14252  -1.14223
 Alpha  occ. eigenvalues --   -1.13494  -1.13472  -1.13391  -1.13309  -1.13240
 Alpha  occ. eigenvalues --   -1.13218  -1.13012  -1.12974  -1.12943  -1.12799
 Alpha  occ. eigenvalues --   -1.12735  -1.12658  -1.12629  -1.12621  -1.12601
 Alpha  occ. eigenvalues --   -0.19165  -0.14388  -0.11448  -0.10875
 Alpha virt. eigenvalues --   -0.07241  -0.05047  -0.04454  -0.03177  -0.02995
 Alpha virt. eigenvalues --   -0.02192  -0.01836  -0.01355  -0.01110  -0.00270
 Alpha virt. eigenvalues --   -0.00142   0.00242   0.00367   0.00674   0.00704

  Beta  occ. eigenvalues --  -38.45607 -38.44714 -38.43916 -38.43561 -38.43283
  Beta  occ. eigenvalues --  -38.43132 -38.43080  -2.21517  -2.20483  -2.19780
  Beta  occ. eigenvalues --   -2.19532  -2.19218  -2.19084  -2.18915  -1.15269
  Beta  occ. eigenvalues --   -1.15186  -1.15119  -1.14193  -1.14166  -1.14135
  Beta  occ. eigenvalues --   -1.13485  -1.13461  -1.13375  -1.13263  -1.13211
  Beta  occ. eigenvalues --   -1.13137  -1.12938  -1.12925  -1.12833  -1.12798
  Beta  occ. eigenvalues --   -1.12704  -1.12670  -1.12591  -1.12579  -1.12569
  Beta  occ. eigenvalues --   -0.18480  -0.13835  -0.10797
  Beta virt. eigenvalues --   -0.07516  -0.07036  -0.04909  -0.03858  -0.02886
  Beta virt. eigenvalues --   -0.02703  -0.01810  -0.01435  -0.01056  -0.00789
  Beta virt. eigenvalues --   -0.00118   0.00009   0.00340   0.00501   0.00703

 Mulliken charges and spin densities:
               1          2
     1  Na  -0.103248   0.268112
     2  Na  -0.060890  -0.160979
     3  Na   0.336247   0.291623
     4  Na  -0.329495   0.050100
     5  Na   0.470768   0.363239
     6  Na  -0.120754  -0.019796
     7  Na  -0.192628   0.207702
 Sum of Mulliken charges =  -0.00000   1.00000

 Dipole moment (field-independent basis, Debye):
    X=             -1.0159    Y=              0.9653    Z=              0.2747  Tot=              1.4281
 Quadrupole moment (field-independent basis, Debye-Ang):
   XX=            -60.8864   YY=            -74.4368   ZZ=            -65.4992
   XY=              1.2332   XZ=              1.1966   YZ=             -1.2965

 Normal termination of Gaussian 16 at Thu Dec  7 06:00:16 2023.
