 Gaussian 16, Revision B.01,
 Gaussian 16:  ES64L-G16RevB.01 20-Dec-2017

 -------------------------
 #P B3LYP/6-311+g(d) force
 -------------------------

 -----
 DPGEN
 -----
 Symbolic Z-matrix:
 Charge =  0 Multiplicity = 2

                         Standard orientation:
 ---------------------------------------------------------------------
 Center     Atomic      Atomic             Coordinates (Angstroms)
 Number     Number       Type             X           Y           Z
 ---------------------------------------------------------------------
      1         11           0       -3.860259   -2.118700   -0.138049
      2         11           0        3.213275   -1.796331   -0.041113
      3         11           0       -0.611523   -2.729613    0.347588
      4         11           0        2.291928    2.502880   -0.171455
      5         11           0       -1.728494    3.060506    0.443555
      6         11           0       -4.707594    1.025086   -0.331488
      7         11           0        5.402667    0.056174   -0.109039
 ---------------------------------------------------------------------

 SCF Done:  E(UB3LYP) =  -1136.10433492     A.U. after   24 cycles

 The electronic state is 2-A.
 Alpha  occ. eigenvalues --  -38.45808 -38.45261 -38.44629 -38.44541 -38.44446
 Alpha  occ. eigenvalues --  -38.44359 -38.43617  -2.21544  -2.21092  -2.20490
 Alpha  occ. eigenvalues --   -2.20256  -2.20248  -2.20155  -2.19408  -1.15226
 Alpha  occ. eigenvalues --   -1.15212  -1.15133  -1.14841  -1.14752  -1.14732
 Alpha  occ. eigenvalues --   -1.14150  -1.14114  -1.14087  -1.13955  -1.13945
 Alpha  occ. eigenvalues --   -1.13940  -1.13911  -1.13896  -1.13863  -1.13830
 Alpha  occ. eigenvalues --   -1.13823  -1.13788  -1.13069  -1.13063  -1.13030
 Alpha  occ. eigenvalues --   -0.15879  -0.14477  -0.12459  -0.11158
 Alpha virt. eigenvalues --   -0.07509  -0.05484  -0.04189  -0.03779  -0.03401
 Alpha virt. eigenvalues --   -0.02787  -0.02158  -0.01596  -0.01295  -0.00782
 Alpha virt. eigenvalues --   -0.00538  -0.00457   0.00081   0.00461   0.00562

  Beta  occ. eigenvalues --  -38.45744 -38.45234 -38.44580 -38.44567 -38.44400
  Beta  occ. eigenvalues --  -38.44374 -38.43563  -2.21426  -2.21048  -2.20399
  Beta  occ. eigenvalues --   -2.20306  -2.20188  -2.20163  -2.19307  -1.15147
  Beta  occ. eigenvalues --   -1.15132  -1.15039  -1.14767  -1.14728  -1.14701
  Beta  occ. eigenvalues --   -1.14082  -1.14052  -1.14028  -1.13991  -1.13981
  Beta  occ. eigenvalues --   -1.13910  -1.13897  -1.13862  -1.13847  -1.13844
  Beta  occ. eigenvalues --   -1.13822  -1.13768  -1.13000  -1.12994  -1.12968
  Beta  occ. eigenvalues --   -0.15211  -0.14164  -0.11940
  Beta virt. eigenvalues --   -0.07821  -0.07415  -0.04912  -0.03668  -0.03579
  Beta virt. eigenvalues --   -0.03019  -0.02706  -0.02118  -0.01417  -0.00847
  Beta virt. eigenvalues --   -0.00543  -0.00392  -0.00020   0.00285   0.00444

 Mulliken charges and spin densities:
               1          2
     1  Na   0.455981   0.127386
     2  Na  -0.403415   0.151366
     3  Na  -0.201780   0.181924
     4  Na  -0.156115   0.416199
     5  Na  -0.174593  -0.212948
     6  Na  -0.041264   0.153135
     7  Na   0.521187   0.182938
 Sum of Mulliken charges =  -0.00000   1.00000

 Dipole moment (field-independent basis, Debye):
    X=              1.2739    Y=              0.5405    Z=             -0.1513  Tot=              1.3920
 Quadrupole moment (field-independent basis, Debye-Ang):
   XX=            -52.1351   YY=            -70.8282   ZZ=            -74.1671
   XY=              3.0689   XZ=              0.1950   YZ=              0.1003

 Normal termination of Gaussian 16 at Sun Dec  3 23:31:05 2023.
