 Gaussian 16, Revision B.01,
 Gaussian 16:  ES64L-G16RevB.01 20-Dec-2017

 -------------------------
 #P B3LYP/6-311+g(d) force
 -------------------------

 -----
 DPGEN
 -----
 Symbolic Z-matrix:
 Charge =  0 Multiplicity = 2

                         Standard orientation:
 ---------------------------------------------------------------------
 Center     Atomic      Atomic             Coordinates (Angstroms)
 Number     Number       Type             X           Y           Z
 ---------------------------------------------------------------------
      1         11           0        2.573728    2.882405    0.267218
      2         11           0       -4.744459    0.675409   -0.647789
      3         11           0       -1.129025    2.167024   -0.502441
      4         11           0        1.397635   -0.652372    2.159728
      5         11           0       -2.649610   -1.618848    0.861579
      6         11           0        3.698129   -0.772353   -1.138620
      7         11           0        0.853602   -2.681264   -0.999675
 ---------------------------------------------------------------------

 SCF Done:  E(UB3LYP) =  -1136.11363961     A.U. after   21 cycles

 The electronic state is 2-A.
 Alpha  occ. eigenvalues --  -38.45186 -38.45069 -38.44682 -38.44443 -38.44268
 Alpha  occ. eigenvalues --  -38.44105 -38.43772  -2.20898  -2.20831  -2.20442
 Alpha  occ. eigenvalues --   -2.20224  -2.20071  -2.19878  -2.19518  -1.14611
 Alpha  occ. eigenvalues --   -1.14591  -1.14501  -1.14489  -1.14476  -1.14451
 Alpha  occ. eigenvalues --   -1.14132  -1.14116  -1.14069  -1.13887  -1.13876
 Alpha  occ. eigenvalues --   -1.13845  -1.13739  -1.13709  -1.13690  -1.13568
 Alpha  occ. eigenvalues --   -1.13532  -1.13516  -1.13196  -1.13175  -1.13165
 Alpha  occ. eigenvalues --   -0.16325  -0.13711  -0.11762  -0.10576
 Alpha virt. eigenvalues --   -0.06846  -0.06201  -0.04667  -0.03430  -0.02928
 Alpha virt. eigenvalues --   -0.02457  -0.02170  -0.01984  -0.01102  -0.00947
 Alpha virt. eigenvalues --   -0.00388  -0.00049   0.00198   0.00288   0.00564

  Beta  occ. eigenvalues --  -38.45190 -38.45009 -38.44671 -38.44410 -38.44192
  Beta  occ. eigenvalues --  -38.44101 -38.43772  -2.20905  -2.20720  -2.20424
  Beta  occ. eigenvalues --   -2.20163  -2.19931  -2.19875  -2.19518  -1.14617
  Beta  occ. eigenvalues --   -1.14592  -1.14490  -1.14420  -1.14400  -1.14369
  Beta  occ. eigenvalues --   -1.14122  -1.14105  -1.14038  -1.13844  -1.13834
  Beta  occ. eigenvalues --   -1.13806  -1.13642  -1.13623  -1.13590  -1.13569
  Beta  occ. eigenvalues --   -1.13532  -1.13479  -1.13192  -1.13176  -1.13163
  Beta  occ. eigenvalues --   -0.15772  -0.13243  -0.11614
  Beta virt. eigenvalues --   -0.07108  -0.06677  -0.05936  -0.04191  -0.03221
  Beta virt. eigenvalues --   -0.02525  -0.02277  -0.01816  -0.01512  -0.00958
  Beta virt. eigenvalues --   -0.00556  -0.00314   0.00110   0.00280   0.00405

 Mulliken charges and spin densities:
               1          2
     1  Na   0.077244   0.009983
     2  Na   0.582196   0.173673
     3  Na  -0.449780  -0.028205
     4  Na  -0.114732   0.411509
     5  Na  -0.312078   0.035296
     6  Na   0.160340   0.376248
     7  Na   0.056809   0.021496
 Sum of Mulliken charges =  -0.00000   1.00000

 Dipole moment (field-independent basis, Debye):
    X=             -0.6860    Y=             -0.1204    Z=              0.1841  Tot=              0.7205
 Quadrupole moment (field-independent basis, Debye-Ang):
   XX=            -57.0312   YY=            -72.4914   ZZ=            -69.9650
   XY=              3.2638   XZ=              3.7732   YZ=             -1.3398

 Normal termination of Gaussian 16 at Sun Dec  3 20:46:37 2023.
