 Gaussian 16, Revision B.01,
 Gaussian 16:  ES64L-G16RevB.01 20-Dec-2017

 -------------------------
 #P B3LYP/6-311+g(d) force
 -------------------------

 -----
 DPGEN
 -----
 Symbolic Z-matrix:
 Charge =  0 Multiplicity = 2

                         Standard orientation:
 ---------------------------------------------------------------------
 Center     Atomic      Atomic             Coordinates (Angstroms)
 Number     Number       Type             X           Y           Z
 ---------------------------------------------------------------------
      1         11           0        0.366653    3.044780    0.078712
      2         11           0        0.358590   -0.021044    1.868771
      3         11           0        1.945886   -2.541118    0.002608
      4         11           0       -0.230485   -0.000011   -1.721180
      5         11           0        2.571721    0.713570   -0.326351
      6         11           0       -2.208841   -2.274700    0.019666
      7         11           0       -2.803524    1.078522    0.077774
 ---------------------------------------------------------------------

 SCF Done:  E(UB3LYP) =  -1136.13818621     A.U. after   19 cycles

 The electronic state is 2-A.
 Alpha  occ. eigenvalues --  -38.43974 -38.43829 -38.43709 -38.43383 -38.43366
 Alpha  occ. eigenvalues --  -38.43326 -38.43171  -2.19785  -2.19673  -2.19533
 Alpha  occ. eigenvalues --   -2.19320  -2.19261  -2.19244  -2.19140  -1.13463
 Alpha  occ. eigenvalues --   -1.13455  -1.13427  -1.13361  -1.13335  -1.13292
 Alpha  occ. eigenvalues --   -1.13212  -1.13201  -1.13179  -1.13075  -1.13013
 Alpha  occ. eigenvalues --   -1.12975  -1.12924  -1.12906  -1.12893  -1.12873
 Alpha  occ. eigenvalues --   -1.12863  -1.12856  -1.12813  -1.12767  -1.12748
 Alpha  occ. eigenvalues --   -0.18813  -0.13066  -0.12526  -0.10623
 Alpha virt. eigenvalues --   -0.05517  -0.05116  -0.04908  -0.03162  -0.02831
 Alpha virt. eigenvalues --   -0.02398  -0.01370  -0.01307  -0.00432  -0.00234
 Alpha virt. eigenvalues --    0.00012   0.00364   0.00811   0.00875   0.00911

  Beta  occ. eigenvalues --  -38.43973 -38.43825 -38.43707 -38.43379 -38.43351
  Beta  occ. eigenvalues --  -38.43243 -38.43097  -2.19785  -2.19668  -2.19533
  Beta  occ. eigenvalues --   -2.19298  -2.19240  -2.19108  -2.19005  -1.13460
  Beta  occ. eigenvalues --   -1.13445  -1.13428  -1.13352  -1.13317  -1.13293
  Beta  occ. eigenvalues --   -1.13214  -1.13184  -1.13176  -1.13053  -1.12967
  Beta  occ. eigenvalues --   -1.12948  -1.12894  -1.12873  -1.12858  -1.12827
  Beta  occ. eigenvalues --   -1.12774  -1.12750  -1.12724  -1.12669  -1.12653
  Beta  occ. eigenvalues --   -0.18066  -0.12828  -0.12298
  Beta virt. eigenvalues --   -0.06695  -0.05532  -0.05036  -0.04907  -0.02355
  Beta virt. eigenvalues --   -0.02084  -0.01366  -0.01281  -0.01232  -0.00484
  Beta virt. eigenvalues --   -0.00274   0.00145   0.00384   0.00820   0.00885

 Mulliken charges and spin densities:
               1          2
     1  Na   0.131543  -0.050311
     2  Na  -0.460071   0.787778
     3  Na   0.042017  -0.132816
     4  Na  -0.168808   0.564364
     5  Na   0.422628   0.061970
     6  Na  -0.041242  -0.147650
     7  Na   0.073934  -0.083335
 Sum of Mulliken charges =  -0.00000   1.00000

 Dipole moment (field-independent basis, Debye):
    X=             -0.3240    Y=             -0.2551    Z=              0.0877  Tot=              0.4215
 Quadrupole moment (field-independent basis, Debye-Ang):
   XX=            -60.0333   YY=            -57.8930   ZZ=            -75.0249
   XY=             -0.5667   XZ=             -1.2290   YZ=              0.1052

 Normal termination of Gaussian 16 at Tue Dec  5 17:24:12 2023.
