 Gaussian 16, Revision B.01,
 Gaussian 16:  ES64L-G16RevB.01 20-Dec-2017

 -------------------------
 #P B3LYP/6-311+g(d) force
 -------------------------

 -----
 DPGEN
 -----
 Symbolic Z-matrix:
 Charge =  0 Multiplicity = 2

                         Standard orientation:
 ---------------------------------------------------------------------
 Center     Atomic      Atomic             Coordinates (Angstroms)
 Number     Number       Type             X           Y           Z
 ---------------------------------------------------------------------
      1         11           0        0.062997    0.008849   -1.591070
      2         11           0        2.564623   -1.994649   -0.685659
      3         11           0       -1.647608   -2.468279   -0.074191
      4         11           0        0.250487   -0.740806    2.073195
      5         11           0        2.731994    1.729064    0.483212
      6         11           0       -0.642136    2.993683   -0.293211
      7         11           0       -3.320357    0.472138    0.087723
 ---------------------------------------------------------------------

 SCF Done:  E(UB3LYP) =  -1136.13404742     A.U. after   19 cycles

 The electronic state is 2-A.
 Alpha  occ. eigenvalues --  -38.44290 -38.44239 -38.44068 -38.43801 -38.43690
 Alpha  occ. eigenvalues --  -38.43313 -38.43260  -2.20085  -2.20022  -2.19873
 Alpha  occ. eigenvalues --   -2.19653  -2.19545  -2.19204  -2.19123  -1.13763
 Alpha  occ. eigenvalues --   -1.13743  -1.13730  -1.13697  -1.13676  -1.13660
 Alpha  occ. eigenvalues --   -1.13558  -1.13516  -1.13508  -1.13331  -1.13298
 Alpha  occ. eigenvalues --   -1.13270  -1.13230  -1.13199  -1.13165  -1.12897
 Alpha  occ. eigenvalues --   -1.12875  -1.12829  -1.12792  -1.12776  -1.12747
 Alpha  occ. eigenvalues --   -0.18069  -0.12937  -0.12295  -0.10618
 Alpha virt. eigenvalues --   -0.05814  -0.05637  -0.04626  -0.03215  -0.02836
 Alpha virt. eigenvalues --   -0.02469  -0.01721  -0.01354  -0.00567  -0.00500
 Alpha virt. eigenvalues --   -0.00037   0.00321   0.00716   0.00786   0.00830

  Beta  occ. eigenvalues --  -38.44292 -38.44228 -38.44046 -38.43716 -38.43685
  Beta  occ. eigenvalues --  -38.43312 -38.43201  -2.20090  -2.20002  -2.19835
  Beta  occ. eigenvalues --   -2.19540  -2.19495  -2.19123  -2.19097  -1.13761
  Beta  occ. eigenvalues --   -1.13746  -1.13728  -1.13669  -1.13662  -1.13651
  Beta  occ. eigenvalues --   -1.13519  -1.13488  -1.13480  -1.13257  -1.13208
  Beta  occ. eigenvalues --   -1.13198  -1.13170  -1.13161  -1.13135  -1.12844
  Beta  occ. eigenvalues --   -1.12813  -1.12783  -1.12760  -1.12746  -1.12726
  Beta  occ. eigenvalues --   -0.17398  -0.12723  -0.12054
  Beta virt. eigenvalues --   -0.06791  -0.05747  -0.05534  -0.04537  -0.02522
  Beta virt. eigenvalues --   -0.02193  -0.01612  -0.01467  -0.01228  -0.00599
  Beta virt. eigenvalues --   -0.00514   0.00121   0.00369   0.00787   0.00803

 Mulliken charges and spin densities:
               1          2
     1  Na   0.040651   0.416330
     2  Na   0.144754   0.007062
     3  Na   0.351339   0.009341
     4  Na  -0.349105   0.601622
     5  Na  -0.095237   0.061745
     6  Na   0.019811  -0.046608
     7  Na  -0.112212  -0.049493
 Sum of Mulliken charges =  -0.00000   1.00000

 Dipole moment (field-independent basis, Debye):
    X=              0.0705    Y=             -0.1710    Z=              0.2073  Tot=              0.2778
 Quadrupole moment (field-independent basis, Debye-Ang):
   XX=            -54.7306   YY=            -63.5650   ZZ=            -75.0092
   XY=             -0.2059   XZ=             -0.2625   YZ=              1.7935

 Normal termination of Gaussian 16 at Thu Dec  7 23:04:42 2023.
