 Gaussian 16, Revision B.01,
 Gaussian 16:  ES64L-G16RevB.01 20-Dec-2017

 -------------------------
 #P B3LYP/6-311+g(d) force
 -------------------------

 -----
 DPGEN
 -----
 Symbolic Z-matrix:
 Charge =  0 Multiplicity = 2

                         Standard orientation:
 ---------------------------------------------------------------------
 Center     Atomic      Atomic             Coordinates (Angstroms)
 Number     Number       Type             X           Y           Z
 ---------------------------------------------------------------------
      1         11           0       -1.021927   -2.630817   -0.455658
      2         11           0       -1.100551    2.686104    0.152466
      3         11           0        0.060225    0.465562   -1.702845
      4         11           0        0.157093   -0.592115    1.910080
      5         11           0        2.588115   -1.817640   -0.103956
      6         11           0       -3.026338   -0.113693    0.129389
      7         11           0        2.343384    2.002599    0.070524
 ---------------------------------------------------------------------

 SCF Done:  E(UB3LYP) =  -1136.13910271     A.U. after   19 cycles

 The electronic state is 2-A.
 Alpha  occ. eigenvalues --  -38.43906 -38.43889 -38.43570 -38.43514 -38.43511
 Alpha  occ. eigenvalues --  -38.43347 -38.43146  -2.19723  -2.19719  -2.19433
 Alpha  occ. eigenvalues --   -2.19393  -2.19387  -2.19258  -2.19119  -1.13415
 Alpha  occ. eigenvalues --   -1.13403  -1.13387  -1.13381  -1.13364  -1.13342
 Alpha  occ. eigenvalues --   -1.13147  -1.13134  -1.13099  -1.13087  -1.13065
 Alpha  occ. eigenvalues --   -1.13059  -1.13039  -1.13006  -1.12992  -1.12925
 Alpha  occ. eigenvalues --   -1.12883  -1.12874  -1.12790  -1.12742  -1.12737
 Alpha  occ. eigenvalues --   -0.18734  -0.12877  -0.12770  -0.10601
 Alpha virt. eigenvalues --   -0.05536  -0.05215  -0.04803  -0.03125  -0.03036
 Alpha virt. eigenvalues --   -0.02365  -0.01372  -0.01220  -0.00353  -0.00326
 Alpha virt. eigenvalues --    0.00002   0.00373   0.00830   0.00863   0.00913

  Beta  occ. eigenvalues --  -38.43904 -38.43886 -38.43566 -38.43506 -38.43501
  Beta  occ. eigenvalues --  -38.43267 -38.43078  -2.19721  -2.19716  -2.19429
  Beta  occ. eigenvalues --   -2.19380  -2.19372  -2.19112  -2.18995  -1.13409
  Beta  occ. eigenvalues --   -1.13391  -1.13372  -1.13367  -1.13364  -1.13343
  Beta  occ. eigenvalues --   -1.13141  -1.13128  -1.13082  -1.13063  -1.13051
  Beta  occ. eigenvalues --   -1.13018  -1.13015  -1.13000  -1.12986  -1.12830
  Beta  occ. eigenvalues --   -1.12781  -1.12767  -1.12707  -1.12654  -1.12647
  Beta  occ. eigenvalues --   -0.18007  -0.12647  -0.12544
  Beta virt. eigenvalues --   -0.06713  -0.05540  -0.05178  -0.04725  -0.02347
  Beta virt. eigenvalues --   -0.02269  -0.01361  -0.01275  -0.01151  -0.00389
  Beta virt. eigenvalues --   -0.00370   0.00142   0.00398   0.00853   0.00877

 Mulliken charges and spin densities:
               1          2
     1  Na   0.192462  -0.003577
     2  Na   0.156940  -0.027623
     3  Na  -0.210251   0.547638
     4  Na  -0.466344   0.732035
     5  Na   0.113864  -0.120829
     6  Na   0.130586  -0.005107
     7  Na   0.082742  -0.122537
 Sum of Mulliken charges =  -0.00000   1.00000

 Dipole moment (field-independent basis, Debye):
    X=              0.2998    Y=              0.0001    Z=              0.0850  Tot=              0.3116
 Quadrupole moment (field-independent basis, Debye-Ang):
   XX=            -57.5897   YY=            -61.1000   ZZ=            -74.6180
   XY=             -0.1594   XZ=             -0.3585   YZ=              2.2637

 Normal termination of Gaussian 16 at Thu Dec  7 22:03:18 2023.
