 Gaussian 16, Revision B.01,
 Gaussian 16:  ES64L-G16RevB.01 20-Dec-2017

 -------------------------
 #P B3LYP/6-311+g(d) force
 -------------------------

 -----
 DPGEN
 -----
 Symbolic Z-matrix:
 Charge =  0 Multiplicity = 2

                         Standard orientation:
 ---------------------------------------------------------------------
 Center     Atomic      Atomic             Coordinates (Angstroms)
 Number     Number       Type             X           Y           Z
 ---------------------------------------------------------------------
      1         11           0       -2.324494    1.939592    0.256995
      2         11           0        1.334275    2.847956   -0.109971
      3         11           0        0.832569   -2.897268    0.163259
      4         11           0        3.232326   -0.286203   -0.329984
      5         11           0        0.067626   -0.266858    2.133016
      6         11           0        0.072175   -0.071356   -1.601219
      7         11           0       -3.214477   -1.265862   -0.512097
 ---------------------------------------------------------------------

 SCF Done:  E(UB3LYP) =  -1136.13592289     A.U. after   19 cycles

 The electronic state is 2-A.
 Alpha  occ. eigenvalues --  -38.44355 -38.44176 -38.43822 -38.43752 -38.43479
 Alpha  occ. eigenvalues --  -38.43434 -38.43297  -2.20172  -2.19964  -2.19641
 Alpha  occ. eigenvalues --   -2.19614  -2.19404  -2.19271  -2.19101  -1.13856
 Alpha  occ. eigenvalues --   -1.13830  -1.13799  -1.13633  -1.13622  -1.13604
 Alpha  occ. eigenvalues --   -1.13319  -1.13314  -1.13278  -1.13269  -1.13239
 Alpha  occ. eigenvalues --   -1.13234  -1.13102  -1.13058  -1.13025  -1.12943
 Alpha  occ. eigenvalues --   -1.12933  -1.12899  -1.12779  -1.12763  -1.12740
 Alpha  occ. eigenvalues --   -0.18140  -0.13067  -0.12111  -0.10690
 Alpha virt. eigenvalues --   -0.05905  -0.05260  -0.04769  -0.03193  -0.02796
 Alpha virt. eigenvalues --   -0.02568  -0.01816  -0.01186  -0.00611  -0.00467
 Alpha virt. eigenvalues --   -0.00054   0.00315   0.00732   0.00810   0.00842

  Beta  occ. eigenvalues --  -38.44346 -38.44164 -38.43817 -38.43650 -38.43428
  Beta  occ. eigenvalues --  -38.43428 -38.43298  -2.20158  -2.19943  -2.19635
  Beta  occ. eigenvalues --   -2.19426  -2.19313  -2.19264  -2.19105  -1.13834
  Beta  occ. eigenvalues --   -1.13818  -1.13790  -1.13612  -1.13606  -1.13591
  Beta  occ. eigenvalues --   -1.13311  -1.13299  -1.13262  -1.13156  -1.13111
  Beta  occ. eigenvalues --   -1.13099  -1.13038  -1.13000  -1.12954  -1.12928
  Beta  occ. eigenvalues --   -1.12902  -1.12898  -1.12774  -1.12766  -1.12736
  Beta  occ. eigenvalues --   -0.17446  -0.12830  -0.11883
  Beta virt. eigenvalues --   -0.06849  -0.05810  -0.05209  -0.04688  -0.02498
  Beta virt. eigenvalues --   -0.02079  -0.01685  -0.01560  -0.01115  -0.00639
  Beta virt. eigenvalues --   -0.00490   0.00101   0.00363   0.00807   0.00819

 Mulliken charges and spin densities:
               1          2
     1  Na   0.071401   0.016871
     2  Na  -0.069794  -0.053106
     3  Na   0.153964  -0.034723
     4  Na   0.198953  -0.018727
     5  Na  -0.314701   0.667899
     6  Na  -0.102092   0.406020
     7  Na   0.062270   0.015766
 Sum of Mulliken charges =  -0.00000   1.00000

 Dipole moment (field-independent basis, Debye):
    X=              0.0678    Y=             -0.1980    Z=              0.0621  Tot=              0.2183
 Quadrupole moment (field-independent basis, Debye-Ang):
   XX=            -55.4565   YY=            -63.3014   ZZ=            -74.7087
   XY=              0.1890   XZ=             -0.0364   YZ=              1.0525

 Normal termination of Gaussian 16 at Thu Dec  7 22:32:02 2023.
