 Gaussian 16, Revision B.01,
 Gaussian 16:  ES64L-G16RevB.01 20-Dec-2017

 -------------------------
 #P B3LYP/6-311+g(d) force
 -------------------------

 -----
 DPGEN
 -----
 Symbolic Z-matrix:
 Charge =  0 Multiplicity = 2

                         Standard orientation:
 ---------------------------------------------------------------------
 Center     Atomic      Atomic             Coordinates (Angstroms)
 Number     Number       Type             X           Y           Z
 ---------------------------------------------------------------------
      1         11           0        4.508174   -0.245498    0.027343
      2         11           0        1.665114   -2.413488    1.198490
      3         11           0       -3.674233   -1.811180   -0.325026
      4         11           0       -0.997172   -3.009981   -0.835750
      5         11           0        2.662227    1.926882   -0.689859
      6         11           0       -0.828502    3.535164   -0.090081
      7         11           0       -3.335608    2.018101    0.714883
 ---------------------------------------------------------------------

 SCF Done:  E(UB3LYP) =  -1136.10638961     A.U. after   21 cycles

 The electronic state is 2-A.
 Alpha  occ. eigenvalues --  -38.45021 -38.44802 -38.44745 -38.44249 -38.44199
 Alpha  occ. eigenvalues --  -38.44058 -38.43804  -2.20812  -2.20633  -2.20567
 Alpha  occ. eigenvalues --   -2.20058  -2.20029  -2.19869  -2.19644  -1.14507
 Alpha  occ. eigenvalues --   -1.14474  -1.14456  -1.14449  -1.14285  -1.14262
 Alpha  occ. eigenvalues --   -1.14211  -1.14193  -1.14131  -1.13778  -1.13725
 Alpha  occ. eigenvalues --   -1.13705  -1.13690  -1.13677  -1.13650  -1.13534
 Alpha  occ. eigenvalues --   -1.13518  -1.13510  -1.13284  -1.13273  -1.13261
 Alpha  occ. eigenvalues --   -0.15910  -0.14065  -0.13493  -0.10595
 Alpha virt. eigenvalues --   -0.07535  -0.04805  -0.04343  -0.03735  -0.03349
 Alpha virt. eigenvalues --   -0.02388  -0.02226  -0.01656  -0.01186  -0.00897
 Alpha virt. eigenvalues --   -0.00503  -0.00169   0.00299   0.00346   0.00630

  Beta  occ. eigenvalues --  -38.45011 -38.44790 -38.44707 -38.44200 -38.44158
  Beta  occ. eigenvalues --  -38.44041 -38.43741  -2.20798  -2.20615  -2.20501
  Beta  occ. eigenvalues --   -2.20037  -2.19889  -2.19840  -2.19526  -1.14488
  Beta  occ. eigenvalues --   -1.14467  -1.14429  -1.14419  -1.14275  -1.14236
  Beta  occ. eigenvalues --   -1.14169  -1.14148  -1.14088  -1.13749  -1.13702
  Beta  occ. eigenvalues --   -1.13682  -1.13590  -1.13580  -1.13552  -1.13510
  Beta  occ. eigenvalues --   -1.13500  -1.13488  -1.13212  -1.13194  -1.13181
  Beta  occ. eigenvalues --   -0.15386  -0.13439  -0.12861
  Beta virt. eigenvalues --   -0.07597  -0.07292  -0.04484  -0.03944  -0.03418
  Beta virt. eigenvalues --   -0.02940  -0.02283  -0.01983  -0.01454  -0.01013
  Beta virt. eigenvalues --   -0.00553  -0.00257   0.00040   0.00328   0.00500

 Mulliken charges and spin densities:
               1          2
     1  Na   0.598326   0.004801
     2  Na  -0.299155   0.435091
     3  Na   0.214057   0.257402
     4  Na  -0.254197   0.028439
     5  Na  -0.283844   0.175511
     6  Na   0.255463   0.049653
     7  Na  -0.230651   0.049104
 Sum of Mulliken charges =  -0.00000   1.00000

 Dipole moment (field-independent basis, Debye):
    X=              0.6029    Y=              0.3610    Z=              0.1810  Tot=              0.7256
 Quadrupole moment (field-independent basis, Debye-Ang):
   XX=            -59.0880   YY=            -72.5334   ZZ=            -70.5568
   XY=             -4.1285   XZ=             -1.6562   YZ=             -0.2496

 Normal termination of Gaussian 16 at Sun Dec  3 14:31:20 2023.
