 Gaussian 16, Revision B.01,
 Gaussian 16:  ES64L-G16RevB.01 20-Dec-2017

 -------------------------
 #P B3LYP/6-311+g(d) force
 -------------------------

 -----
 DPGEN
 -----
 Symbolic Z-matrix:
 Charge =  0 Multiplicity = 2

                         Standard orientation:
 ---------------------------------------------------------------------
 Center     Atomic      Atomic             Coordinates (Angstroms)
 Number     Number       Type             X           Y           Z
 ---------------------------------------------------------------------
      1         11           0       -0.594279   -2.860563    0.229567
      2         11           0        2.508326   -1.480996   -0.712708
      3         11           0       -0.192710    0.237320   -1.282771
      4         11           0        2.378736    1.787238   -0.304607
      5         11           0       -3.359409   -0.308359   -0.526228
      6         11           0        0.388749   -0.172297    2.349219
      7         11           0       -1.129413    2.797657    0.247529
 ---------------------------------------------------------------------

 SCF Done:  E(UB3LYP) =  -1136.13508428     A.U. after   19 cycles

 The electronic state is 2-A.
 Alpha  occ. eigenvalues --  -38.44088 -38.44050 -38.43725 -38.43558 -38.43526
 Alpha  occ. eigenvalues --  -38.43429 -38.42849  -2.19936  -2.19845  -2.19556
 Alpha  occ. eigenvalues --   -2.19434  -2.19404  -2.19262  -2.18907  -1.13587
 Alpha  occ. eigenvalues --   -1.13563  -1.13547  -1.13533  -1.13496  -1.13474
 Alpha  occ. eigenvalues --   -1.13273  -1.13218  -1.13173  -1.13165  -1.13104
 Alpha  occ. eigenvalues --   -1.13092  -1.13073  -1.13040  -1.13008  -1.12939
 Alpha  occ. eigenvalues --   -1.12935  -1.12887  -1.12593  -1.12549  -1.12537
 Alpha  occ. eigenvalues --   -0.18518  -0.12801  -0.12472  -0.11015
 Alpha virt. eigenvalues --   -0.05568  -0.04956  -0.04790  -0.03069  -0.02950
 Alpha virt. eigenvalues --   -0.02793  -0.01507  -0.01130  -0.00406  -0.00255
 Alpha virt. eigenvalues --   -0.00037   0.00326   0.00807   0.00856   0.00897

  Beta  occ. eigenvalues --  -38.44041 -38.43974 -38.43722 -38.43551 -38.43508
  Beta  occ. eigenvalues --  -38.43425 -38.42813  -2.19829  -2.19726  -2.19552
  Beta  occ. eigenvalues --   -2.19424  -2.19373  -2.19257  -2.18843  -1.13513
  Beta  occ. eigenvalues --   -1.13485  -1.13465  -1.13447  -1.13422  -1.13395
  Beta  occ. eigenvalues --   -1.13270  -1.13202  -1.13169  -1.13152  -1.13094
  Beta  occ. eigenvalues --   -1.13069  -1.13049  -1.13012  -1.12989  -1.12937
  Beta  occ. eigenvalues --   -1.12909  -1.12885  -1.12538  -1.12507  -1.12486
  Beta  occ. eigenvalues --   -0.17826  -0.12517  -0.12283
  Beta virt. eigenvalues --   -0.07047  -0.05464  -0.04931  -0.04708  -0.02340
  Beta virt. eigenvalues --   -0.02253  -0.01720  -0.01399  -0.01068  -0.00385
  Beta virt. eigenvalues --   -0.00275   0.00127   0.00376   0.00848   0.00897

 Mulliken charges and spin densities:
               1          2
     1  Na   0.171851   0.103785
     2  Na   0.303590   0.087115
     3  Na  -0.410987  -0.119228
     4  Na   0.312903   0.070586
     5  Na   0.116016   0.047186
     6  Na  -0.561184   0.680060
     7  Na   0.067812   0.130498
 Sum of Mulliken charges =  -0.00000   1.00000

 Dipole moment (field-independent basis, Debye):
    X=             -0.1579    Y=              0.0875    Z=              0.3421  Tot=              0.3868
 Quadrupole moment (field-independent basis, Debye-Ang):
   XX=            -58.0300   YY=            -61.9995   ZZ=            -73.1716
   XY=              0.1619   XZ=             -0.8100   YZ=              1.2057

 Normal termination of Gaussian 16 at Fri Dec  8 07:07:18 2023.
