 Gaussian 16, Revision B.01,
 Gaussian 16:  ES64L-G16RevB.01 20-Dec-2017

 -------------------------
 #P B3LYP/6-311+g(d) force
 -------------------------

 -----
 DPGEN
 -----
 Symbolic Z-matrix:
 Charge =  0 Multiplicity = 2

                         Standard orientation:
 ---------------------------------------------------------------------
 Center     Atomic      Atomic             Coordinates (Angstroms)
 Number     Number       Type             X           Y           Z
 ---------------------------------------------------------------------
      1         11           0       -0.076437   -0.227826   -1.665628
      2         11           0        0.585357    2.277731    0.372344
      3         11           0       -2.135236    1.383102   -0.426691
      4         11           0       -2.029042   -1.514365    0.171134
      5         11           0        1.099750   -2.055877   -0.001474
      6         11           0       -0.072241   -0.159312    1.844934
      7         11           0        2.627849    0.296547   -0.294620
 ---------------------------------------------------------------------

 SCF Done:  E(UB3LYP) =  -1136.09841148     A.U. after   19 cycles

 The electronic state is 2-A.
 Alpha  occ. eigenvalues --  -38.44026 -38.43891 -38.43793 -38.43569 -38.43443
 Alpha  occ. eigenvalues --  -38.43442 -38.43156  -2.20189  -2.20140  -2.19838
 Alpha  occ. eigenvalues --   -2.19616  -2.19572  -2.19513  -2.19215  -1.14040
 Alpha  occ. eigenvalues --   -1.13951  -1.13892  -1.13850  -1.13817  -1.13773
 Alpha  occ. eigenvalues --   -1.13619  -1.13528  -1.13445  -1.13358  -1.13312
 Alpha  occ. eigenvalues --   -1.13250  -1.13210  -1.13170  -1.13164  -1.13150
 Alpha  occ. eigenvalues --   -1.13091  -1.13032  -1.12887  -1.12834  -1.12810
 Alpha  occ. eigenvalues --   -0.21191  -0.13736  -0.12953  -0.12072
 Alpha virt. eigenvalues --   -0.05069  -0.04458  -0.04145  -0.03652  -0.03225
 Alpha virt. eigenvalues --   -0.02902  -0.01028  -0.00597  -0.00075   0.00366
 Alpha virt. eigenvalues --    0.00687   0.00746   0.01016   0.01103   0.01132

  Beta  occ. eigenvalues --  -38.43928 -38.43806 -38.43783 -38.43555 -38.43431
  Beta  occ. eigenvalues --  -38.43427 -38.43143  -2.20012  -2.19988  -2.19825
  Beta  occ. eigenvalues --   -2.19595  -2.19551  -2.19496  -2.19196  -1.13955
  Beta  occ. eigenvalues --   -1.13843  -1.13769  -1.13748  -1.13702  -1.13678
  Beta  occ. eigenvalues --   -1.13602  -1.13508  -1.13394  -1.13345  -1.13294
  Beta  occ. eigenvalues --   -1.13200  -1.13185  -1.13150  -1.13099  -1.13092
  Beta  occ. eigenvalues --   -1.13077  -1.13025  -1.12868  -1.12808  -1.12780
  Beta  occ. eigenvalues --   -0.20398  -0.13374  -0.12612
  Beta virt. eigenvalues --   -0.07916  -0.05088  -0.04447  -0.04133  -0.02708
  Beta virt. eigenvalues --   -0.02319  -0.01770  -0.00955  -0.00555   0.00069
  Beta virt. eigenvalues --    0.00395   0.00659   0.00709   0.01065   0.01097

 Mulliken charges and spin densities:
               1          2
     1  Na  -0.355989   0.369928
     2  Na   0.302190   0.101303
     3  Na   0.035682   0.028519
     4  Na   0.238668   0.012847
     5  Na   0.238121   0.026086
     6  Na  -0.390580   0.476281
     7  Na  -0.068093  -0.014964
 Sum of Mulliken charges =  -0.00000   1.00000

 Dipole moment (field-independent basis, Debye):
    X=             -0.0508    Y=              0.0963    Z=              0.1273  Tot=              0.1675
 Quadrupole moment (field-independent basis, Debye-Ang):
   XX=            -60.5151   YY=            -67.5027   ZZ=            -69.2853
   XY=              0.3265   XZ=             -0.1201   YZ=             -0.3914

 Normal termination of Gaussian 16 at Thu Dec  7 15:39:28 2023.
