 Gaussian 16, Revision B.01,
 Gaussian 16:  ES64L-G16RevB.01 20-Dec-2017

 -------------------------
 #P B3LYP/6-311+g(d) force
 -------------------------

 -----
 DPGEN
 -----
 Symbolic Z-matrix:
 Charge =  0 Multiplicity = 2

                         Standard orientation:
 ---------------------------------------------------------------------
 Center     Atomic      Atomic             Coordinates (Angstroms)
 Number     Number       Type             X           Y           Z
 ---------------------------------------------------------------------
      1         11           0       -1.128197   -1.466487   -1.210591
      2         11           0       -0.487656   -0.464748    2.266513
      3         11           0        1.558499    0.184782   -1.830910
      4         11           0        2.286353    1.865267    0.729850
      5         11           0        2.167940   -2.226387    0.388998
      6         11           0       -3.604614   -0.022327    0.068095
      7         11           0       -0.792326    2.129900   -0.411954
 ---------------------------------------------------------------------

 SCF Done:  E(UB3LYP) =  -1136.13236566     A.U. after   21 cycles

 The electronic state is 2-A.
 Alpha  occ. eigenvalues --  -38.44732 -38.44277 -38.43693 -38.43551 -38.43408
 Alpha  occ. eigenvalues --  -38.43229 -38.42914  -2.20566  -2.20107  -2.19655
 Alpha  occ. eigenvalues --   -2.19414  -2.19329  -2.19050  -2.18805  -1.14228
 Alpha  occ. eigenvalues --   -1.14198  -1.14180  -1.13803  -1.13756  -1.13743
 Alpha  occ. eigenvalues --   -1.13375  -1.13337  -1.13258  -1.13078  -1.13068
 Alpha  occ. eigenvalues --   -1.13041  -1.13022  -1.12984  -1.12929  -1.12719
 Alpha  occ. eigenvalues --   -1.12712  -1.12693  -1.12509  -1.12487  -1.12403
 Alpha  occ. eigenvalues --   -0.18700  -0.13311  -0.11814  -0.11612
 Alpha virt. eigenvalues --   -0.05942  -0.04746  -0.04360  -0.03434  -0.03179
 Alpha virt. eigenvalues --   -0.03053  -0.01696  -0.00794  -0.00453   0.00104
 Alpha virt. eigenvalues --    0.00304   0.00329   0.00562   0.00779   0.00892

  Beta  occ. eigenvalues --  -38.44641 -38.44278 -38.43640 -38.43543 -38.43372
  Beta  occ. eigenvalues --  -38.43227 -38.42904  -2.20396  -2.20111  -2.19558
  Beta  occ. eigenvalues --   -2.19400  -2.19267  -2.19049  -2.18790  -1.14117
  Beta  occ. eigenvalues --   -1.14077  -1.14056  -1.13803  -1.13756  -1.13743
  Beta  occ. eigenvalues --   -1.13296  -1.13280  -1.13195  -1.13061  -1.13050
  Beta  occ. eigenvalues --   -1.13024  -1.12976  -1.12925  -1.12889  -1.12718
  Beta  occ. eigenvalues --   -1.12701  -1.12686  -1.12499  -1.12450  -1.12398
  Beta  occ. eigenvalues --   -0.17890  -0.13194  -0.11409
  Beta virt. eigenvalues --   -0.07769  -0.05731  -0.04730  -0.03786  -0.03142
  Beta virt. eigenvalues --   -0.02359  -0.02236  -0.01629  -0.00722  -0.00165
  Beta virt. eigenvalues --    0.00191   0.00304   0.00358   0.00748   0.00878

 Mulliken charges and spin densities:
               1          2
     1  Na  -0.277466   0.154117
     2  Na  -0.419747   0.587353
     3  Na   0.549164   0.145630
     4  Na   0.073421   0.075232
     5  Na  -0.093072  -0.020755
     6  Na   0.536516  -0.043175
     7  Na  -0.368816   0.101599
 Sum of Mulliken charges =  -0.00000   1.00000

 Dipole moment (field-independent basis, Debye):
    X=             -0.4746    Y=             -0.0244    Z=              0.5364  Tot=              0.7167
 Quadrupole moment (field-independent basis, Debye-Ang):
   XX=            -54.6271   YY=            -74.2769   ZZ=            -66.4221
   XY=             -0.3362   XZ=              0.6905   YZ=              0.0363

 Normal termination of Gaussian 16 at Thu Dec  7 09:07:32 2023.
