 Gaussian 16, Revision B.01,
 Gaussian 16:  ES64L-G16RevB.01 20-Dec-2017

 -------------------------
 #P B3LYP/6-311+g(d) force
 -------------------------

 -----
 DPGEN
 -----
 Symbolic Z-matrix:
 Charge =  0 Multiplicity = 2

                         Standard orientation:
 ---------------------------------------------------------------------
 Center     Atomic      Atomic             Coordinates (Angstroms)
 Number     Number       Type             X           Y           Z
 ---------------------------------------------------------------------
      1         11           0        1.604128    2.571567    0.384635
      2         11           0       -2.781644   -1.144368    0.218336
      3         11           0       -1.884603    2.208977   -0.488687
      4         11           0       -0.103753    0.136802    1.868734
      5         11           0        0.132027   -2.788175    0.069953
      6         11           0        2.950474   -0.935052   -0.200495
      7         11           0        0.083372   -0.049751   -1.852477
 ---------------------------------------------------------------------

 SCF Done:  E(UB3LYP) =  -1136.14121264     A.U. after   18 cycles

 The electronic state is 2-A.
 Alpha  occ. eigenvalues --  -38.43656 -38.43615 -38.43541 -38.43454 -38.43448
 Alpha  occ. eigenvalues --  -38.43443 -38.43273  -2.19491  -2.19447  -2.19402
 Alpha  occ. eigenvalues --   -2.19394  -2.19390  -2.19318  -2.19170  -1.13181
 Alpha  occ. eigenvalues --   -1.13164  -1.13157  -1.13136  -1.13130  -1.13101
 Alpha  occ. eigenvalues --   -1.13091  -1.13080  -1.13060  -1.13054  -1.13028
 Alpha  occ. eigenvalues --   -1.13025  -1.13015  -1.13012  -1.12995  -1.12979
 Alpha  occ. eigenvalues --   -1.12966  -1.12951  -1.12838  -1.12836  -1.12784
 Alpha  occ. eigenvalues --   -0.18851  -0.12787  -0.12710  -0.10995
 Alpha virt. eigenvalues --   -0.05232  -0.05063  -0.04797  -0.03162  -0.03097
 Alpha virt. eigenvalues --   -0.02669  -0.01299  -0.01156  -0.00283  -0.00125
 Alpha virt. eigenvalues --    0.00010   0.00370   0.00856   0.00906   0.00934

  Beta  occ. eigenvalues --  -38.43653 -38.43606 -38.43527 -38.43449 -38.43368
  Beta  occ. eigenvalues --  -38.43363 -38.43267  -2.19488  -2.19433  -2.19379
  Beta  occ. eigenvalues --   -2.19312  -2.19249  -2.19243  -2.19163  -1.13169
  Beta  occ. eigenvalues --   -1.13152  -1.13135  -1.13121  -1.13097  -1.13079
  Beta  occ. eigenvalues --   -1.13072  -1.13042  -1.13017  -1.13010  -1.12980
  Beta  occ. eigenvalues --   -1.12969  -1.12951  -1.12940  -1.12923  -1.12916
  Beta  occ. eigenvalues --   -1.12894  -1.12888  -1.12828  -1.12809  -1.12773
  Beta  occ. eigenvalues --   -0.18112  -0.12523  -0.12441
  Beta virt. eigenvalues --   -0.07084  -0.05217  -0.05027  -0.04758  -0.02367
  Beta virt. eigenvalues --   -0.02324  -0.01623  -0.01210  -0.01064  -0.00304
  Beta virt. eigenvalues --   -0.00179   0.00116   0.00388   0.00888   0.00905

 Mulliken charges and spin densities:
               1          2
     1  Na   0.033266  -0.063021
     2  Na   0.162923  -0.047768
     3  Na   0.146869  -0.005548
     4  Na  -0.282211   0.658754
     5  Na   0.129261  -0.070212
     6  Na   0.057720  -0.092485
     7  Na  -0.247827   0.620279
 Sum of Mulliken charges =  -0.00000   1.00000

 Dipole moment (field-independent basis, Debye):
    X=              0.0883    Y=              0.1222    Z=              0.0082  Tot=              0.1510
 Quadrupole moment (field-independent basis, Debye-Ang):
   XX=            -58.9233   YY=            -61.8505   ZZ=            -73.1079
   XY=              0.2107   XZ=              0.3438   YZ=             -0.4374

 Normal termination of Gaussian 16 at Thu Dec  7 02:53:32 2023.
