 Gaussian 16, Revision B.01,
 Gaussian 16:  ES64L-G16RevB.01 20-Dec-2017

 -------------------------
 #P B3LYP/6-311+g(d) force
 -------------------------

 -----
 DPGEN
 -----
 Symbolic Z-matrix:
 Charge =  0 Multiplicity = 2

                         Standard orientation:
 ---------------------------------------------------------------------
 Center     Atomic      Atomic             Coordinates (Angstroms)
 Number     Number       Type             X           Y           Z
 ---------------------------------------------------------------------
      1         11           0        1.442381   -2.449686    1.028163
      2         11           0        0.446155    3.617464   -0.062019
      3         11           0       -1.649877   -3.420862   -0.240017
      4         11           0       -4.771758   -0.545140   -0.284853
      5         11           0        4.215324   -1.342310   -0.786409
      6         11           0        3.245537    1.855560    0.180594
      7         11           0       -2.927763    2.284974    0.164541
 ---------------------------------------------------------------------

 SCF Done:  E(UB3LYP) =  -1136.11074310     A.U. after   21 cycles

 The electronic state is 2-A.
 Alpha  occ. eigenvalues --  -38.44975 -38.44845 -38.44819 -38.44595 -38.44564
 Alpha  occ. eigenvalues --  -38.44349 -38.43449  -2.20757  -2.20604  -2.20589
 Alpha  occ. eigenvalues --   -2.20369  -2.20329  -2.20162  -2.19253  -1.14445
 Alpha  occ. eigenvalues --   -1.14434  -1.14393  -1.14291  -1.14280  -1.14277
 Alpha  occ. eigenvalues --   -1.14269  -1.14242  -1.14216  -1.14030  -1.14009
 Alpha  occ. eigenvalues --   -1.14001  -1.13992  -1.13979  -1.13951  -1.13812
 Alpha  occ. eigenvalues --   -1.13804  -1.13788  -1.12910  -1.12908  -1.12892
 Alpha  occ. eigenvalues --   -0.15610  -0.13862  -0.13245  -0.10931
 Alpha virt. eigenvalues --   -0.07373  -0.05254  -0.04180  -0.03548  -0.03269
 Alpha virt. eigenvalues --   -0.02627  -0.02222  -0.01953  -0.01254  -0.00957
 Alpha virt. eigenvalues --   -0.00226  -0.00120   0.00051   0.00449   0.00593

  Beta  occ. eigenvalues --  -38.44965 -38.44837 -38.44804 -38.44550 -38.44512
  Beta  occ. eigenvalues --  -38.44291 -38.43409  -2.20744  -2.20593  -2.20568
  Beta  occ. eigenvalues --   -2.20287  -2.20235  -2.20054  -2.19180  -1.14441
  Beta  occ. eigenvalues --   -1.14427  -1.14347  -1.14288  -1.14277  -1.14267
  Beta  occ. eigenvalues --   -1.14259  -1.14204  -1.14167  -1.13975  -1.13957
  Beta  occ. eigenvalues --   -1.13937  -1.13931  -1.13916  -1.13878  -1.13739
  Beta  occ. eigenvalues --   -1.13731  -1.13718  -1.12860  -1.12858  -1.12845
  Beta  occ. eigenvalues --   -0.15078  -0.13141  -0.12415
  Beta virt. eigenvalues --   -0.07839  -0.07549  -0.04811  -0.03755  -0.03345
  Beta virt. eigenvalues --   -0.02876  -0.02400  -0.01978  -0.01776  -0.01079
  Beta virt. eigenvalues --   -0.00608  -0.00036   0.00117   0.00198   0.00424

 Mulliken charges and spin densities:
               1          2
     1  Na  -0.288927  -0.007826
     2  Na   0.297190   0.187284
     3  Na  -0.036634   0.249846
     4  Na   0.150548   0.127050
     5  Na   0.389970   0.268180
     6  Na  -0.197956   0.099406
     7  Na  -0.314192   0.076061
 Sum of Mulliken charges =  -0.00000   1.00000

 Dipole moment (field-independent basis, Debye):
    X=              0.2667    Y=             -0.6724    Z=             -0.1811  Tot=              0.7457
 Quadrupole moment (field-independent basis, Debye-Ang):
   XX=            -59.1757   YY=            -68.6458   ZZ=            -71.1550
   XY=              2.4281   XZ=              0.2288   YZ=              2.1382

 Normal termination of Gaussian 16 at Sun Dec  3 15:02:13 2023.
