 Gaussian 16, Revision B.01,
 Gaussian 16:  ES64L-G16RevB.01 20-Dec-2017

 -------------------------
 #P B3LYP/6-311+g(d) force
 -------------------------

 -----
 DPGEN
 -----
 Symbolic Z-matrix:
 Charge =  0 Multiplicity = 2

                         Standard orientation:
 ---------------------------------------------------------------------
 Center     Atomic      Atomic             Coordinates (Angstroms)
 Number     Number       Type             X           Y           Z
 ---------------------------------------------------------------------
      1         11           0        2.635025    1.591960   -0.817821
      2         11           0        5.453240    0.206448    1.179462
      3         11           0        3.729191   -1.810916   -0.052351
      4         11           0        0.566031   -1.107420   -0.916931
      5         11           0       -1.352358    1.779413    0.113397
      6         11           0       -3.748138   -0.095393    0.053822
      7         11           0       -7.282992   -0.564092    0.440422
 ---------------------------------------------------------------------

 SCF Done:  E(UB3LYP) =  -1136.10846943     A.U. after   33 cycles

 The electronic state is 2-A.
 Alpha  occ. eigenvalues --  -38.45721 -38.44503 -38.44460 -38.44428 -38.44206
 Alpha  occ. eigenvalues --  -38.44038 -38.43844  -2.21520  -2.20335  -2.20280
 Alpha  occ. eigenvalues --   -2.20191  -2.20114  -2.19909  -2.19656  -1.15219
 Alpha  occ. eigenvalues --   -1.15201  -1.15114  -1.14073  -1.14046  -1.13995
 Alpha  occ. eigenvalues --   -1.13946  -1.13918  -1.13899  -1.13862  -1.13862
 Alpha  occ. eigenvalues --   -1.13822  -1.13771  -1.13765  -1.13699  -1.13584
 Alpha  occ. eigenvalues --   -1.13576  -1.13500  -1.13352  -1.13329  -1.13257
 Alpha  occ. eigenvalues --   -0.17292  -0.14428  -0.11707  -0.10924
 Alpha virt. eigenvalues --   -0.07848  -0.05055  -0.04570  -0.03953  -0.02822
 Alpha virt. eigenvalues --   -0.02615  -0.02423  -0.01712  -0.01120  -0.00845
 Alpha virt. eigenvalues --   -0.00264  -0.00254  -0.00080   0.00289   0.00441

  Beta  occ. eigenvalues --  -38.45691 -38.44481 -38.44465 -38.44397 -38.44165
  Beta  occ. eigenvalues --  -38.43971 -38.43841  -2.21465  -2.20293  -2.20222
  Beta  occ. eigenvalues --   -2.20200  -2.20045  -2.19790  -2.19651  -1.15173
  Beta  occ. eigenvalues --   -1.15155  -1.15072  -1.14030  -1.14014  -1.13967
  Beta  occ. eigenvalues --   -1.13921  -1.13879  -1.13869  -1.13868  -1.13852
  Beta  occ. eigenvalues --   -1.13829  -1.13726  -1.13714  -1.13626  -1.13509
  Beta  occ. eigenvalues --   -1.13501  -1.13385  -1.13342  -1.13325  -1.13257
  Beta  occ. eigenvalues --   -0.16566  -0.14241  -0.11549
  Beta virt. eigenvalues --   -0.07733  -0.07032  -0.04562  -0.04326  -0.03781
  Beta virt. eigenvalues --   -0.02498  -0.02254  -0.01921  -0.01588  -0.00847
  Beta virt. eigenvalues --   -0.00814  -0.00168   0.00074   0.00147   0.00408

 Mulliken charges and spin densities:
               1          2
     1  Na  -0.251300   0.207445
     2  Na   0.300533   0.203124
     3  Na  -0.194484   0.094216
     4  Na   0.118674   0.462911
     5  Na   0.182488   0.206770
     6  Na   0.032228  -0.167533
     7  Na  -0.188139  -0.006934
 Sum of Mulliken charges =  -0.00000   1.00000

 Dipole moment (field-independent basis, Debye):
    X=              1.4724    Y=              0.5011    Z=              0.1058  Tot=              1.5589
 Quadrupole moment (field-independent basis, Debye-Ang):
   XX=            -59.3494   YY=            -69.0262   ZZ=            -70.7960
   XY=              1.3437   XZ=              0.9693   YZ=             -0.9019

 Normal termination of Gaussian 16 at Wed Nov 29 00:26:12 2023.
