 Gaussian 16, Revision B.01,
 Gaussian 16:  ES64L-G16RevB.01 20-Dec-2017

 -------------------------
 #P B3LYP/6-311+g(d) force
 -------------------------

 -----
 DPGEN
 -----
 Symbolic Z-matrix:
 Charge =  0 Multiplicity = 2

                         Standard orientation:
 ---------------------------------------------------------------------
 Center     Atomic      Atomic             Coordinates (Angstroms)
 Number     Number       Type             X           Y           Z
 ---------------------------------------------------------------------
      1         11           0        0.324079    1.516502   -0.271690
      2         11           0       -2.394209    3.554997    0.083442
      3         11           0       -3.101230    0.519146    0.104548
      4         11           0       -0.299868   -1.844082   -0.757524
      5         11           0        2.699516   -0.986041   -1.004000
      6         11           0       -2.965991   -3.168522    0.860799
      7         11           0        5.737703    0.407999    0.984425
 ---------------------------------------------------------------------

 SCF Done:  E(UB3LYP) =  -1136.12471117     A.U. after   20 cycles

 The electronic state is 2-A.
 Alpha  occ. eigenvalues --  -38.44961 -38.44453 -38.44188 -38.43971 -38.43562
 Alpha  occ. eigenvalues --  -38.43492 -38.43413  -2.20748  -2.20301  -2.20042
 Alpha  occ. eigenvalues --   -2.19813  -2.19402  -2.19315  -2.19288  -1.14377
 Alpha  occ. eigenvalues --   -1.14377  -1.14347  -1.14014  -1.13998  -1.13884
 Alpha  occ. eigenvalues --   -1.13741  -1.13735  -1.13682  -1.13466  -1.13461
 Alpha  occ. eigenvalues --   -1.13429  -1.13131  -1.13063  -1.13060  -1.13011
 Alpha  occ. eigenvalues --   -1.12995  -1.12959  -1.12950  -1.12923  -1.12863
 Alpha  occ. eigenvalues --   -0.17072  -0.13861  -0.12631  -0.11298
 Alpha virt. eigenvalues --   -0.05788  -0.05518  -0.04633  -0.04030  -0.02509
 Alpha virt. eigenvalues --   -0.02254  -0.01933  -0.01625  -0.01469  -0.00855
 Alpha virt. eigenvalues --   -0.00285  -0.00035   0.00210   0.00400   0.00676

  Beta  occ. eigenvalues --  -38.44819 -38.44437 -38.44178 -38.43969 -38.43559
  Beta  occ. eigenvalues --  -38.43473 -38.43391  -2.20483  -2.20273  -2.20024
  Beta  occ. eigenvalues --   -2.19809  -2.19405  -2.19279  -2.19254  -1.14197
  Beta  occ. eigenvalues --   -1.14197  -1.14170  -1.13995  -1.13978  -1.13863
  Beta  occ. eigenvalues --   -1.13728  -1.13723  -1.13669  -1.13461  -1.13459
  Beta  occ. eigenvalues --   -1.13426  -1.13111  -1.13068  -1.13043  -1.12989
  Beta  occ. eigenvalues --   -1.12975  -1.12935  -1.12926  -1.12896  -1.12823
  Beta  occ. eigenvalues --   -0.16734  -0.13207  -0.12237
  Beta virt. eigenvalues --   -0.07484  -0.05606  -0.05407  -0.04092  -0.03924
  Beta virt. eigenvalues --   -0.02197  -0.01998  -0.01453  -0.01430  -0.01044
  Beta virt. eigenvalues --   -0.00565   0.00060   0.00114   0.00364   0.00544

 Mulliken charges and spin densities:
               1          2
     1  Na  -1.247453  -0.066876
     2  Na   1.240641   0.019434
     3  Na  -0.573577   0.167025
     4  Na  -1.089755  -0.016811
     5  Na   0.463725  -0.008282
     6  Na   1.074238   0.169874
     7  Na   0.132182   0.735636
 Sum of Mulliken charges =  -0.00000   1.00000

 Dipole moment (field-independent basis, Debye):
    X=             -0.6686    Y=              0.8971    Z=              0.1833  Tot=              1.1338
 Quadrupole moment (field-independent basis, Debye-Ang):
   XX=            -67.2143   YY=            -60.0582   ZZ=            -71.0981
   XY=             -2.2713   XZ=             -1.0194   YZ=              0.2699

 Normal termination of Gaussian 16 at Wed Nov 29 03:10:24 2023.
