 Gaussian 16, Revision B.01,
 Gaussian 16:  ES64L-G16RevB.01 20-Dec-2017

 -------------------------
 #P B3LYP/6-311+g(d) force
 -------------------------

 -----
 DPGEN
 -----
 Symbolic Z-matrix:
 Charge =  0 Multiplicity = 2

                         Standard orientation:
 ---------------------------------------------------------------------
 Center     Atomic      Atomic             Coordinates (Angstroms)
 Number     Number       Type             X           Y           Z
 ---------------------------------------------------------------------
      1         11           0        2.726825   -1.610081    0.054514
      2         11           0       -0.708849   -2.537192    0.182225
      3         11           0        2.439557    1.932244   -0.005705
      4         11           0        0.275880   -0.157275   -1.789744
      5         11           0       -0.214648    0.243952    1.909848
      6         11           0       -1.377436    2.641722   -0.116168
      7         11           0       -3.141328   -0.513369   -0.234971
 ---------------------------------------------------------------------

 SCF Done:  E(UB3LYP) =  -1136.13872408     A.U. after   19 cycles

 The electronic state is 2-A.
 Alpha  occ. eigenvalues --  -38.44079 -38.43974 -38.43875 -38.43472 -38.43361
 Alpha  occ. eigenvalues --  -38.43339 -38.42980  -2.19923  -2.19789  -2.19706
 Alpha  occ. eigenvalues --   -2.19302  -2.19288  -2.19283  -2.18902  -1.13604
 Alpha  occ. eigenvalues --   -1.13583  -1.13564  -1.13469  -1.13461  -1.13424
 Alpha  occ. eigenvalues --   -1.13383  -1.13363  -1.13344  -1.13015  -1.12989
 Alpha  occ. eigenvalues --   -1.12973  -1.12955  -1.12931  -1.12919  -1.12905
 Alpha  occ. eigenvalues --   -1.12896  -1.12893  -1.12586  -1.12562  -1.12524
 Alpha  occ. eigenvalues --   -0.18734  -0.13117  -0.12362  -0.10698
 Alpha virt. eigenvalues --   -0.05694  -0.05415  -0.04404  -0.03218  -0.02876
 Alpha virt. eigenvalues --   -0.02478  -0.01619  -0.01174  -0.00409  -0.00187
 Alpha virt. eigenvalues --   -0.00014   0.00359   0.00766   0.00863   0.00919

  Beta  occ. eigenvalues --  -38.44074 -38.43972 -38.43873 -38.43468 -38.43275
  Beta  occ. eigenvalues --  -38.43267 -38.42969  -2.19917  -2.19787  -2.19705
  Beta  occ. eigenvalues --   -2.19297  -2.19152  -2.19128  -2.18887  -1.13603
  Beta  occ. eigenvalues --   -1.13564  -1.13555  -1.13463  -1.13445  -1.13425
  Beta  occ. eigenvalues --   -1.13375  -1.13350  -1.13346  -1.12992  -1.12952
  Beta  occ. eigenvalues --   -1.12930  -1.12897  -1.12854  -1.12828  -1.12799
  Beta  occ. eigenvalues --   -1.12798  -1.12786  -1.12577  -1.12520  -1.12511
  Beta  occ. eigenvalues --   -0.17988  -0.12898  -0.12116
  Beta virt. eigenvalues --   -0.06788  -0.05661  -0.05397  -0.04383  -0.02439
  Beta virt. eigenvalues --   -0.02079  -0.01531  -0.01426  -0.01118  -0.00469
  Beta virt. eigenvalues --   -0.00226   0.00122   0.00379   0.00819   0.00862

 Mulliken charges and spin densities:
               1          2
     1  Na   0.172555  -0.075566
     2  Na   0.295144  -0.012894
     3  Na   0.052169  -0.152132
     4  Na  -0.326439   0.685147
     5  Na  -0.354869   0.722331
     6  Na   0.055911  -0.137898
     7  Na   0.105530  -0.028988
 Sum of Mulliken charges =  -0.00000   1.00000

 Dipole moment (field-independent basis, Debye):
    X=              0.1508    Y=              0.1976    Z=             -0.0106  Tot=              0.2488
 Quadrupole moment (field-independent basis, Debye-Ang):
   XX=            -54.4460   YY=            -64.1623   ZZ=            -74.4134
   XY=             -0.2416   XZ=              1.2886   YZ=             -0.8706

 Normal termination of Gaussian 16 at Fri Dec  8 06:54:51 2023.
