 Gaussian 16, Revision B.01,
 Gaussian 16:  ES64L-G16RevB.01 20-Dec-2017

 -------------------------
 #P B3LYP/6-311+g(d) force
 -------------------------

 -----
 DPGEN
 -----
 Symbolic Z-matrix:
 Charge =  0 Multiplicity = 2

                         Standard orientation:
 ---------------------------------------------------------------------
 Center     Atomic      Atomic             Coordinates (Angstroms)
 Number     Number       Type             X           Y           Z
 ---------------------------------------------------------------------
      1         11           0        2.730387    1.953722   -0.813328
      2         11           0        0.055937    2.671370    1.740590
      3         11           0        1.893210   -2.769167    0.358419
      4         11           0       -2.303583   -1.613581    0.579881
      5         11           0       -4.953139   -0.502126   -0.337310
      6         11           0       -1.787154    1.232079   -1.264677
      7         11           0        4.364341   -0.972296   -0.263576
 ---------------------------------------------------------------------

 SCF Done:  E(UB3LYP) =  -1136.11116678     A.U. after   22 cycles

 The electronic state is 2-A.
 Alpha  occ. eigenvalues --  -38.45793 -38.44718 -38.44409 -38.44281 -38.44204
 Alpha  occ. eigenvalues --  -38.43503 -38.43243  -2.21562  -2.20562  -2.20192
 Alpha  occ. eigenvalues --   -2.20059  -2.20032  -2.19301  -2.19077  -1.15271
 Alpha  occ. eigenvalues --   -1.15247  -1.15146  -1.14250  -1.14237  -1.14220
 Alpha  occ. eigenvalues --   -1.13881  -1.13857  -1.13799  -1.13716  -1.13705
 Alpha  occ. eigenvalues --   -1.13695  -1.13695  -1.13665  -1.13656  -1.12990
 Alpha  occ. eigenvalues --   -1.12967  -1.12943  -1.12734  -1.12732  -1.12709
 Alpha  occ. eigenvalues --   -0.16421  -0.14209  -0.11974  -0.10344
 Alpha virt. eigenvalues --   -0.06650  -0.06143  -0.04701  -0.03132  -0.02993
 Alpha virt. eigenvalues --   -0.02618  -0.02185  -0.01592  -0.00924  -0.00721
 Alpha virt. eigenvalues --   -0.00336  -0.00176   0.00133   0.00395   0.00530

  Beta  occ. eigenvalues --  -38.45789 -38.44701 -38.44364 -38.44270 -38.44155
  Beta  occ. eigenvalues --  -38.43468 -38.43233  -2.21556  -2.20535  -2.20111
  Beta  occ. eigenvalues --   -2.20012  -2.19966  -2.19235  -2.19060  -1.15264
  Beta  occ. eigenvalues --   -1.15242  -1.15139  -1.14228  -1.14207  -1.14184
  Beta  occ. eigenvalues --   -1.13827  -1.13806  -1.13727  -1.13691  -1.13677
  Beta  occ. eigenvalues --   -1.13655  -1.13643  -1.13631  -1.13606  -1.12953
  Beta  occ. eigenvalues --   -1.12923  -1.12894  -1.12725  -1.12716  -1.12681
  Beta  occ. eigenvalues --   -0.15981  -0.13736  -0.11784
  Beta virt. eigenvalues --   -0.06913  -0.06564  -0.05672  -0.04056  -0.03031
  Beta virt. eigenvalues --   -0.02814  -0.02282  -0.01810  -0.01434  -0.00660
  Beta virt. eigenvalues --   -0.00578  -0.00046   0.00041   0.00205   0.00592

 Mulliken charges and spin densities:
               1          2
     1  Na  -0.257962   0.324561
     2  Na   0.166466   0.061529
     3  Na  -0.353164   0.110141
     4  Na  -0.436677   0.189105
     5  Na   0.810633   0.301487
     6  Na  -0.197698  -0.088336
     7  Na   0.268402   0.101512
 Sum of Mulliken charges =  -0.00000   1.00000

 Dipole moment (field-independent basis, Debye):
    X=             -1.8479    Y=              1.0543    Z=             -0.0382  Tot=              2.1279
 Quadrupole moment (field-independent basis, Debye-Ang):
   XX=            -65.0529   YY=            -73.2583   ZZ=            -64.5448
   XY=             -0.0123   XZ=              0.5704   YZ=             -1.0497

 Normal termination of Gaussian 16 at Sun Dec  3 16:14:12 2023.
