 Gaussian 16, Revision B.01,
 Gaussian 16:  ES64L-G16RevB.01 20-Dec-2017

 -------------------------
 #P B3LYP/6-311+g(d) force
 -------------------------

 -----
 DPGEN
 -----
 Symbolic Z-matrix:
 Charge =  0 Multiplicity = 2

                         Standard orientation:
 ---------------------------------------------------------------------
 Center     Atomic      Atomic             Coordinates (Angstroms)
 Number     Number       Type             X           Y           Z
 ---------------------------------------------------------------------
      1         11           0        0.596113   -2.167164    0.448851
      2         11           0        2.008442    1.622326    0.799851
      3         11           0       -1.450051   -0.237428    1.867141
      4         11           0       -1.207329    3.456004   -0.527857
      5         11           0       -0.100735   -0.021502   -1.155689
      6         11           0        3.333170   -1.009318   -0.687024
      7         11           0       -3.179610   -1.642918   -0.745274
 ---------------------------------------------------------------------

 SCF Done:  E(UB3LYP) =  -1136.12191316     A.U. after   20 cycles

 The electronic state is 2-A.
 Alpha  occ. eigenvalues --  -38.44420 -38.44147 -38.43830 -38.43783 -38.43694
 Alpha  occ. eigenvalues --  -38.43442 -38.43399  -2.20226  -2.19985  -2.19818
 Alpha  occ. eigenvalues --   -2.19652  -2.19479  -2.19446  -2.19319  -1.13896
 Alpha  occ. eigenvalues --   -1.13883  -1.13847  -1.13749  -1.13690  -1.13656
 Alpha  occ. eigenvalues --   -1.13599  -1.13495  -1.13418  -1.13303  -1.13299
 Alpha  occ. eigenvalues --   -1.13264  -1.13170  -1.13124  -1.13110  -1.13085
 Alpha  occ. eigenvalues --   -1.13069  -1.13061  -1.13006  -1.12942  -1.12909
 Alpha  occ. eigenvalues --   -0.18589  -0.13342  -0.11971  -0.10390
 Alpha virt. eigenvalues --   -0.06224  -0.05455  -0.04358  -0.03244  -0.02523
 Alpha virt. eigenvalues --   -0.02132  -0.01976  -0.01346  -0.00719  -0.00126
 Alpha virt. eigenvalues --    0.00135   0.00252   0.00636   0.00732   0.00772

  Beta  occ. eigenvalues --  -38.44395 -38.44138 -38.43807 -38.43774 -38.43689
  Beta  occ. eigenvalues --  -38.43407 -38.43327  -2.20180  -2.19970  -2.19783
  Beta  occ. eigenvalues --   -2.19637  -2.19439  -2.19418  -2.19188  -1.13858
  Beta  occ. eigenvalues --   -1.13846  -1.13819  -1.13725  -1.13681  -1.13626
  Beta  occ. eigenvalues --   -1.13594  -1.13432  -1.13387  -1.13293  -1.13280
  Beta  occ. eigenvalues --   -1.13253  -1.13112  -1.13107  -1.13104  -1.13072
  Beta  occ. eigenvalues --   -1.13026  -1.13024  -1.12916  -1.12839  -1.12819
  Beta  occ. eigenvalues --   -0.17877  -0.13116  -0.11798
  Beta virt. eigenvalues --   -0.06568  -0.06055  -0.05285  -0.04174  -0.02762
  Beta virt. eigenvalues --   -0.02057  -0.01981  -0.01307  -0.01118  -0.00393
  Beta virt. eigenvalues --   -0.00083   0.00219   0.00296   0.00720   0.00807

 Mulliken charges and spin densities:
               1          2
     1  Na   0.174646   0.236574
     2  Na  -0.049521   0.102846
     3  Na   0.334769   0.233913
     4  Na  -0.104925   0.009427
     5  Na  -0.795327   0.369527
     6  Na   0.527278  -0.032156
     7  Na  -0.086919   0.079869
 Sum of Mulliken charges =  -0.00000   1.00000

 Dipole moment (field-independent basis, Debye):
    X=             -0.1000    Y=             -0.1811    Z=              0.2312  Tot=              0.3102
 Quadrupole moment (field-independent basis, Debye-Ang):
   XX=            -51.9235   YY=            -65.4848   ZZ=            -73.3634
   XY=              0.6151   XZ=              0.6109   YZ=              1.3314

 Normal termination of Gaussian 16 at Tue Dec  5 15:13:34 2023.
