 Gaussian 16, Revision B.01,
 Gaussian 16:  ES64L-G16RevB.01 20-Dec-2017

 -------------------------
 #P B3LYP/6-311+g(d) force
 -------------------------

 -----
 DPGEN
 -----
 Symbolic Z-matrix:
 Charge =  0 Multiplicity = 2

                         Standard orientation:
 ---------------------------------------------------------------------
 Center     Atomic      Atomic             Coordinates (Angstroms)
 Number     Number       Type             X           Y           Z
 ---------------------------------------------------------------------
      1         11           0        2.994046    0.848886    0.070941
      2         11           0       -2.252652   -1.984344    0.454612
      3         11           0       -2.997712    0.883332   -0.313944
      4         11           0       -0.062602    0.115885   -1.497062
      5         11           0        1.743400   -2.555836   -0.650245
      6         11           0        0.087468    3.031673    0.085465
      7         11           0        0.488052   -0.339596    1.850234
 ---------------------------------------------------------------------

 SCF Done:  E(UB3LYP) =  -1136.13583231     A.U. after   19 cycles

 The electronic state is 2-A.
 Alpha  occ. eigenvalues --  -38.44283 -38.43907 -38.43697 -38.43603 -38.43356
 Alpha  occ. eigenvalues --  -38.43334 -38.42961  -2.20129  -2.19776  -2.19562
 Alpha  occ. eigenvalues --   -2.19437  -2.19260  -2.19183  -2.18968  -1.13820
 Alpha  occ. eigenvalues --   -1.13797  -1.13746  -1.13505  -1.13449  -1.13410
 Alpha  occ. eigenvalues --   -1.13226  -1.13206  -1.13188  -1.13123  -1.13087
 Alpha  occ. eigenvalues --   -1.13070  -1.12947  -1.12890  -1.12878  -1.12871
 Alpha  occ. eigenvalues --   -1.12848  -1.12812  -1.12658  -1.12600  -1.12586
 Alpha  occ. eigenvalues --   -0.18677  -0.13348  -0.12320  -0.10517
 Alpha virt. eigenvalues --   -0.05782  -0.05137  -0.04800  -0.03205  -0.02762
 Alpha virt. eigenvalues --   -0.02198  -0.01635  -0.01236  -0.00478  -0.00322
 Alpha virt. eigenvalues --    0.00023   0.00348   0.00793   0.00843   0.00883

  Beta  occ. eigenvalues --  -38.44275 -38.43903 -38.43686 -38.43581 -38.43356
  Beta  occ. eigenvalues --  -38.43255 -38.42902  -2.20120  -2.19771  -2.19544
  Beta  occ. eigenvalues --   -2.19399  -2.19185  -2.19115  -2.18861  -1.13805
  Beta  occ. eigenvalues --   -1.13779  -1.13738  -1.13505  -1.13427  -1.13408
  Beta  occ. eigenvalues --   -1.13207  -1.13181  -1.13177  -1.13088  -1.13053
  Beta  occ. eigenvalues --   -1.13043  -1.12877  -1.12851  -1.12842  -1.12808
  Beta  occ. eigenvalues --   -1.12786  -1.12763  -1.12579  -1.12525  -1.12506
  Beta  occ. eigenvalues --   -0.17997  -0.13099  -0.12049
  Beta virt. eigenvalues --   -0.06678  -0.05732  -0.05062  -0.04727  -0.02481
  Beta virt. eigenvalues --   -0.02066  -0.01548  -0.01239  -0.01095  -0.00483
  Beta virt. eigenvalues --   -0.00352   0.00155   0.00394   0.00826   0.00875

 Mulliken charges and spin densities:
               1          2
     1  Na   0.238675   0.005816
     2  Na   0.159086   0.042285
     3  Na   0.040905  -0.042740
     4  Na  -0.081683   0.389951
     5  Na  -0.017529   0.050862
     6  Na  -0.134729  -0.069641
     7  Na  -0.204725   0.623468
 Sum of Mulliken charges =  -0.00000   1.00000

 Dipole moment (field-independent basis, Debye):
    X=              0.2457    Y=              0.0263    Z=              0.1172  Tot=              0.2735
 Quadrupole moment (field-independent basis, Debye-Ang):
   XX=            -55.3447   YY=            -61.6686   ZZ=            -75.5419
   XY=              0.0016   XZ=             -0.7343   YZ=              0.8380

 Normal termination of Gaussian 16 at Sun Dec  3 20:20:59 2023.
