 Gaussian 16, Revision B.01,
 Gaussian 16:  ES64L-G16RevB.01 20-Dec-2017

 -------------------------
 #P B3LYP/6-311+g(d) force
 -------------------------

 -----
 DPGEN
 -----
 Symbolic Z-matrix:
 Charge =  0 Multiplicity = 2

                         Standard orientation:
 ---------------------------------------------------------------------
 Center     Atomic      Atomic             Coordinates (Angstroms)
 Number     Number       Type             X           Y           Z
 ---------------------------------------------------------------------
      1         11           0        0.070479   -1.466309    0.558746
      2         11           0        6.362397   -0.253950   -0.090457
      3         11           0        3.315214   -0.342790   -0.570576
      4         11           0        0.905651    2.222570   -0.037017
      5         11           0       -2.071369    1.260283    0.946533
      6         11           0       -3.210738   -1.931390    0.039674
      7         11           0       -5.371634    0.511586   -0.846903
 ---------------------------------------------------------------------

 SCF Done:  E(UB3LYP) =  -1136.11917080     A.U. after   21 cycles

 The electronic state is 2-A.
 Alpha  occ. eigenvalues --  -38.44672 -38.44399 -38.44355 -38.44291 -38.44256
 Alpha  occ. eigenvalues --  -38.43751 -38.43326  -2.20534  -2.20271  -2.20188
 Alpha  occ. eigenvalues --   -2.20148  -2.20054  -2.19532  -2.19178  -1.14236
 Alpha  occ. eigenvalues --   -1.14218  -1.14144  -1.13954  -1.13941  -1.13871
 Alpha  occ. eigenvalues --   -1.13848  -1.13844  -1.13823  -1.13811  -1.13799
 Alpha  occ. eigenvalues --   -1.13779  -1.13712  -1.13707  -1.13660  -1.13231
 Alpha  occ. eigenvalues --   -1.13190  -1.13189  -1.12862  -1.12844  -1.12785
 Alpha  occ. eigenvalues --   -0.17405  -0.14125  -0.11834  -0.11528
 Alpha virt. eigenvalues --   -0.06859  -0.05544  -0.04159  -0.03759  -0.03153
 Alpha virt. eigenvalues --   -0.02552  -0.01980  -0.01445  -0.01038  -0.00648
 Alpha virt. eigenvalues --   -0.00341  -0.00109   0.00100   0.00330   0.00639

  Beta  occ. eigenvalues --  -38.44639 -38.44327 -38.44313 -38.44257 -38.44219
  Beta  occ. eigenvalues --  -38.43769 -38.43321  -2.20477  -2.20142  -2.20111
  Beta  occ. eigenvalues --   -2.20091  -2.19984  -2.19566  -2.19168  -1.14191
  Beta  occ. eigenvalues --   -1.14167  -1.14098  -1.13861  -1.13856  -1.13797
  Beta  occ. eigenvalues --   -1.13791  -1.13786  -1.13775  -1.13770  -1.13750
  Beta  occ. eigenvalues --   -1.13705  -1.13664  -1.13652  -1.13612  -1.13251
  Beta  occ. eigenvalues --   -1.13214  -1.13213  -1.12846  -1.12836  -1.12794
  Beta  occ. eigenvalues --   -0.16652  -0.13975  -0.11482
  Beta virt. eigenvalues --   -0.07785  -0.06669  -0.04943  -0.03929  -0.03469
  Beta virt. eigenvalues --   -0.02584  -0.02147  -0.01839  -0.01367  -0.00703
  Beta virt. eigenvalues --   -0.00510  -0.00069   0.00067   0.00290   0.00426

 Mulliken charges and spin densities:
               1          2
     1  Na   0.024714   0.630886
     2  Na   0.299221  -0.123786
     3  Na  -0.665031  -0.104322
     4  Na   0.520384   0.264009
     5  Na  -0.639665   0.174187
     6  Na   0.244049  -0.010079
     7  Na   0.216328   0.169106
 Sum of Mulliken charges =  -0.00000   1.00000

 Dipole moment (field-independent basis, Debye):
    X=             -1.3105    Y=              0.4949    Z=              0.0623  Tot=              1.4023
 Quadrupole moment (field-independent basis, Debye-Ang):
   XX=            -62.7304   YY=            -66.8238   ZZ=            -70.7134
   XY=              1.2150   XZ=              3.2779   YZ=             -0.7720

 Normal termination of Gaussian 16 at Tue Nov 28 21:12:23 2023.
