 Gaussian 16, Revision B.01,
 Gaussian 16:  ES64L-G16RevB.01 20-Dec-2017

 -------------------------
 #P B3LYP/6-311+g(d) force
 -------------------------

 -----
 DPGEN
 -----
 Symbolic Z-matrix:
 Charge =  0 Multiplicity = 2

                         Standard orientation:
 ---------------------------------------------------------------------
 Center     Atomic      Atomic             Coordinates (Angstroms)
 Number     Number       Type             X           Y           Z
 ---------------------------------------------------------------------
      1         11           0       -2.940689   -0.627591    0.389712
      2         11           0        3.414476   -0.929724   -0.068563
      3         11           0        1.720414    1.717115   -0.080149
      4         11           0       -0.312418   -0.022694   -1.992998
      5         11           0       -1.368901    2.743864   -0.123977
      6         11           0       -0.758470   -2.819899   -0.263871
      7         11           0        0.245587   -0.061071    2.139847
 ---------------------------------------------------------------------

 SCF Done:  E(UB3LYP) =  -1136.13271710     A.U. after   19 cycles

 The electronic state is 2-A.
 Alpha  occ. eigenvalues --  -38.44282 -38.44128 -38.44112 -38.43905 -38.43433
 Alpha  occ. eigenvalues --  -38.43074 -38.42969  -2.20152  -2.19966  -2.19923
 Alpha  occ. eigenvalues --   -2.19822  -2.19287  -2.19037  -2.18818  -1.13835
 Alpha  occ. eigenvalues --   -1.13788  -1.13758  -1.13645  -1.13631  -1.13619
 Alpha  occ. eigenvalues --   -1.13605  -1.13577  -1.13559  -1.13499  -1.13462
 Alpha  occ. eigenvalues --   -1.13438  -1.12965  -1.12943  -1.12920  -1.12735
 Alpha  occ. eigenvalues --   -1.12716  -1.12665  -1.12478  -1.12471  -1.12465
 Alpha  occ. eigenvalues --   -0.18591  -0.13121  -0.12102  -0.11287
 Alpha virt. eigenvalues --   -0.05858  -0.04646  -0.04546  -0.03555  -0.03095
 Alpha virt. eigenvalues --   -0.02900  -0.01633  -0.00983  -0.00273  -0.00109
 Alpha virt. eigenvalues --    0.00106   0.00366   0.00749   0.00810   0.00878

  Beta  occ. eigenvalues --  -38.44193 -38.44133 -38.44104 -38.43823 -38.43427
  Beta  occ. eigenvalues --  -38.43063 -38.42968  -2.19987  -2.19954  -2.19933
  Beta  occ. eigenvalues --   -2.19672  -2.19279  -2.19022  -2.18819  -1.13725
  Beta  occ. eigenvalues --   -1.13675  -1.13645  -1.13634  -1.13627  -1.13602
  Beta  occ. eigenvalues --   -1.13594  -1.13572  -1.13566  -1.13402  -1.13353
  Beta  occ. eigenvalues --   -1.13330  -1.12956  -1.12922  -1.12913  -1.12728
  Beta  occ. eigenvalues --   -1.12673  -1.12655  -1.12475  -1.12473  -1.12450
  Beta  occ. eigenvalues --   -0.17795  -0.12924  -0.11901
  Beta virt. eigenvalues --   -0.07337  -0.05752  -0.04563  -0.04549  -0.02741
  Beta virt. eigenvalues --   -0.02222  -0.02014  -0.01529  -0.00923  -0.00310
  Beta virt. eigenvalues --    0.00030   0.00099   0.00377   0.00841   0.00895

 Mulliken charges and spin densities:
               1          2
     1  Na   0.136029   0.057999
     2  Na   0.093365  -0.160898
     3  Na   0.181856   0.114118
     4  Na  -0.256495   0.545814
     5  Na   0.178084  -0.016784
     6  Na   0.092431  -0.098318
     7  Na  -0.425271   0.558070
 Sum of Mulliken charges =  -0.00000   1.00000

 Dipole moment (field-independent basis, Debye):
    X=             -0.1092    Y=             -0.4356    Z=              0.1432  Tot=              0.4713
 Quadrupole moment (field-independent basis, Debye-Ang):
   XX=            -58.3467   YY=            -66.2166   ZZ=            -70.8126
   XY=             -2.8686   XZ=             -1.3937   YZ=              0.3086

 Normal termination of Gaussian 16 at Sun Dec  3 14:41:51 2023.
