 Gaussian 16, Revision B.01,
 Gaussian 16:  ES64L-G16RevB.01 20-Dec-2017

 -------------------------
 #P B3LYP/6-311+g(d) force
 -------------------------

 -----
 DPGEN
 -----
 Symbolic Z-matrix:
 Charge =  0 Multiplicity = 2

                         Standard orientation:
 ---------------------------------------------------------------------
 Center     Atomic      Atomic             Coordinates (Angstroms)
 Number     Number       Type             X           Y           Z
 ---------------------------------------------------------------------
      1         11           0       -0.077059   -1.604825   -1.479276
      2         11           0        2.353265   -1.655083    1.933522
      3         11           0        3.140544   -0.684951   -1.085382
      4         11           0        2.358305    2.031598    1.313045
      5         11           0        0.241847    1.633431   -1.701439
      6         11           0       -2.387111    0.712841    0.554872
      7         11           0       -5.629790   -0.433011    0.464658
 ---------------------------------------------------------------------

 SCF Done:  E(UB3LYP) =  -1136.11304724     A.U. after   28 cycles

 The electronic state is 2-A.
 Alpha  occ. eigenvalues --  -38.45129 -38.44971 -38.44533 -38.44055 -38.43903
 Alpha  occ. eigenvalues --  -38.43648 -38.43264  -2.20990  -2.20782  -2.20387
 Alpha  occ. eigenvalues --   -2.19789  -2.19714  -2.19443  -2.19131  -1.14688
 Alpha  occ. eigenvalues --   -1.14649  -1.14607  -1.14449  -1.14426  -1.14377
 Alpha  occ. eigenvalues --   -1.14049  -1.14037  -1.14013  -1.13465  -1.13464
 Alpha  occ. eigenvalues --   -1.13438  -1.13380  -1.13378  -1.13340  -1.13138
 Alpha  occ. eigenvalues --   -1.13114  -1.13049  -1.12799  -1.12788  -1.12773
 Alpha  occ. eigenvalues --   -0.17858  -0.13054  -0.12107  -0.11054
 Alpha virt. eigenvalues --   -0.07281  -0.05075  -0.04149  -0.03610  -0.03539
 Alpha virt. eigenvalues --   -0.02685  -0.02436  -0.01255  -0.00715  -0.00451
 Alpha virt. eigenvalues --   -0.00403  -0.00340   0.00202   0.00596   0.00660

  Beta  occ. eigenvalues --  -38.45105 -38.44881 -38.44487 -38.44085 -38.43880
  Beta  occ. eigenvalues --  -38.43637 -38.43241  -2.20951  -2.20617  -2.20302
  Beta  occ. eigenvalues --   -2.19844  -2.19672  -2.19423  -2.19091  -1.14644
  Beta  occ. eigenvalues --   -1.14611  -1.14578  -1.14336  -1.14313  -1.14257
  Beta  occ. eigenvalues --   -1.13996  -1.13972  -1.13945  -1.13504  -1.13502
  Beta  occ. eigenvalues --   -1.13474  -1.13354  -1.13342  -1.13305  -1.13120
  Beta  occ. eigenvalues --   -1.13097  -1.13046  -1.12775  -1.12759  -1.12722
  Beta  occ. eigenvalues --   -0.16951  -0.13081  -0.10997
  Beta virt. eigenvalues --   -0.08023  -0.07092  -0.04400  -0.04010  -0.03384
  Beta virt. eigenvalues --   -0.02770  -0.02204  -0.02056  -0.01054  -0.00758
  Beta virt. eigenvalues --   -0.00431  -0.00256  -0.00083   0.00213   0.00670

 Mulliken charges and spin densities:
               1          2
     1  Na  -0.065116   0.244334
     2  Na  -0.103815   0.063893
     3  Na   0.509282   0.166688
     4  Na  -0.048105   0.379742
     5  Na   0.167050   0.332906
     6  Na  -0.582793  -0.110817
     7  Na   0.123498  -0.076746
 Sum of Mulliken charges =  -0.00000   1.00000

 Dipole moment (field-independent basis, Debye):
    X=              1.2512    Y=             -0.3109    Z=             -0.6147  Tot=              1.4283
 Quadrupole moment (field-independent basis, Debye-Ang):
   XX=            -65.4274   YY=            -65.0889   ZZ=            -71.4313
   XY=              4.4234   XZ=             -2.8125   YZ=              1.5837

 Normal termination of Gaussian 16 at Fri Dec  8 19:51:54 2023.
