 Gaussian 16, Revision B.01,
 Gaussian 16:  ES64L-G16RevB.01 20-Dec-2017

 -------------------------
 #P B3LYP/6-311+g(d) force
 -------------------------

 -----
 DPGEN
 -----
 Symbolic Z-matrix:
 Charge =  0 Multiplicity = 2

                         Standard orientation:
 ---------------------------------------------------------------------
 Center     Atomic      Atomic             Coordinates (Angstroms)
 Number     Number       Type             X           Y           Z
 ---------------------------------------------------------------------
      1         11           0       -2.806974    1.621158   -0.233093
      2         11           0        0.110007   -0.100953   -1.732922
      3         11           0        3.048545   -0.199334   -0.130928
      4         11           0        0.122327    0.149231    2.105524
      5         11           0       -2.516399   -1.482629    0.088442
      6         11           0        0.787895   -3.009353   -0.047577
      7         11           0        1.254599    3.021881   -0.049446
 ---------------------------------------------------------------------

 SCF Done:  E(UB3LYP) =  -1136.13740094     A.U. after   19 cycles

 The electronic state is 2-A.
 Alpha  occ. eigenvalues --  -38.44108 -38.43959 -38.43849 -38.43730 -38.43576
 Alpha  occ. eigenvalues --  -38.43406 -38.43380  -2.19940  -2.19777  -2.19629
 Alpha  occ. eigenvalues --   -2.19585  -2.19446  -2.19333  -2.19208  -1.13633
 Alpha  occ. eigenvalues --   -1.13610  -1.13559  -1.13479  -1.13439  -1.13414
 Alpha  occ. eigenvalues --   -1.13304  -1.13289  -1.13273  -1.13249  -1.13214
 Alpha  occ. eigenvalues --   -1.13202  -1.13124  -1.13105  -1.13079  -1.13017
 Alpha  occ. eigenvalues --   -1.12965  -1.12964  -1.12872  -1.12862  -1.12852
 Alpha  occ. eigenvalues --   -0.18309  -0.13026  -0.12246  -0.10697
 Alpha virt. eigenvalues --   -0.05702  -0.05149  -0.04969  -0.03228  -0.02850
 Alpha virt. eigenvalues --   -0.02625  -0.01458  -0.01298  -0.00598  -0.00417
 Alpha virt. eigenvalues --   -0.00031   0.00366   0.00792   0.00817   0.00854

  Beta  occ. eigenvalues --  -38.44102 -38.43957 -38.43849 -38.43632 -38.43571
  Beta  occ. eigenvalues --  -38.43377 -38.43341  -2.19933  -2.19775  -2.19631
  Beta  occ. eigenvalues --   -2.19440  -2.19406  -2.19214  -2.19207  -1.13621
  Beta  occ. eigenvalues --   -1.13587  -1.13558  -1.13480  -1.13422  -1.13413
  Beta  occ. eigenvalues --   -1.13291  -1.13288  -1.13278  -1.13136  -1.13114
  Beta  occ. eigenvalues --   -1.13091  -1.13082  -1.13078  -1.13063  -1.12941
  Beta  occ. eigenvalues --   -1.12896  -1.12879  -1.12857  -1.12851  -1.12835
  Beta  occ. eigenvalues --   -0.17572  -0.12812  -0.12050
  Beta virt. eigenvalues --   -0.06783  -0.05705  -0.05053  -0.04951  -0.02433
  Beta virt. eigenvalues --   -0.02106  -0.01589  -0.01364  -0.01216  -0.00653
  Beta virt. eigenvalues --   -0.00473   0.00118   0.00389   0.00804   0.00858

 Mulliken charges and spin densities:
               1          2
     1  Na   0.030883  -0.091330
     2  Na  -0.109301   0.544172
     3  Na   0.216676  -0.071287
     4  Na  -0.430605   0.776727
     5  Na   0.184314   0.015037
     6  Na   0.134505  -0.036502
     7  Na  -0.026472  -0.136816
 Sum of Mulliken charges =  -0.00000   1.00000

 Dipole moment (field-independent basis, Debye):
    X=              0.1704    Y=              0.2061    Z=              0.0546  Tot=              0.2729
 Quadrupole moment (field-independent basis, Debye-Ang):
   XX=            -58.7746   YY=            -60.3195   ZZ=            -74.7467
   XY=             -0.7839   XZ=              0.0145   YZ=             -0.7391

 Normal termination of Gaussian 16 at Thu Dec  7 01:54:51 2023.
