 Gaussian 16, Revision B.01,
 Gaussian 16:  ES64L-G16RevB.01 20-Dec-2017

 -------------------------
 #P B3LYP/6-311+g(d) force
 -------------------------

 -----
 DPGEN
 -----
 Symbolic Z-matrix:
 Charge =  0 Multiplicity = 2

                         Standard orientation:
 ---------------------------------------------------------------------
 Center     Atomic      Atomic             Coordinates (Angstroms)
 Number     Number       Type             X           Y           Z
 ---------------------------------------------------------------------
      1         11           0       -2.521084   -1.460521    0.270847
      2         11           0        3.409743   -0.384749    0.067971
      3         11           0        0.302540    0.018442   -1.397917
      4         11           0        0.532286   -2.938927   -0.430686
      5         11           0        1.024192    3.133018   -0.173370
      6         11           0       -2.766829    1.454251   -0.448298
      7         11           0        0.019152    0.178487    2.111454
 ---------------------------------------------------------------------

 SCF Done:  E(UB3LYP) =  -1136.13112633     A.U. after   20 cycles

 The electronic state is 2-A.
 Alpha  occ. eigenvalues --  -38.44913 -38.44038 -38.43990 -38.43580 -38.43482
 Alpha  occ. eigenvalues --  -38.43471 -38.42938  -2.20678  -2.19884  -2.19766
 Alpha  occ. eigenvalues --   -2.19444  -2.19371  -2.19330  -2.18932  -1.14360
 Alpha  occ. eigenvalues --   -1.14332  -1.14312  -1.13611  -1.13541  -1.13509
 Alpha  occ. eigenvalues --   -1.13450  -1.13425  -1.13402  -1.13123  -1.13070
 Alpha  occ. eigenvalues --   -1.13065  -1.13060  -1.13038  -1.13019  -1.13011
 Alpha  occ. eigenvalues --   -1.12973  -1.12941  -1.12627  -1.12568  -1.12554
 Alpha  occ. eigenvalues --   -0.18371  -0.12991  -0.12289  -0.10485
 Alpha virt. eigenvalues --   -0.06259  -0.05146  -0.04646  -0.03133  -0.02711
 Alpha virt. eigenvalues --   -0.02386  -0.01871  -0.01320  -0.00572  -0.00425
 Alpha virt. eigenvalues --   -0.00006   0.00325   0.00719   0.00813   0.00816

  Beta  occ. eigenvalues --  -38.44913 -38.44028 -38.43989 -38.43476 -38.43472
  Beta  occ. eigenvalues --  -38.43463 -38.42890  -2.20680  -2.19869  -2.19767
  Beta  occ. eigenvalues --   -2.19362  -2.19316  -2.19253  -2.18847  -1.14349
  Beta  occ. eigenvalues --   -1.14334  -1.14315  -1.13604  -1.13512  -1.13498
  Beta  occ. eigenvalues --   -1.13440  -1.13422  -1.13402  -1.13057  -1.13038
  Beta  occ. eigenvalues --   -1.13017  -1.12991  -1.12975  -1.12952  -1.12935
  Beta  occ. eigenvalues --   -1.12930  -1.12915  -1.12561  -1.12504  -1.12492
  Beta  occ. eigenvalues --   -0.17662  -0.12796  -0.12053
  Beta virt. eigenvalues --   -0.06570  -0.06248  -0.05078  -0.04603  -0.02389
  Beta virt. eigenvalues --   -0.02017  -0.01782  -0.01356  -0.01220  -0.00595
  Beta virt. eigenvalues --   -0.00445   0.00145   0.00369   0.00730   0.00865

 Mulliken charges and spin densities:
               1          2
     1  Na   0.371508   0.158795
     2  Na   0.064797  -0.040097
     3  Na  -0.344624   0.158539
     4  Na   0.264837   0.050041
     5  Na  -0.025093  -0.062355
     6  Na   0.093541   0.015135
     7  Na  -0.424967   0.719941
 Sum of Mulliken charges =  -0.00000   1.00000

 Dipole moment (field-independent basis, Debye):
    X=              0.6793    Y=              0.2257    Z=              0.1668  Tot=              0.7349
 Quadrupole moment (field-independent basis, Debye-Ang):
   XX=            -54.6217   YY=            -61.1326   ZZ=            -76.2262
   XY=             -0.3294   XZ=              0.9081   YZ=             -0.5224

 Normal termination of Gaussian 16 at Thu Dec  7 02:42:19 2023.
