 Gaussian 16, Revision B.01,
 Gaussian 16:  ES64L-G16RevB.01 20-Dec-2017

 -------------------------
 #P B3LYP/6-311+g(d) force
 -------------------------

 -----
 DPGEN
 -----
 Symbolic Z-matrix:
 Charge =  0 Multiplicity = 2

                         Standard orientation:
 ---------------------------------------------------------------------
 Center     Atomic      Atomic             Coordinates (Angstroms)
 Number     Number       Type             X           Y           Z
 ---------------------------------------------------------------------
      1         11           0        3.229691    0.371556    0.769753
      2         11           0        3.719135   -2.988916   -0.159429
      3         11           0       -3.181879   -1.472394   -0.292069
      4         11           0        1.852804    3.903370   -0.061646
      5         11           0       -6.000109    0.046838    0.486071
      6         11           0        0.765235   -1.448769   -0.067466
      7         11           0       -0.384876    1.588314   -0.675214
 ---------------------------------------------------------------------

 SCF Done:  E(UB3LYP) =  -1136.12217160     A.U. after   19 cycles

 The electronic state is 2-A.
 Alpha  occ. eigenvalues --  -38.45019 -38.44455 -38.44175 -38.43981 -38.43891
 Alpha  occ. eigenvalues --  -38.43756 -38.43425  -2.20847  -2.20263  -2.20012
 Alpha  occ. eigenvalues --   -2.19785  -2.19691  -2.19672  -2.19204  -1.14576
 Alpha  occ. eigenvalues --   -1.14537  -1.14411  -1.13935  -1.13924  -1.13886
 Alpha  occ. eigenvalues --   -1.13724  -1.13696  -1.13617  -1.13422  -1.13421
 Alpha  occ. eigenvalues --   -1.13413  -1.13380  -1.13351  -1.13351  -1.13347
 Alpha  occ. eigenvalues --   -1.13314  -1.13249  -1.12895  -1.12885  -1.12845
 Alpha  occ. eigenvalues --   -0.17003  -0.13533  -0.12753  -0.10877
 Alpha virt. eigenvalues --   -0.06283  -0.05336  -0.04488  -0.04005  -0.02451
 Alpha virt. eigenvalues --   -0.02411  -0.02059  -0.01666  -0.01188  -0.00904
 Alpha virt. eigenvalues --   -0.00342  -0.00054   0.00332   0.00378   0.00602

  Beta  occ. eigenvalues --  -38.44997 -38.44443 -38.44151 -38.43892 -38.43874
  Beta  occ. eigenvalues --  -38.43709 -38.43433  -2.20806  -2.20242  -2.19970
  Beta  occ. eigenvalues --   -2.19658  -2.19618  -2.19589  -2.19227  -1.14544
  Beta  occ. eigenvalues --   -1.14510  -1.14377  -1.13918  -1.13909  -1.13870
  Beta  occ. eigenvalues --   -1.13684  -1.13671  -1.13581  -1.13331  -1.13328
  Beta  occ. eigenvalues --   -1.13326  -1.13308  -1.13306  -1.13305  -1.13296
  Beta  occ. eigenvalues --   -1.13292  -1.13162  -1.12919  -1.12906  -1.12806
  Beta  occ. eigenvalues --   -0.16442  -0.12908  -0.12416
  Beta virt. eigenvalues --   -0.07467  -0.06156  -0.04890  -0.04010  -0.03838
  Beta virt. eigenvalues --   -0.02334  -0.02049  -0.01852  -0.01454  -0.00920
  Beta virt. eigenvalues --   -0.00561   0.00002   0.00054   0.00447   0.00493

 Mulliken charges and spin densities:
               1          2
     1  Na  -0.210880   0.259667
     2  Na   1.221696   0.105793
     3  Na  -0.635946  -0.077068
     4  Na   0.742830   0.114957
     5  Na   0.333240   0.417026
     6  Na  -0.722379   0.173892
     7  Na  -0.728561   0.005733
 Sum of Mulliken charges =  -0.00000   1.00000

 Dipole moment (field-independent basis, Debye):
    X=              2.0271    Y=              0.0066    Z=             -0.0218  Tot=              2.0273
 Quadrupole moment (field-independent basis, Debye-Ang):
   XX=            -64.5029   YY=            -58.4858   ZZ=            -72.1155
   XY=             -6.7787   XZ=             -0.1930   YZ=              1.6449

 Normal termination of Gaussian 16 at Tue Nov 28 19:51:24 2023.
