 Gaussian 16, Revision B.01,
 Gaussian 16:  ES64L-G16RevB.01 20-Dec-2017

 -------------------------
 #P B3LYP/6-311+g(d) force
 -------------------------

 -----
 DPGEN
 -----
 Symbolic Z-matrix:
 Charge =  0 Multiplicity = 2

                         Standard orientation:
 ---------------------------------------------------------------------
 Center     Atomic      Atomic             Coordinates (Angstroms)
 Number     Number       Type             X           Y           Z
 ---------------------------------------------------------------------
      1         11           0        4.160274   -1.827670    0.134958
      2         11           0        1.438163   -2.826632   -0.174875
      3         11           0       -2.504630   -1.832421    0.283651
      4         11           0       -5.254569   -0.266601   -0.027291
      5         11           0       -2.008689    1.282623   -0.305958
      6         11           0        0.643183    3.827988    0.233483
      7         11           0        3.526268    1.642713   -0.143969
 ---------------------------------------------------------------------

 SCF Done:  E(UB3LYP) =  -1136.11481183     A.U. after   21 cycles

 The electronic state is 2-A.
 Alpha  occ. eigenvalues --  -38.45142 -38.44849 -38.44829 -38.44557 -38.43966
 Alpha  occ. eigenvalues --  -38.43850 -38.43376  -2.20946  -2.20704  -2.20588
 Alpha  occ. eigenvalues --   -2.20406  -2.19789  -2.19695  -2.19145  -1.14666
 Alpha  occ. eigenvalues --   -1.14641  -1.14546  -1.14389  -1.14374  -1.14335
 Alpha  occ. eigenvalues --   -1.14277  -1.14256  -1.14199  -1.14059  -1.14044
 Alpha  occ. eigenvalues --   -1.14002  -1.13606  -1.13449  -1.13431  -1.13338
 Alpha  occ. eigenvalues --   -1.13325  -1.13265  -1.12819  -1.12801  -1.12795
 Alpha  occ. eigenvalues --   -0.16441  -0.14475  -0.12470  -0.10741
 Alpha virt. eigenvalues --   -0.06861  -0.05926  -0.04257  -0.03643  -0.02781
 Alpha virt. eigenvalues --   -0.02650  -0.02221  -0.01661  -0.01236  -0.00988
 Alpha virt. eigenvalues --   -0.00198   0.00039   0.00132   0.00482   0.00704

  Beta  occ. eigenvalues --  -38.45124 -38.44826 -38.44798 -38.44487 -38.43943
  Beta  occ. eigenvalues --  -38.43846 -38.43374  -2.20915  -2.20668  -2.20532
  Beta  occ. eigenvalues --   -2.20274  -2.19747  -2.19687  -2.19142  -1.14641
  Beta  occ. eigenvalues --   -1.14621  -1.14513  -1.14361  -1.14356  -1.14266
  Beta  occ. eigenvalues --   -1.14240  -1.14220  -1.14152  -1.13967  -1.13953
  Beta  occ. eigenvalues --   -1.13921  -1.13589  -1.13421  -1.13401  -1.13333
  Beta  occ. eigenvalues --   -1.13308  -1.13245  -1.12818  -1.12798  -1.12789
  Beta  occ. eigenvalues --   -0.15864  -0.14104  -0.12302
  Beta virt. eigenvalues --   -0.07302  -0.06479  -0.05293  -0.03989  -0.03342
  Beta virt. eigenvalues --   -0.02597  -0.02405  -0.01808  -0.01589  -0.01159
  Beta virt. eigenvalues --   -0.00523   0.00163   0.00275   0.00336   0.00525

 Mulliken charges and spin densities:
               1          2
     1  Na   0.425096   0.079049
     2  Na  -0.655309  -0.034713
     3  Na  -0.051961   0.215954
     4  Na   1.467251   0.386460
     5  Na  -1.119724   0.137459
     6  Na   0.355671  -0.004546
     7  Na  -0.421024   0.220337
 Sum of Mulliken charges =  -0.00000   1.00000

 Dipole moment (field-independent basis, Debye):
    X=             -1.4064    Y=             -0.1606    Z=              0.0290  Tot=              1.4159
 Quadrupole moment (field-independent basis, Debye-Ang):
   XX=            -56.3084   YY=            -67.3376   ZZ=            -73.3656
   XY=              0.0943   XZ=              0.3438   YZ=             -0.4943

 Normal termination of Gaussian 16 at Mon Dec  4 05:37:13 2023.
