 Gaussian 16, Revision B.01,
 Gaussian 16:  ES64L-G16RevB.01 20-Dec-2017

 -------------------------
 #P B3LYP/6-311+g(d) force
 -------------------------

 -----
 DPGEN
 -----
 Symbolic Z-matrix:
 Charge =  0 Multiplicity = 2

                         Standard orientation:
 ---------------------------------------------------------------------
 Center     Atomic      Atomic             Coordinates (Angstroms)
 Number     Number       Type             X           Y           Z
 ---------------------------------------------------------------------
      1         11           0        3.389600   -0.873968    0.148628
      2         11           0       -1.767357    2.533616    0.065730
      3         11           0        1.680540    2.174725   -0.507713
      4         11           0       -0.675136   -2.882504    0.366103
      5         11           0        0.136375   -0.838414   -1.453315
      6         11           0        0.223461    0.502908    1.568198
      7         11           0       -2.987482   -0.616363   -0.187632
 ---------------------------------------------------------------------

 SCF Done:  E(UB3LYP) =  -1136.12893870     A.U. after   20 cycles

 The electronic state is 2-A.
 Alpha  occ. eigenvalues --  -38.44675 -38.44124 -38.43799 -38.43753 -38.43404
 Alpha  occ. eigenvalues --  -38.43020 -38.42841  -2.20461  -2.19991  -2.19700
 Alpha  occ. eigenvalues --   -2.19650  -2.19265  -2.19032  -2.18844  -1.14131
 Alpha  occ. eigenvalues --   -1.14117  -1.14102  -1.13672  -1.13659  -1.13637
 Alpha  occ. eigenvalues --   -1.13490  -1.13386  -1.13332  -1.13313  -1.13302
 Alpha  occ. eigenvalues --   -1.13250  -1.12956  -1.12916  -1.12910  -1.12733
 Alpha  occ. eigenvalues --   -1.12678  -1.12615  -1.12532  -1.12478  -1.12436
 Alpha  occ. eigenvalues --   -0.18860  -0.13351  -0.12670  -0.09940
 Alpha virt. eigenvalues --   -0.06157  -0.05175  -0.04859  -0.03082  -0.02667
 Alpha virt. eigenvalues --   -0.02001  -0.01678  -0.01182  -0.00522  -0.00352
 Alpha virt. eigenvalues --    0.00052   0.00326   0.00780   0.00808   0.00855

  Beta  occ. eigenvalues --  -38.44674 -38.44118 -38.43790 -38.43736 -38.43400
  Beta  occ. eigenvalues --  -38.42965 -38.42771  -2.20461  -2.19982  -2.19686
  Beta  occ. eigenvalues --   -2.19623  -2.19261  -2.18933  -2.18718  -1.14123
  Beta  occ. eigenvalues --   -1.14108  -1.14104  -1.13666  -1.13648  -1.13616
  Beta  occ. eigenvalues --   -1.13475  -1.13366  -1.13311  -1.13284  -1.13267
  Beta  occ. eigenvalues --   -1.13236  -1.12947  -1.12915  -1.12891  -1.12658
  Beta  occ. eigenvalues --   -1.12604  -1.12543  -1.12441  -1.12387  -1.12344
  Beta  occ. eigenvalues --   -0.18162  -0.13108  -0.12452
  Beta virt. eigenvalues --   -0.06134  -0.06104  -0.05133  -0.04802  -0.02306
  Beta virt. eigenvalues --   -0.01977  -0.01913  -0.01112  -0.00810  -0.00548
  Beta virt. eigenvalues --   -0.00329   0.00201   0.00374   0.00801   0.00822

 Mulliken charges and spin densities:
               1          2
     1  Na   0.083805  -0.034328
     2  Na   0.163306   0.007860
     3  Na   0.101400   0.048633
     4  Na   0.219254   0.010826
     5  Na  -0.298182   0.336907
     6  Na  -0.421738   0.611400
     7  Na   0.152154   0.018703
 Sum of Mulliken charges =  -0.00000   1.00000

 Dipole moment (field-independent basis, Debye):
    X=              0.3624    Y=             -0.2446    Z=              0.0477  Tot=              0.4398
 Quadrupole moment (field-independent basis, Debye-Ang):
   XX=            -51.7541   YY=            -61.0029   ZZ=            -77.9613
   XY=             -1.3178   XZ=              0.1239   YZ=             -2.6523

 Normal termination of Gaussian 16 at Tue Dec  5 22:31:20 2023.
