 Gaussian 16, Revision B.01,
 Gaussian 16:  ES64L-G16RevB.01 20-Dec-2017

 -------------------------
 #P B3LYP/6-311+g(d) force
 -------------------------

 -----
 DPGEN
 -----
 Symbolic Z-matrix:
 Charge =  0 Multiplicity = 2

                         Standard orientation:
 ---------------------------------------------------------------------
 Center     Atomic      Atomic             Coordinates (Angstroms)
 Number     Number       Type             X           Y           Z
 ---------------------------------------------------------------------
      1         11           0        1.031242   -1.423781   -1.052380
      2         11           0        0.882552    1.705513   -0.783232
      3         11           0        3.791882    0.044731    0.053427
      4         11           0        0.420343   -0.502828    2.094865
      5         11           0       -2.129784   -1.987454    0.394746
      6         11           0       -1.949524    2.064745    0.886743
      7         11           0       -2.046710    0.099073   -1.594170
 ---------------------------------------------------------------------

 SCF Done:  E(UB3LYP) =  -1136.12796897     A.U. after   22 cycles

 The electronic state is 2-A.
 Alpha  occ. eigenvalues --  -38.44862 -38.44256 -38.43842 -38.43394 -38.43140
 Alpha  occ. eigenvalues --  -38.43074 -38.42934  -2.20673  -2.20148  -2.19828
 Alpha  occ. eigenvalues --   -2.19356  -2.19048  -2.18953  -2.18876  -1.14345
 Alpha  occ. eigenvalues --   -1.14331  -1.14309  -1.13829  -1.13771  -1.13763
 Alpha  occ. eigenvalues --   -1.13564  -1.13493  -1.13440  -1.13096  -1.13023
 Alpha  occ. eigenvalues --   -1.12942  -1.12736  -1.12690  -1.12659  -1.12635
 Alpha  occ. eigenvalues --   -1.12620  -1.12593  -1.12588  -1.12538  -1.12448
 Alpha  occ. eigenvalues --   -0.19164  -0.13719  -0.11694  -0.11477
 Alpha virt. eigenvalues --   -0.06382  -0.04432  -0.04254  -0.03290  -0.02962
 Alpha virt. eigenvalues --   -0.02820  -0.02153  -0.00714  -0.00474   0.00145
 Alpha virt. eigenvalues --    0.00281   0.00376   0.00591   0.00872   0.00917

  Beta  occ. eigenvalues --  -38.44865 -38.44166 -38.43798 -38.43364 -38.43135
  Beta  occ. eigenvalues --  -38.43057 -38.42916  -2.20679  -2.19982  -2.19747
  Beta  occ. eigenvalues --   -2.19305  -2.19043  -2.18924  -2.18847  -1.14347
  Beta  occ. eigenvalues --   -1.14330  -1.14314  -1.13723  -1.13648  -1.13642
  Beta  occ. eigenvalues --   -1.13515  -1.13427  -1.13381  -1.13064  -1.12959
  Beta  occ. eigenvalues --   -1.12909  -1.12724  -1.12674  -1.12648  -1.12618
  Beta  occ. eigenvalues --   -1.12598  -1.12569  -1.12553  -1.12492  -1.12433
  Beta  occ. eigenvalues --   -0.18347  -0.13566  -0.11260
  Beta virt. eigenvalues --   -0.07609  -0.06236  -0.04426  -0.03646  -0.03041
  Beta virt. eigenvalues --   -0.02207  -0.02097  -0.01861  -0.00654  -0.00172
  Beta virt. eigenvalues --    0.00206   0.00322   0.00357   0.00731   0.00897

 Mulliken charges and spin densities:
               1          2
     1  Na  -0.159269   0.167838
     2  Na  -0.452439   0.085988
     3  Na   0.607883  -0.037710
     4  Na  -0.402796   0.593454
     5  Na   0.010878  -0.067463
     6  Na  -0.108951   0.025059
     7  Na   0.504693   0.232833
 Sum of Mulliken charges =  -0.00000   1.00000

 Dipole moment (field-independent basis, Debye):
    X=              1.1438    Y=             -0.0595    Z=              0.3770  Tot=              1.2058
 Quadrupole moment (field-independent basis, Debye-Ang):
   XX=            -50.6169   YY=            -75.9212   ZZ=            -67.1828
   XY=              0.2791   XZ=              0.4923   YZ=              0.9962

 Normal termination of Gaussian 16 at Wed Dec  6 00:30:11 2023.
