 Gaussian 16, Revision B.01,
 Gaussian 16:  ES64L-G16RevB.01 20-Dec-2017

 -------------------------
 #P B3LYP/6-311+g(d) force
 -------------------------

 -----
 DPGEN
 -----
 Symbolic Z-matrix:
 Charge =  0 Multiplicity = 2

                         Standard orientation:
 ---------------------------------------------------------------------
 Center     Atomic      Atomic             Coordinates (Angstroms)
 Number     Number       Type             X           Y           Z
 ---------------------------------------------------------------------
      1         11           0        1.268417   -2.405838   -0.880567
      2         11           0       -0.377100    0.444446   -1.076573
      3         11           0       -2.163311   -1.918907    0.292437
      4         11           0       -3.659427    1.455042   -0.545346
      5         11           0        3.496478    0.714073   -0.734028
      6         11           0        0.547211   -1.106610    2.053054
      7         11           0        0.887732    2.817793    0.891023
 ---------------------------------------------------------------------

 SCF Done:  E(UB3LYP) =  -1136.12821543     A.U. after   20 cycles

 The electronic state is 2-A.
 Alpha  occ. eigenvalues --  -38.44624 -38.43996 -38.43959 -38.43828 -38.43712
 Alpha  occ. eigenvalues --  -38.43411 -38.43252  -2.20391  -2.19819  -2.19766
 Alpha  occ. eigenvalues --   -2.19625  -2.19600  -2.19288  -2.19212  -1.14070
 Alpha  occ. eigenvalues --   -1.14039  -1.14022  -1.13530  -1.13510  -1.13439
 Alpha  occ. eigenvalues --   -1.13425  -1.13417  -1.13395  -1.13313  -1.13280
 Alpha  occ. eigenvalues --   -1.13263  -1.13255  -1.13242  -1.13199  -1.13007
 Alpha  occ. eigenvalues --   -1.12951  -1.12920  -1.12889  -1.12872  -1.12808
 Alpha  occ. eigenvalues --   -0.18061  -0.12935  -0.12144  -0.10642
 Alpha virt. eigenvalues --   -0.06197  -0.05386  -0.04552  -0.03093  -0.02873
 Alpha virt. eigenvalues --   -0.02300  -0.02001  -0.01331  -0.00557  -0.00293
 Alpha virt. eigenvalues --   -0.00146   0.00221   0.00654   0.00695   0.00738

  Beta  occ. eigenvalues --  -38.44607 -38.43990 -38.43951 -38.43801 -38.43634
  Beta  occ. eigenvalues --  -38.43386 -38.43231  -2.20362  -2.19809  -2.19756
  Beta  occ. eigenvalues --   -2.19575  -2.19456  -2.19244  -2.19177  -1.14048
  Beta  occ. eigenvalues --   -1.14014  -1.13998  -1.13525  -1.13482  -1.13430
  Beta  occ. eigenvalues --   -1.13416  -1.13410  -1.13387  -1.13280  -1.13234
  Beta  occ. eigenvalues --   -1.13212  -1.13171  -1.13155  -1.13096  -1.12975
  Beta  occ. eigenvalues --   -1.12917  -1.12877  -1.12846  -1.12842  -1.12784
  Beta  occ. eigenvalues --   -0.17421  -0.12650  -0.11915
  Beta virt. eigenvalues --   -0.06993  -0.05875  -0.05291  -0.04312  -0.02558
  Beta virt. eigenvalues --   -0.02369  -0.01931  -0.01506  -0.01161  -0.00360
  Beta virt. eigenvalues --   -0.00268   0.00022   0.00291   0.00745   0.00750

 Mulliken charges and spin densities:
               1          2
     1  Na   0.125204   0.127674
     2  Na   0.034182   0.275569
     3  Na   0.203512   0.038671
     4  Na   0.137340   0.010410
     5  Na   0.115212  -0.009017
     6  Na  -0.434449   0.457821
     7  Na  -0.181002   0.098872
 Sum of Mulliken charges =  -0.00000   1.00000

 Dipole moment (field-independent basis, Debye):
    X=              0.2069    Y=             -0.0948    Z=              0.3545  Tot=              0.4213
 Quadrupole moment (field-independent basis, Debye-Ang):
   XX=            -54.6773   YY=            -64.9060   ZZ=            -72.7441
   XY=              0.3626   XZ=             -1.4669   YZ=              1.5876

 Normal termination of Gaussian 16 at Wed Dec  6 00:21:58 2023.
