 Gaussian 16, Revision B.01,
 Gaussian 16:  ES64L-G16RevB.01 20-Dec-2017

 -------------------------
 #P B3LYP/6-311+g(d) force
 -------------------------

 -----
 DPGEN
 -----
 Symbolic Z-matrix:
 Charge =  0 Multiplicity = 2

                         Standard orientation:
 ---------------------------------------------------------------------
 Center     Atomic      Atomic             Coordinates (Angstroms)
 Number     Number       Type             X           Y           Z
 ---------------------------------------------------------------------
      1         11           0        0.115948    0.255432    1.839336
      2         11           0        0.107437   -0.256868   -1.838714
      3         11           0        1.953213   -1.389908    0.199936
      4         11           0        1.950473    1.392492   -0.208364
      5         11           0       -0.782201   -2.012789    0.098436
      6         11           0       -0.786913    2.014651   -0.087364
      7         11           0       -2.557957   -0.003010   -0.003264
 ---------------------------------------------------------------------

 SCF Done:  E(UB3LYP) =  -1136.07525184     A.U. after   19 cycles

 The electronic state is 2-A.
 Alpha  occ. eigenvalues --  -38.44334 -38.44328 -38.44124 -38.43646 -38.43644
 Alpha  occ. eigenvalues --  -38.43593 -38.43586  -2.20563  -2.20558  -2.20239
 Alpha  occ. eigenvalues --   -2.19822  -2.19805  -2.19768  -2.19749  -1.14434
 Alpha  occ. eigenvalues --   -1.14347  -1.14281  -1.14242  -1.14231  -1.14185
 Alpha  occ. eigenvalues --   -1.14143  -1.14035  -1.13800  -1.13703  -1.13627
 Alpha  occ. eigenvalues --   -1.13619  -1.13429  -1.13376  -1.13366  -1.13360
 Alpha  occ. eigenvalues --   -1.13345  -1.13332  -1.13276  -1.13239  -1.13151
 Alpha  occ. eigenvalues --   -0.21907  -0.13854  -0.13035  -0.12589
 Alpha virt. eigenvalues --   -0.05098  -0.04227  -0.04064  -0.03804  -0.03362
 Alpha virt. eigenvalues --   -0.03057  -0.00894  -0.00444  -0.00142   0.00342
 Alpha virt. eigenvalues --    0.00883   0.00904   0.01075   0.01193   0.01253

  Beta  occ. eigenvalues --  -38.44237 -38.44232 -38.44115 -38.43631 -38.43630
  Beta  occ. eigenvalues --  -38.43576 -38.43569  -2.20389  -2.20384  -2.20229
  Beta  occ. eigenvalues --   -2.19801  -2.19783  -2.19747  -2.19728  -1.14350
  Beta  occ. eigenvalues --   -1.14240  -1.14175  -1.14148  -1.14130  -1.14120
  Beta  occ. eigenvalues --   -1.14057  -1.13979  -1.13744  -1.13695  -1.13606
  Beta  occ. eigenvalues --   -1.13601  -1.13356  -1.13341  -1.13327  -1.13303
  Beta  occ. eigenvalues --   -1.13282  -1.13275  -1.13270  -1.13232  -1.13144
  Beta  occ. eigenvalues --   -0.21036  -0.13470  -0.12650
  Beta virt. eigenvalues --   -0.08357  -0.05123  -0.04221  -0.04019  -0.02816
  Beta virt. eigenvalues --   -0.02439  -0.01965  -0.00828  -0.00397   0.00014
  Beta virt. eigenvalues --    0.00362   0.00873   0.00874   0.01114   0.01186

 Mulliken charges and spin densities:
               1          2
     1  Na  -0.209795   0.447598
     2  Na  -0.209008   0.449030
     3  Na   0.132649   0.003500
     4  Na   0.130864   0.005690
     5  Na   0.159461   0.077099
     6  Na   0.165995   0.077890
     7  Na  -0.170166  -0.060807
 Sum of Mulliken charges =  -0.00000   1.00000

 Dipole moment (field-independent basis, Debye):
    X=              0.0344    Y=              0.0035    Z=             -0.0016  Tot=              0.0346
 Quadrupole moment (field-independent basis, Debye-Ang):
   XX=            -62.1755   YY=            -69.9874   ZZ=            -66.9577
   XY=             -0.0033   XZ=             -0.0093   YZ=             -0.9407

 Normal termination of Gaussian 16 at Fri Dec  8 16:58:02 2023.
