 Gaussian 16, Revision B.01,
 Gaussian 16:  ES64L-G16RevB.01 20-Dec-2017

 -------------------------
 #P B3LYP/6-311+g(d) force
 -------------------------

 -----
 DPGEN
 -----
 Symbolic Z-matrix:
 Charge =  0 Multiplicity = 2

                         Standard orientation:
 ---------------------------------------------------------------------
 Center     Atomic      Atomic             Coordinates (Angstroms)
 Number     Number       Type             X           Y           Z
 ---------------------------------------------------------------------
      1         11           0       -3.574614   -2.227522   -0.497574
      2         11           0        0.588621   -2.650793   -0.303500
      3         11           0        4.651376    1.325589   -0.629892
      4         11           0        0.679466    1.048096   -0.204226
      5         11           0        3.877718   -1.304474    1.056969
      6         11           0       -1.507563    3.036110    0.030037
      7         11           0       -4.715003    0.772994    0.548187
 ---------------------------------------------------------------------

 SCF Done:  E(UB3LYP) =  -1136.10862844     A.U. after   23 cycles

 The electronic state is 2-A.
 Alpha  occ. eigenvalues --  -38.45346 -38.45280 -38.44979 -38.44216 -38.44104
 Alpha  occ. eigenvalues --  -38.43914 -38.43039  -2.21136  -2.21088  -2.20755
 Alpha  occ. eigenvalues --   -2.19959  -2.19884  -2.19764  -2.18861  -1.14846
 Alpha  occ. eigenvalues --   -1.14814  -1.14774  -1.14731  -1.14716  -1.14684
 Alpha  occ. eigenvalues --   -1.14419  -1.14403  -1.14373  -1.13645  -1.13632
 Alpha  occ. eigenvalues --   -1.13602  -1.13557  -1.13548  -1.13485  -1.13451
 Alpha  occ. eigenvalues --   -1.13427  -1.13411  -1.12555  -1.12508  -1.12480
 Alpha  occ. eigenvalues --   -0.16340  -0.14130  -0.11764  -0.11497
 Alpha virt. eigenvalues --   -0.06990  -0.04966  -0.04897  -0.03596  -0.03295
 Alpha virt. eigenvalues --   -0.02370  -0.02042  -0.01418  -0.00913  -0.00839
 Alpha virt. eigenvalues --   -0.00539  -0.00421   0.00233   0.00426   0.00545

  Beta  occ. eigenvalues --  -38.45335 -38.45208 -38.44920 -38.44224 -38.44043
  Beta  occ. eigenvalues --  -38.43872 -38.43032  -2.21122  -2.20955  -2.20647
  Beta  occ. eigenvalues --   -2.19979  -2.19771  -2.19690  -2.18853  -1.14813
  Beta  occ. eigenvalues --   -1.14805  -1.14743  -1.14641  -1.14622  -1.14608
  Beta  occ. eigenvalues --   -1.14346  -1.14330  -1.14297  -1.13661  -1.13646
  Beta  occ. eigenvalues --   -1.13595  -1.13477  -1.13469  -1.13417  -1.13401
  Beta  occ. eigenvalues --   -1.13375  -1.13352  -1.12535  -1.12505  -1.12475
  Beta  occ. eigenvalues --   -0.15617  -0.13391  -0.11387
  Beta virt. eigenvalues --   -0.08151  -0.06918  -0.04609  -0.04488  -0.03312
  Beta virt. eigenvalues --   -0.02901  -0.02119  -0.01864  -0.01084  -0.00748
  Beta virt. eigenvalues --   -0.00503  -0.00343  -0.00257   0.00328   0.00492

 Mulliken charges and spin densities:
               1          2
     1  Na  -0.090974  -0.007650
     2  Na   0.646961   0.101141
     3  Na   0.764302   0.384596
     4  Na  -1.283333   0.076450
     5  Na   0.316343   0.119947
     6  Na  -0.388274   0.036928
     7  Na   0.034976   0.288589
 Sum of Mulliken charges =  -0.00000   1.00000

 Dipole moment (field-independent basis, Debye):
    X=              1.4192    Y=             -0.0323    Z=              0.1986  Tot=              1.4334
 Quadrupole moment (field-independent basis, Debye-Ang):
   XX=            -55.4861   YY=            -68.8839   ZZ=            -70.0403
   XY=             -3.8849   XZ=             -1.1037   YZ=             -1.5336

 Normal termination of Gaussian 16 at Sun Dec  3 14:14:24 2023.
