 Gaussian 16, Revision B.01,
 Gaussian 16:  ES64L-G16RevB.01 20-Dec-2017

 -------------------------
 #P B3LYP/6-311+g(d) force
 -------------------------

 -----
 DPGEN
 -----
 Symbolic Z-matrix:
 Charge =  0 Multiplicity = 2

                         Standard orientation:
 ---------------------------------------------------------------------
 Center     Atomic      Atomic             Coordinates (Angstroms)
 Number     Number       Type             X           Y           Z
 ---------------------------------------------------------------------
      1         11           0        2.552162    0.481525    1.151623
      2         11           0        3.227489   -3.116212    0.608681
      3         11           0       -2.926355   -0.866975   -0.446382
      4         11           0        2.605695    3.830747   -0.202871
      5         11           0       -5.623441    0.605038    0.978667
      6         11           0        0.144251   -2.168166   -1.093131
      7         11           0        0.020200    1.234044   -0.996586
 ---------------------------------------------------------------------

 SCF Done:  E(UB3LYP) =  -1136.12325877     A.U. after   19 cycles

 The electronic state is 2-A.
 Alpha  occ. eigenvalues --  -38.44628 -38.44566 -38.44564 -38.44289 -38.43970
 Alpha  occ. eigenvalues --  -38.43602 -38.43352  -2.20433  -2.20407  -2.20366
 Alpha  occ. eigenvalues --   -2.20057  -2.19815  -2.19388  -2.19177  -1.14170
 Alpha  occ. eigenvalues --   -1.14131  -1.14103  -1.14097  -1.14008  -1.13998
 Alpha  occ. eigenvalues --   -1.13997  -1.13984  -1.13971  -1.13730  -1.13728
 Alpha  occ. eigenvalues --   -1.13673  -1.13514  -1.13490  -1.13415  -1.13051
 Alpha  occ. eigenvalues --   -1.13043  -1.13012  -1.12865  -1.12862  -1.12824
 Alpha  occ. eigenvalues --   -0.16821  -0.13715  -0.12369  -0.11346
 Alpha virt. eigenvalues --   -0.06089  -0.05388  -0.04706  -0.03724  -0.02641
 Alpha virt. eigenvalues --   -0.02312  -0.02006  -0.01817  -0.01121  -0.01041
 Alpha virt. eigenvalues --   -0.00493  -0.00025   0.00245   0.00481   0.00596

  Beta  occ. eigenvalues --  -38.44609 -38.44535 -38.44455 -38.44287 -38.43943
  Beta  occ. eigenvalues --  -38.43568 -38.43352  -2.20400  -2.20353  -2.20163
  Beta  occ. eigenvalues --   -2.20053  -2.19770  -2.19325  -2.19188  -1.14142
  Beta  occ. eigenvalues --   -1.14109  -1.14069  -1.14066  -1.13977  -1.13920
  Beta  occ. eigenvalues --   -1.13860  -1.13858  -1.13850  -1.13727  -1.13724
  Beta  occ. eigenvalues --   -1.13671  -1.13486  -1.13460  -1.13366  -1.13008
  Beta  occ. eigenvalues --   -1.12996  -1.12973  -1.12882  -1.12879  -1.12764
  Beta  occ. eigenvalues --   -0.16295  -0.12945  -0.11990
  Beta virt. eigenvalues --   -0.07916  -0.06014  -0.05047  -0.04233  -0.03518
  Beta virt. eigenvalues --   -0.02329  -0.02175  -0.01739  -0.01378  -0.00843
  Beta virt. eigenvalues --   -0.00728  -0.00187   0.00080   0.00398   0.00546

 Mulliken charges and spin densities:
               1          2
     1  Na  -0.285397   0.145063
     2  Na   0.500058   0.220602
     3  Na  -0.605396   0.210744
     4  Na   0.489712  -0.000372
     5  Na   0.292303   0.367200
     6  Na   0.125245  -0.079119
     7  Na  -0.516525   0.135883
 Sum of Mulliken charges =  -0.00000   1.00000

 Dipole moment (field-independent basis, Debye):
    X=              0.6454    Y=              0.9533    Z=             -0.0539  Tot=              1.1525
 Quadrupole moment (field-independent basis, Debye-Ang):
   XX=            -65.9875   YY=            -59.9315   ZZ=            -69.5263
   XY=              1.3372   XZ=             -0.9036   YZ=              0.6123

 Normal termination of Gaussian 16 at Tue Nov 28 21:50:48 2023.
