 Gaussian 16, Revision B.01,
 Gaussian 16:  ES64L-G16RevB.01 20-Dec-2017

 -------------------------
 #P B3LYP/6-311+g(d) force
 -------------------------

 -----
 DPGEN
 -----
 Symbolic Z-matrix:
 Charge =  0 Multiplicity = 2

                         Standard orientation:
 ---------------------------------------------------------------------
 Center     Atomic      Atomic             Coordinates (Angstroms)
 Number     Number       Type             X           Y           Z
 ---------------------------------------------------------------------
      1         11           0       -1.100267   -1.749665   -0.843826
      2         11           0        1.791971   -2.020437    1.098927
      3         11           0        2.499969    1.829745    0.484614
      4         11           0       -0.505874    0.695052    1.742015
      5         11           0        1.917657   -0.617909   -1.610073
      6         11           0       -0.867057    1.958435   -1.183981
      7         11           0       -3.736398   -0.095221    0.312325
 ---------------------------------------------------------------------

 SCF Done:  E(UB3LYP) =  -1136.13312649     A.U. after   21 cycles

 The electronic state is 2-A.
 Alpha  occ. eigenvalues --  -38.44687 -38.43714 -38.43616 -38.43587 -38.43543
 Alpha  occ. eigenvalues --  -38.43381 -38.42967  -2.20491  -2.19570  -2.19538
 Alpha  occ. eigenvalues --   -2.19486  -2.19428  -2.19265  -2.18871  -1.14164
 Alpha  occ. eigenvalues --   -1.14156  -1.14121  -1.13324  -1.13244  -1.13217
 Alpha  occ. eigenvalues --   -1.13206  -1.13172  -1.13170  -1.13162  -1.13152
 Alpha  occ. eigenvalues --   -1.13141  -1.13081  -1.13053  -1.13048  -1.12926
 Alpha  occ. eigenvalues --   -1.12901  -1.12877  -1.12572  -1.12546  -1.12477
 Alpha  occ. eigenvalues --   -0.18744  -0.13511  -0.11627  -0.11251
 Alpha virt. eigenvalues --   -0.06272  -0.04783  -0.04276  -0.03310  -0.02917
 Alpha virt. eigenvalues --   -0.02650  -0.02022  -0.00789  -0.00537   0.00076
 Alpha virt. eigenvalues --    0.00241   0.00329   0.00487   0.00792   0.00885

  Beta  occ. eigenvalues --  -38.44688 -38.43683 -38.43581 -38.43557 -38.43500
  Beta  occ. eigenvalues --  -38.43355 -38.42948  -2.20494  -2.19514  -2.19430
  Beta  occ. eigenvalues --   -2.19421  -2.19408  -2.19218  -2.18840  -1.14165
  Beta  occ. eigenvalues --   -1.14150  -1.14123  -1.13279  -1.13185  -1.13173
  Beta  occ. eigenvalues --   -1.13142  -1.13131  -1.13127  -1.13098  -1.13089
  Beta  occ. eigenvalues --   -1.13080  -1.13044  -1.13038  -1.13017  -1.12887
  Beta  occ. eigenvalues --   -1.12868  -1.12833  -1.12553  -1.12494  -1.12460
  Beta  occ. eigenvalues --   -0.17964  -0.13361  -0.11443
  Beta virt. eigenvalues --   -0.07255  -0.06146  -0.04743  -0.03754  -0.03068
  Beta virt. eigenvalues --   -0.02279  -0.01947  -0.01623  -0.00758  -0.00198
  Beta virt. eigenvalues --    0.00127   0.00237   0.00358   0.00638   0.00865

 Mulliken charges and spin densities:
               1          2
     1  Na  -0.369638   0.084739
     2  Na   0.023550   0.073849
     3  Na   0.150805  -0.071184
     4  Na  -0.268374   0.474414
     5  Na   0.263913   0.328778
     6  Na  -0.289853   0.158935
     7  Na   0.489598  -0.049532
 Sum of Mulliken charges =  -0.00000   1.00000

 Dipole moment (field-independent basis, Debye):
    X=             -0.7232    Y=              0.2734    Z=              0.1452  Tot=              0.7866
 Quadrupole moment (field-independent basis, Debye-Ang):
   XX=            -51.1569   YY=            -73.3973   ZZ=            -68.5689
   XY=              0.0972   XZ=              0.3265   YZ=             -2.0857

 Normal termination of Gaussian 16 at Wed Nov 29 16:24:55 2023.
