 Gaussian 16, Revision B.01,
 Gaussian 16:  ES64L-G16RevB.01 20-Dec-2017

 -------------------------
 #P B3LYP/6-311+g(d) force
 -------------------------

 -----
 DPGEN
 -----
 Symbolic Z-matrix:
 Charge =  0 Multiplicity = 2

                         Standard orientation:
 ---------------------------------------------------------------------
 Center     Atomic      Atomic             Coordinates (Angstroms)
 Number     Number       Type             X           Y           Z
 ---------------------------------------------------------------------
      1         11           0        0.428275   -3.092462   -0.446602
      2         11           0       -3.323222    2.295987   -0.436430
      3         11           0       -3.652492   -1.469663    0.352663
      4         11           0       -0.489005    0.172926   -0.033927
      5         11           0        2.289506   -0.467108    2.553334
      6         11           0        2.810935   -0.247121   -2.266082
      7         11           0        1.936004    2.807440    0.277045
 ---------------------------------------------------------------------

 SCF Done:  E(UB3LYP) =  -1136.11440893     A.U. after   22 cycles

 The electronic state is 2-A.
 Alpha  occ. eigenvalues --  -38.45190 -38.44873 -38.44851 -38.44499 -38.44000
 Alpha  occ. eigenvalues --  -38.43359 -38.43294  -2.20929  -2.20648  -2.20619
 Alpha  occ. eigenvalues --   -2.20247  -2.19751  -2.19176  -2.19123  -1.14618
 Alpha  occ. eigenvalues --   -1.14588  -1.14548  -1.14308  -1.14283  -1.14266
 Alpha  occ. eigenvalues --   -1.14258  -1.14237  -1.14234  -1.13927  -1.13912
 Alpha  occ. eigenvalues --   -1.13872  -1.13428  -1.13415  -1.13399  -1.12906
 Alpha  occ. eigenvalues --   -1.12863  -1.12806  -1.12793  -1.12778  -1.12761
 Alpha  occ. eigenvalues --   -0.16550  -0.13118  -0.11308  -0.10976
 Alpha virt. eigenvalues --   -0.06403  -0.06207  -0.04622  -0.03025  -0.02880
 Alpha virt. eigenvalues --   -0.02609  -0.01971  -0.01453  -0.01099  -0.00744
 Alpha virt. eigenvalues --   -0.00678   0.00201   0.00262   0.00377   0.00575

  Beta  occ. eigenvalues --  -38.45193 -38.44771 -38.44757 -38.44502 -38.44006
  Beta  occ. eigenvalues --  -38.43364 -38.43292  -2.20934  -2.20457  -2.20445
  Beta  occ. eigenvalues --   -2.20252  -2.19765  -2.19174  -2.19134  -1.14621
  Beta  occ. eigenvalues --   -1.14591  -1.14554  -1.14176  -1.14163  -1.14139
  Beta  occ. eigenvalues --   -1.14126  -1.14122  -1.14112  -1.13930  -1.13916
  Beta  occ. eigenvalues --   -1.13877  -1.13440  -1.13412  -1.13404  -1.12883
  Beta  occ. eigenvalues --   -1.12867  -1.12811  -1.12794  -1.12784  -1.12764
  Beta  occ. eigenvalues --   -0.16082  -0.12777  -0.11269
  Beta virt. eigenvalues --   -0.07081  -0.06275  -0.05625  -0.04590  -0.02744
  Beta virt. eigenvalues --   -0.02292  -0.02067  -0.01770  -0.01316  -0.00895
  Beta virt. eigenvalues --   -0.00561  -0.00303   0.00264   0.00398   0.00516

 Mulliken charges and spin densities:
               1          2
     1  Na   0.580001   0.006477
     2  Na   0.014671  -0.128313
     3  Na   0.290728  -0.050618
     4  Na  -1.940478   0.322314
     5  Na   0.280722   0.393791
     6  Na   0.284225   0.434833
     7  Na   0.490130   0.021515
 Sum of Mulliken charges =  -0.00000   1.00000

 Dipole moment (field-independent basis, Debye):
    X=             -0.6704    Y=             -0.0274    Z=              0.1682  Tot=              0.6917
 Quadrupole moment (field-independent basis, Debye-Ang):
   XX=            -54.7943   YY=            -64.6144   ZZ=            -71.8622
   XY=              1.2375   XZ=             -0.6370   YZ=             -2.0315

 Normal termination of Gaussian 16 at Tue Dec  5 23:41:56 2023.
