 Gaussian 16, Revision B.01,
 Gaussian 16:  ES64L-G16RevB.01 20-Dec-2017

 -------------------------
 #P B3LYP/6-311+g(d) force
 -------------------------

 -----
 DPGEN
 -----
 Symbolic Z-matrix:
 Charge =  0 Multiplicity = 2

                         Standard orientation:
 ---------------------------------------------------------------------
 Center     Atomic      Atomic             Coordinates (Angstroms)
 Number     Number       Type             X           Y           Z
 ---------------------------------------------------------------------
      1         11           0       -1.687672    2.331205    0.049510
      2         11           0        3.104795   -0.118742    0.088080
      3         11           0       -0.242359    0.165622    2.176622
      4         11           0        1.388924    2.246166   -0.671356
      5         11           0       -0.379321   -0.676817   -1.529856
      6         11           0       -3.186492   -1.175199   -0.191711
      7         11           0        1.002126   -2.772235    0.078712
 ---------------------------------------------------------------------

 SCF Done:  E(UB3LYP) =  -1136.13005696     A.U. after   19 cycles

 The electronic state is 2-A.
 Alpha  occ. eigenvalues --  -38.44516 -38.44113 -38.43874 -38.43767 -38.43612
 Alpha  occ. eigenvalues --  -38.43262 -38.43111  -2.20318  -2.19974  -2.19743
 Alpha  occ. eigenvalues --   -2.19628  -2.19483  -2.19249  -2.19027  -1.14017
 Alpha  occ. eigenvalues --   -1.13965  -1.13949  -1.13693  -1.13623  -1.13611
 Alpha  occ. eigenvalues --   -1.13408  -1.13394  -1.13374  -1.13361  -1.13272
 Alpha  occ. eigenvalues --   -1.13240  -1.13180  -1.13149  -1.13110  -1.12913
 Alpha  occ. eigenvalues --   -1.12885  -1.12872  -1.12698  -1.12682  -1.12652
 Alpha  occ. eigenvalues --   -0.18702  -0.13111  -0.12494  -0.10923
 Alpha virt. eigenvalues --   -0.06094  -0.05089  -0.04327  -0.03300  -0.03025
 Alpha virt. eigenvalues --   -0.02681  -0.01768  -0.01048  -0.00328  -0.00123
 Alpha virt. eigenvalues --    0.00007   0.00327   0.00784   0.00836   0.00896

  Beta  occ. eigenvalues --  -38.44512 -38.44111 -38.43771 -38.43763 -38.43606
  Beta  occ. eigenvalues --  -38.43212 -38.43094  -2.20313  -2.19973  -2.19624
  Beta  occ. eigenvalues --   -2.19552  -2.19476  -2.19158  -2.18999  -1.14004
  Beta  occ. eigenvalues --   -1.13957  -1.13946  -1.13692  -1.13614  -1.13603
  Beta  occ. eigenvalues --   -1.13383  -1.13284  -1.13258  -1.13241  -1.13233
  Beta  occ. eigenvalues --   -1.13229  -1.13173  -1.13113  -1.13106  -1.12849
  Beta  occ. eigenvalues --   -1.12822  -1.12806  -1.12682  -1.12660  -1.12616
  Beta  occ. eigenvalues --   -0.17986  -0.12888  -0.12258
  Beta virt. eigenvalues --   -0.06992  -0.06064  -0.05008  -0.04281  -0.02523
  Beta virt. eigenvalues --   -0.02269  -0.01726  -0.01582  -0.00978  -0.00372
  Beta virt. eigenvalues --   -0.00087   0.00129   0.00366   0.00801   0.00910

 Mulliken charges and spin densities:
               1          2
     1  Na   0.183272   0.098338
     2  Na   0.008824   0.053859
     3  Na  -0.495654   0.604308
     4  Na   0.096394   0.094711
     5  Na  -0.146888   0.142572
     6  Na   0.109395  -0.038260
     7  Na   0.244657   0.044472
 Sum of Mulliken charges =  -0.00000   1.00000

 Dipole moment (field-independent basis, Debye):
    X=             -0.4282    Y=             -0.3696    Z=              0.3219  Tot=              0.6508
 Quadrupole moment (field-independent basis, Debye-Ang):
   XX=            -55.5527   YY=            -65.3423   ZZ=            -73.5943
   XY=             -0.3672   XZ=             -0.0376   YZ=             -1.5752

 Normal termination of Gaussian 16 at Thu Dec  7 17:23:31 2023.
