 Gaussian 16, Revision B.01,
 Gaussian 16:  ES64L-G16RevB.01 20-Dec-2017

 -------------------------
 #P B3LYP/6-311+g(d) force
 -------------------------

 -----
 DPGEN
 -----
 Symbolic Z-matrix:
 Charge =  0 Multiplicity = 2

                         Standard orientation:
 ---------------------------------------------------------------------
 Center     Atomic      Atomic             Coordinates (Angstroms)
 Number     Number       Type             X           Y           Z
 ---------------------------------------------------------------------
      1         11           0        3.145100    2.550871   -0.909681
      2         11           0       -3.759199    0.860242    0.126173
      3         11           0        0.555510    2.237129    1.188096
      4         11           0       -6.069041   -0.699833   -1.315510
      5         11           0        5.047903   -1.248783   -0.686643
      6         11           0        2.452702   -2.366833    0.091746
      7         11           0       -1.372976   -1.332792    1.505818
 ---------------------------------------------------------------------

 SCF Done:  E(UB3LYP) =  -1136.10595779     A.U. after   21 cycles

 The electronic state is 2-A.
 Alpha  occ. eigenvalues --  -38.45542 -38.44797 -38.44766 -38.44443 -38.44057
 Alpha  occ. eigenvalues --  -38.43751 -38.43698  -2.21324  -2.20576  -2.20569
 Alpha  occ. eigenvalues --   -2.20251  -2.19871  -2.19567  -2.19453  -1.14980
 Alpha  occ. eigenvalues --   -1.14952  -1.14946  -1.14239  -1.14234  -1.14218
 Alpha  occ. eigenvalues --   -1.14208  -1.14203  -1.14195  -1.13928  -1.13923
 Alpha  occ. eigenvalues --   -1.13879  -1.13624  -1.13528  -1.13508  -1.13214
 Alpha  occ. eigenvalues --   -1.13199  -1.13198  -1.13141  -1.13135  -1.13094
 Alpha  occ. eigenvalues --   -0.15832  -0.14102  -0.11932  -0.11783
 Alpha virt. eigenvalues --   -0.06461  -0.05892  -0.04490  -0.03453  -0.03125
 Alpha virt. eigenvalues --   -0.02563  -0.02510  -0.01329  -0.01154  -0.01072
 Alpha virt. eigenvalues --   -0.00697  -0.00409  -0.00121   0.00278   0.00708

  Beta  occ. eigenvalues --  -38.45457 -38.44731 -38.44707 -38.44447 -38.44039
  Beta  occ. eigenvalues --  -38.43754 -38.43714  -2.21165  -2.20461  -2.20453
  Beta  occ. eigenvalues --   -2.20263  -2.19838  -2.19572  -2.19487  -1.14872
  Beta  occ. eigenvalues --   -1.14843  -1.14840  -1.14169  -1.14151  -1.14139
  Beta  occ. eigenvalues --   -1.14135  -1.14131  -1.14110  -1.13939  -1.13933
  Beta  occ. eigenvalues --   -1.13855  -1.13601  -1.13506  -1.13486  -1.13218
  Beta  occ. eigenvalues --   -1.13200  -1.13194  -1.13167  -1.13160  -1.13094
  Beta  occ. eigenvalues --   -0.15156  -0.13619  -0.11481
  Beta virt. eigenvalues --   -0.08599  -0.05877  -0.05386  -0.04188  -0.03175
  Beta virt. eigenvalues --   -0.02910  -0.02398  -0.02187  -0.01206  -0.00853
  Beta virt. eigenvalues --   -0.00634  -0.00546  -0.00167  -0.00023   0.00335

 Mulliken charges and spin densities:
               1          2
     1  Na   0.074527   0.309833
     2  Na  -0.285375   0.115281
     3  Na  -0.282681  -0.001704
     4  Na   0.494284   0.117809
     5  Na   0.210370   0.035102
     6  Na  -0.126947   0.111621
     7  Na  -0.084178   0.312059
 Sum of Mulliken charges =  -0.00000   1.00000

 Dipole moment (field-independent basis, Debye):
    X=             -0.9371    Y=             -0.2436    Z=             -0.2895  Tot=              1.0106
 Quadrupole moment (field-independent basis, Debye-Ang):
   XX=            -57.5112   YY=            -71.1392   ZZ=            -69.4208
   XY=              8.6016   XZ=             -1.5079   YZ=             -2.1363

 Normal termination of Gaussian 16 at Mon Dec  4 01:29:14 2023.
