 Gaussian 16, Revision B.01,
 Gaussian 16:  ES64L-G16RevB.01 20-Dec-2017

 -------------------------
 #P B3LYP/6-311+g(d) force
 -------------------------

 -----
 DPGEN
 -----
 Symbolic Z-matrix:
 Charge =  0 Multiplicity = 2

                         Standard orientation:
 ---------------------------------------------------------------------
 Center     Atomic      Atomic             Coordinates (Angstroms)
 Number     Number       Type             X           Y           Z
 ---------------------------------------------------------------------
      1         11           0        3.047068    1.765580    0.352970
      2         11           0        4.218717   -1.236481   -0.488869
      3         11           0       -2.763466    2.050190   -0.742305
      4         11           0        0.055207    1.272679    1.073133
      5         11           0       -0.937946   -1.759649    1.790681
      6         11           0       -3.735125   -1.044803   -0.203935
      7         11           0        0.115545   -1.047516   -1.781675
 ---------------------------------------------------------------------

 SCF Done:  E(UB3LYP) =  -1136.10540150     A.U. after   32 cycles

 The electronic state is 2-A.
 Alpha  occ. eigenvalues --  -38.46478 -38.45256 -38.44861 -38.44323 -38.43899
 Alpha  occ. eigenvalues --  -38.43415 -38.42881  -2.22200  -2.21066  -2.20634
 Alpha  occ. eigenvalues --   -2.20151  -2.19753  -2.19239  -2.18808  -1.15900
 Alpha  occ. eigenvalues --   -1.15870  -1.15810  -1.14745  -1.14725  -1.14691
 Alpha  occ. eigenvalues --   -1.14297  -1.14293  -1.14258  -1.13850  -1.13810
 Alpha  occ. eigenvalues --   -1.13777  -1.13433  -1.13392  -1.13356  -1.12911
 Alpha  occ. eigenvalues --   -1.12900  -1.12881  -1.12485  -1.12466  -1.12430
 Alpha  occ. eigenvalues --   -0.17648  -0.14093  -0.11206  -0.10847
 Alpha virt. eigenvalues --   -0.07674  -0.06006  -0.03589  -0.03395  -0.03274
 Alpha virt. eigenvalues --   -0.02846  -0.02241  -0.01726  -0.00847  -0.00593
 Alpha virt. eigenvalues --   -0.00210   0.00074   0.00197   0.00492   0.00536

  Beta  occ. eigenvalues --  -38.46478 -38.45231 -38.44821 -38.44312 -38.43826
  Beta  occ. eigenvalues --  -38.43397 -38.42831  -2.22200  -2.21022  -2.20559
  Beta  occ. eigenvalues --   -2.20135  -2.19619  -2.19208  -2.18718  -1.15898
  Beta  occ. eigenvalues --   -1.15864  -1.15810  -1.14714  -1.14688  -1.14651
  Beta  occ. eigenvalues --   -1.14247  -1.14239  -1.14208  -1.13826  -1.13803
  Beta  occ. eigenvalues --   -1.13756  -1.13329  -1.13305  -1.13267  -1.12892
  Beta  occ. eigenvalues --   -1.12882  -1.12845  -1.12427  -1.12397  -1.12361
  Beta  occ. eigenvalues --   -0.17070  -0.13559  -0.10715
  Beta virt. eigenvalues --   -0.07585  -0.07450  -0.05632  -0.03138  -0.03096
  Beta virt. eigenvalues --   -0.02971  -0.02498  -0.01858  -0.01500  -0.00573
  Beta virt. eigenvalues --   -0.00381  -0.00057   0.00084   0.00318   0.00577

 Mulliken charges and spin densities:
               1          2
     1  Na   0.144339  -0.069295
     2  Na  -0.060975   0.269352
     3  Na   0.203777   0.177986
     4  Na  -0.562608   0.329556
     5  Na   0.435399   0.079343
     6  Na   0.065138   0.151052
     7  Na  -0.225069   0.062007
 Sum of Mulliken charges =  -0.00000   1.00000

 Dipole moment (field-independent basis, Debye):
    X=              0.0997    Y=             -1.0357    Z=             -0.3953  Tot=              1.1131
 Quadrupole moment (field-independent basis, Debye-Ang):
   XX=            -54.5668   YY=            -76.2889   ZZ=            -68.1035
   XY=              3.0311   XZ=              0.3084   YZ=             -1.9476

 Normal termination of Gaussian 16 at Thu Dec  7 21:53:15 2023.
