 Gaussian 16, Revision B.01,
 Gaussian 16:  ES64L-G16RevB.01 20-Dec-2017

 -------------------------
 #P B3LYP/6-311+g(d) force
 -------------------------

 -----
 DPGEN
 -----
 Symbolic Z-matrix:
 Charge =  0 Multiplicity = 2

                         Standard orientation:
 ---------------------------------------------------------------------
 Center     Atomic      Atomic             Coordinates (Angstroms)
 Number     Number       Type             X           Y           Z
 ---------------------------------------------------------------------
      1         11           0       -1.791126    2.263716    0.313581
      2         11           0        1.607011    2.106813   -0.636607
      3         11           0        0.127315    0.353324    2.163651
      4         11           0       -2.251881   -2.172485    1.077379
      5         11           0       -2.004483   -0.175176   -1.742295
      6         11           0        0.978306   -1.402427   -1.766898
      7         11           0        3.334857   -0.973765    0.591188
 ---------------------------------------------------------------------

 SCF Done:  E(UB3LYP) =  -1136.12876812     A.U. after   21 cycles

 The electronic state is 2-A.
 Alpha  occ. eigenvalues --  -38.44388 -38.44214 -38.44163 -38.44117 -38.43655
 Alpha  occ. eigenvalues --  -38.43517 -38.43130  -2.20178  -2.20078  -2.19979
 Alpha  occ. eigenvalues --   -2.19916  -2.19545  -2.19365  -2.19001  -1.13849
 Alpha  occ. eigenvalues --   -1.13826  -1.13807  -1.13749  -1.13724  -1.13706
 Alpha  occ. eigenvalues --   -1.13667  -1.13640  -1.13595  -1.13584  -1.13580
 Alpha  occ. eigenvalues --   -1.13549  -1.13255  -1.13212  -1.13161  -1.13049
 Alpha  occ. eigenvalues --   -1.13018  -1.12972  -1.12682  -1.12667  -1.12619
 Alpha  occ. eigenvalues --   -0.18121  -0.13011  -0.11933  -0.11641
 Alpha virt. eigenvalues --   -0.05713  -0.05323  -0.04419  -0.03456  -0.03217
 Alpha virt. eigenvalues --   -0.03182  -0.01430  -0.01061  -0.00437   0.00053
 Alpha virt. eigenvalues --    0.00187   0.00371   0.00478   0.00572   0.00760

  Beta  occ. eigenvalues --  -38.44347 -38.44150 -38.44146 -38.44114 -38.43620
  Beta  occ. eigenvalues --  -38.43486 -38.43123  -2.20104  -2.19957  -2.19953
  Beta  occ. eigenvalues --   -2.19912  -2.19481  -2.19311  -2.18991  -1.13786
  Beta  occ. eigenvalues --   -1.13778  -1.13755  -1.13674  -1.13646  -1.13638
  Beta  occ. eigenvalues --   -1.13630  -1.13592  -1.13582  -1.13582  -1.13568
  Beta  occ. eigenvalues --   -1.13545  -1.13202  -1.13171  -1.13110  -1.13004
  Beta  occ. eigenvalues --   -1.12975  -1.12938  -1.12667  -1.12650  -1.12612
  Beta  occ. eigenvalues --   -0.17352  -0.12849  -0.11462
  Beta virt. eigenvalues --   -0.08008  -0.05434  -0.05010  -0.04050  -0.03179
  Beta virt. eigenvalues --   -0.02739  -0.02262  -0.01340  -0.00813  -0.00291
  Beta virt. eigenvalues --    0.00132   0.00283   0.00429   0.00610   0.00673

 Mulliken charges and spin densities:
               1          2
     1  Na   0.438034  -0.060610
     2  Na  -0.404314   0.158165
     3  Na  -0.107227   0.531787
     4  Na  -0.166036   0.071193
     5  Na   0.023948   0.278774
     6  Na   0.019681   0.065167
     7  Na   0.195914  -0.044476
 Sum of Mulliken charges =  -0.00000   1.00000

 Dipole moment (field-independent basis, Debye):
    X=              0.4271    Y=             -0.0831    Z=              0.3836  Tot=              0.5800
 Quadrupole moment (field-independent basis, Debye-Ang):
   XX=            -59.6765   YY=            -69.9999   ZZ=            -66.8971
   XY=              0.1682   XZ=              0.4213   YZ=             -5.4896

 Normal termination of Gaussian 16 at Sun Dec  3 13:56:43 2023.
