 Gaussian 16, Revision B.01,
 Gaussian 16:  ES64L-G16RevB.01 20-Dec-2017

 -------------------------
 #P B3LYP/6-311+g(d) force
 -------------------------

 -----
 DPGEN
 -----
 Symbolic Z-matrix:
 Charge =  0 Multiplicity = 2

                         Standard orientation:
 ---------------------------------------------------------------------
 Center     Atomic      Atomic             Coordinates (Angstroms)
 Number     Number       Type             X           Y           Z
 ---------------------------------------------------------------------
      1         11           0       -3.668218   -0.117709   -0.460500
      2         11           0       -1.786614   -2.840080    0.041975
      3         11           0       -0.665157    0.245601    2.065669
      4         11           0        3.498132   -0.912366    0.578683
      5         11           0        1.678613   -2.099524   -1.325175
      6         11           0        1.936469    2.409336   -0.319019
      7         11           0       -0.993225    3.314743   -0.581633
 ---------------------------------------------------------------------

 SCF Done:  E(UB3LYP) =  -1136.11414882     A.U. after   22 cycles

 The electronic state is 2-A.
 Alpha  occ. eigenvalues --  -38.45284 -38.44736 -38.44604 -38.44337 -38.44328
 Alpha  occ. eigenvalues --  -38.43704 -38.43639  -2.21044  -2.20563  -2.20386
 Alpha  occ. eigenvalues --   -2.20160  -2.20140  -2.19514  -2.19449  -1.14717
 Alpha  occ. eigenvalues --   -1.14696  -1.14692  -1.14352  -1.14203  -1.14189
 Alpha  occ. eigenvalues --   -1.14058  -1.14051  -1.14028  -1.13843  -1.13808
 Alpha  occ. eigenvalues --   -1.13803  -1.13794  -1.13781  -1.13780  -1.13184
 Alpha  occ. eigenvalues --   -1.13162  -1.13147  -1.13105  -1.13084  -1.13061
 Alpha  occ. eigenvalues --   -0.16846  -0.13451  -0.12886  -0.09887
 Alpha virt. eigenvalues --   -0.06948  -0.06230  -0.04472  -0.03548  -0.03120
 Alpha virt. eigenvalues --   -0.02250  -0.01821  -0.01511  -0.01444  -0.00999
 Alpha virt. eigenvalues --   -0.00021   0.00266   0.00349   0.00438   0.00578

  Beta  occ. eigenvalues --  -38.45278 -38.44736 -38.44600 -38.44334 -38.44305
  Beta  occ. eigenvalues --  -38.43683 -38.43532  -2.21032  -2.20567  -2.20381
  Beta  occ. eigenvalues --   -2.20136  -2.20116  -2.19475  -2.19251  -1.14705
  Beta  occ. eigenvalues --   -1.14689  -1.14678  -1.14348  -1.14206  -1.14180
  Beta  occ. eigenvalues --   -1.14053  -1.14040  -1.14017  -1.13839  -1.13797
  Beta  occ. eigenvalues --   -1.13780  -1.13767  -1.13763  -1.13751  -1.13158
  Beta  occ. eigenvalues --   -1.13133  -1.13116  -1.12971  -1.12947  -1.12923
  Beta  occ. eigenvalues --   -0.16315  -0.13335  -0.12572
  Beta virt. eigenvalues --   -0.06778  -0.06357  -0.06011  -0.04319  -0.02995
  Beta virt. eigenvalues --   -0.02567  -0.01997  -0.01493  -0.01425  -0.01091
  Beta virt. eigenvalues --   -0.00922   0.00187   0.00392   0.00478   0.00610

 Mulliken charges and spin densities:
               1          2
     1  Na   0.006138   0.019667
     2  Na   0.053841   0.110665
     3  Na  -0.023743   0.565906
     4  Na   0.229099   0.064773
     5  Na  -0.131865   0.060872
     6  Na  -0.142705   0.060312
     7  Na   0.009235   0.117805
 Sum of Mulliken charges =  -0.00000   1.00000

 Dipole moment (field-independent basis, Debye):
    X=             -0.1958    Y=             -0.4306    Z=             -0.1354  Tot=              0.4921
 Quadrupole moment (field-independent basis, Debye-Ang):
   XX=            -54.3980   YY=            -68.5184   ZZ=            -76.5175
   XY=             -0.1777   XZ=              3.3259   YZ=             -0.6333

 Normal termination of Gaussian 16 at Mon Dec  4 01:06:35 2023.
