 Gaussian 16, Revision B.01,
 Gaussian 16:  ES64L-G16RevB.01 20-Dec-2017

 -------------------------
 #P B3LYP/6-311+g(d) force
 -------------------------

 -----
 DPGEN
 -----
 Symbolic Z-matrix:
 Charge =  0 Multiplicity = 2

                         Standard orientation:
 ---------------------------------------------------------------------
 Center     Atomic      Atomic             Coordinates (Angstroms)
 Number     Number       Type             X           Y           Z
 ---------------------------------------------------------------------
      1         11           0        0.265058    0.454939    1.845285
      2         11           0        2.504961   -1.826329    0.317729
      3         11           0        2.680182    1.443445   -0.469133
      4         11           0       -0.990454    2.959424   -0.276739
      5         11           0        0.018260   -0.419720   -1.375095
      6         11           0       -3.082845    0.070741    0.198673
      7         11           0       -1.395162   -2.682500   -0.240720
 ---------------------------------------------------------------------

 SCF Done:  E(UB3LYP) =  -1136.13433591     A.U. after   21 cycles

 The electronic state is 2-A.
 Alpha  occ. eigenvalues --  -38.44075 -38.44024 -38.43929 -38.43544 -38.43525
 Alpha  occ. eigenvalues --  -38.43134 -38.42890  -2.19924  -2.19880  -2.19781
 Alpha  occ. eigenvalues --   -2.19414  -2.19358  -2.19060  -2.18942  -1.13601
 Alpha  occ. eigenvalues --   -1.13594  -1.13567  -1.13561  -1.13546  -1.13518
 Alpha  occ. eigenvalues --   -1.13450  -1.13443  -1.13406  -1.13203  -1.13048
 Alpha  occ. eigenvalues --   -1.13032  -1.13025  -1.13022  -1.12999  -1.12768
 Alpha  occ. eigenvalues --   -1.12688  -1.12663  -1.12614  -1.12569  -1.12545
 Alpha  occ. eigenvalues --   -0.18763  -0.13343  -0.12446  -0.10251
 Alpha virt. eigenvalues --   -0.05661  -0.05436  -0.04797  -0.03142  -0.02685
 Alpha virt. eigenvalues --   -0.01999  -0.01629  -0.01277  -0.00484  -0.00463
 Alpha virt. eigenvalues --    0.00038   0.00345   0.00788   0.00832   0.00859

  Beta  occ. eigenvalues --  -38.44072 -38.44009 -38.43919 -38.43541 -38.43519
  Beta  occ. eigenvalues --  -38.43051 -38.42837  -2.19920  -2.19854  -2.19767
  Beta  occ. eigenvalues --   -2.19406  -2.19354  -2.18909  -2.18847  -1.13601
  Beta  occ. eigenvalues --   -1.13579  -1.13554  -1.13552  -1.13508  -1.13500
  Beta  occ. eigenvalues --   -1.13442  -1.13405  -1.13399  -1.13187  -1.13036
  Beta  occ. eigenvalues --   -1.13021  -1.13016  -1.13014  -1.12990  -1.12670
  Beta  occ. eigenvalues --   -1.12581  -1.12550  -1.12534  -1.12500  -1.12481
  Beta  occ. eigenvalues --   -0.18071  -0.13101  -0.12208
  Beta virt. eigenvalues --   -0.06400  -0.05616  -0.05401  -0.04736  -0.02379
  Beta virt. eigenvalues --   -0.01990  -0.01539  -0.01185  -0.01027  -0.00506
  Beta virt. eigenvalues --   -0.00481   0.00179   0.00390   0.00828   0.00855

 Mulliken charges and spin densities:
               1          2
     1  Na  -0.332227   0.632733
     2  Na   0.202813   0.051887
     3  Na   0.097324   0.011854
     4  Na  -0.061910  -0.028167
     5  Na  -0.397360   0.340477
     6  Na   0.104945  -0.010566
     7  Na   0.386414   0.001782
 Sum of Mulliken charges =  -0.00000   1.00000

 Dipole moment (field-independent basis, Debye):
    X=              0.1227    Y=              0.0713    Z=              0.1763  Tot=              0.2263
 Quadrupole moment (field-independent basis, Debye-Ang):
   XX=            -54.5371   YY=            -60.3646   ZZ=            -76.7652
   XY=             -0.6146   XZ=             -0.6835   YZ=             -2.0339

 Normal termination of Gaussian 16 at Thu Dec  7 17:19:52 2023.
