 Gaussian 16, Revision B.01,
 Gaussian 16:  ES64L-G16RevB.01 20-Dec-2017

 -------------------------
 #P B3LYP/6-311+g(d) force
 -------------------------

 -----
 DPGEN
 -----
 Symbolic Z-matrix:
 Charge =  0 Multiplicity = 2

                         Standard orientation:
 ---------------------------------------------------------------------
 Center     Atomic      Atomic             Coordinates (Angstroms)
 Number     Number       Type             X           Y           Z
 ---------------------------------------------------------------------
      1         11           0        0.215279   -2.823452   -0.388516
      2         11           0       -2.151081    2.216706   -0.195399
      3         11           0        1.459743    2.624469    0.103155
      4         11           0        0.353441   -0.448136    2.175369
      5         11           0       -0.168396    0.009954   -1.462889
      6         11           0       -3.184801   -1.080283    0.104653
      7         11           0        3.475814   -0.499258   -0.336373
 ---------------------------------------------------------------------

 SCF Done:  E(UB3LYP) =  -1136.13271165     A.U. after   19 cycles

 The electronic state is 2-A.
 Alpha  occ. eigenvalues --  -38.44844 -38.44468 -38.43584 -38.43526 -38.43520
 Alpha  occ. eigenvalues --  -38.43430 -38.43154  -2.20604  -2.20262  -2.19434
 Alpha  occ. eigenvalues --   -2.19365  -2.19332  -2.19287  -2.19143  -1.14281
 Alpha  occ. eigenvalues --   -1.14255  -1.14242  -1.13935  -1.13925  -1.13901
 Alpha  occ. eigenvalues --   -1.13102  -1.13090  -1.13068  -1.13051  -1.13046
 Alpha  occ. eigenvalues --   -1.13026  -1.13018  -1.13004  -1.12991  -1.12953
 Alpha  occ. eigenvalues --   -1.12940  -1.12887  -1.12819  -1.12768  -1.12742
 Alpha  occ. eigenvalues --   -0.18194  -0.12942  -0.12273  -0.10452
 Alpha virt. eigenvalues --   -0.06318  -0.05209  -0.04569  -0.03066  -0.02752
 Alpha virt. eigenvalues --   -0.02433  -0.02074  -0.01178  -0.00555  -0.00492
 Alpha virt. eigenvalues --   -0.00053   0.00286   0.00716   0.00799   0.00837

  Beta  occ. eigenvalues --  -38.44839 -38.44468 -38.43524 -38.43517 -38.43480
  Beta  occ. eigenvalues --  -38.43418 -38.43104  -2.20597  -2.20264  -2.19363
  Beta  occ. eigenvalues --   -2.19329  -2.19270  -2.19241  -2.19053  -1.14262
  Beta  occ. eigenvalues --   -1.14251  -1.14239  -1.13929  -1.13920  -1.13903
  Beta  occ. eigenvalues --   -1.13076  -1.13041  -1.13019  -1.13011  -1.12995
  Beta  occ. eigenvalues --   -1.12983  -1.12967  -1.12955  -1.12938  -1.12910
  Beta  occ. eigenvalues --   -1.12892  -1.12876  -1.12753  -1.12708  -1.12679
  Beta  occ. eigenvalues --   -0.17508  -0.12761  -0.12050
  Beta virt. eigenvalues --   -0.06529  -0.06260  -0.05212  -0.04504  -0.02378
  Beta virt. eigenvalues --   -0.02008  -0.01969  -0.01362  -0.01126  -0.00586
  Beta virt. eigenvalues --   -0.00521   0.00121   0.00333   0.00771   0.00813

 Mulliken charges and spin densities:
               1          2
     1  Na   0.212650  -0.035034
     2  Na   0.142886  -0.013096
     3  Na   0.050814  -0.016255
     4  Na  -0.560654   0.780733
     5  Na  -0.128597   0.308992
     6  Na   0.175107   0.003387
     7  Na   0.107793  -0.028728
 Sum of Mulliken charges =  -0.00000   1.00000

 Dipole moment (field-independent basis, Debye):
    X=              0.1450    Y=             -0.1996    Z=              0.1303  Tot=              0.2790
 Quadrupole moment (field-independent basis, Debye-Ang):
   XX=            -51.4072   YY=            -64.2626   ZZ=            -76.2507
   XY=              0.4140   XZ=             -1.3518   YZ=              0.8212

 Normal termination of Gaussian 16 at Thu Dec  7 21:13:20 2023.
