 Gaussian 16, Revision B.01,
 Gaussian 16:  ES64L-G16RevB.01 20-Dec-2017

 -------------------------
 #P B3LYP/6-311+g(d) force
 -------------------------

 -----
 DPGEN
 -----
 Symbolic Z-matrix:
 Charge =  0 Multiplicity = 2

                         Standard orientation:
 ---------------------------------------------------------------------
 Center     Atomic      Atomic             Coordinates (Angstroms)
 Number     Number       Type             X           Y           Z
 ---------------------------------------------------------------------
      1         11           0       -1.306982   -2.498633    0.141273
      2         11           0        2.617624    1.545101   -0.183152
      3         11           0       -0.915815    2.727014    0.474503
      4         11           0        2.495390   -1.919829   -0.021173
      5         11           0       -0.139817   -0.158527    1.663262
      6         11           0       -2.898712    0.029333   -0.555201
      7         11           0        0.148311    0.275541   -1.519511
 ---------------------------------------------------------------------

 SCF Done:  E(UB3LYP) =  -1136.13365772     A.U. after   19 cycles

 The electronic state is 2-A.
 Alpha  occ. eigenvalues --  -38.43971 -38.43878 -38.43693 -38.43364 -38.43237
 Alpha  occ. eigenvalues --  -38.42973 -38.42966  -2.19836  -2.19703  -2.19622
 Alpha  occ. eigenvalues --   -2.19289  -2.19123  -2.19032  -2.19005  -1.13560
 Alpha  occ. eigenvalues --   -1.13491  -1.13455  -1.13380  -1.13362  -1.13342
 Alpha  occ. eigenvalues --   -1.13335  -1.13290  -1.13253  -1.13036  -1.12933
 Alpha  occ. eigenvalues --   -1.12902  -1.12854  -1.12794  -1.12754  -1.12745
 Alpha  occ. eigenvalues --   -1.12669  -1.12645  -1.12623  -1.12611  -1.12591
 Alpha  occ. eigenvalues --   -0.19277  -0.13377  -0.12563  -0.10574
 Alpha virt. eigenvalues --   -0.05416  -0.05359  -0.04532  -0.03151  -0.02770
 Alpha virt. eigenvalues --   -0.02084  -0.01524  -0.01217  -0.00244  -0.00172
 Alpha virt. eigenvalues --    0.00087   0.00352   0.00831   0.00879   0.00928

  Beta  occ. eigenvalues --  -38.43964 -38.43877 -38.43672 -38.43356 -38.43221
  Beta  occ. eigenvalues --  -38.42912 -38.42885  -2.19827  -2.19704  -2.19589
  Beta  occ. eigenvalues --   -2.19279  -2.19099  -2.18921  -2.18858  -1.13546
  Beta  occ. eigenvalues --   -1.13477  -1.13446  -1.13370  -1.13363  -1.13331
  Beta  occ. eigenvalues --   -1.13322  -1.13262  -1.13210  -1.13013  -1.12905
  Beta  occ. eigenvalues --   -1.12892  -1.12821  -1.12747  -1.12734  -1.12680
  Beta  occ. eigenvalues --   -1.12583  -1.12554  -1.12549  -1.12512  -1.12487
  Beta  occ. eigenvalues --   -0.18578  -0.13084  -0.12284
  Beta virt. eigenvalues --   -0.06665  -0.05391  -0.05314  -0.04514  -0.02374
  Beta virt. eigenvalues --   -0.02010  -0.01441  -0.01161  -0.01047  -0.00244
  Beta virt. eigenvalues --   -0.00201   0.00183   0.00389   0.00864   0.00890

 Mulliken charges and spin densities:
               1          2
     1  Na   0.140395  -0.035265
     2  Na   0.100102  -0.065458
     3  Na   0.041883   0.012462
     4  Na  -0.109947  -0.094707
     5  Na  -0.213816   0.622342
     6  Na   0.276371   0.114983
     7  Na  -0.234987   0.445642
 Sum of Mulliken charges =  -0.00000   1.00000

 Dipole moment (field-independent basis, Debye):
    X=              0.3725    Y=              0.0280    Z=              0.0208  Tot=              0.3742
 Quadrupole moment (field-independent basis, Debye-Ang):
   XX=            -55.6456   YY=            -60.8861   ZZ=            -75.5122
   XY=             -0.5156   XZ=              0.7895   YZ=              0.8685

 Normal termination of Gaussian 16 at Thu Dec  7 22:21:44 2023.
