 Gaussian 16, Revision B.01,
 Gaussian 16:  ES64L-G16RevB.01 20-Dec-2017

 -------------------------
 #P B3LYP/6-311+g(d) force
 -------------------------

 -----
 DPGEN
 -----
 Symbolic Z-matrix:
 Charge =  0 Multiplicity = 2

                         Standard orientation:
 ---------------------------------------------------------------------
 Center     Atomic      Atomic             Coordinates (Angstroms)
 Number     Number       Type             X           Y           Z
 ---------------------------------------------------------------------
      1         11           0        0.272268   -2.001918   -0.363868
      2         11           0        3.417998   -3.065532   -0.117384
      3         11           0        3.390797    0.681933    0.365491
      4         11           0        1.607246    3.755234   -0.508389
      5         11           0       -0.112957    0.905538    1.138991
      6         11           0       -2.552446    0.322610   -0.833924
      7         11           0       -6.022905   -0.597866    0.319082
 ---------------------------------------------------------------------

 SCF Done:  E(UB3LYP) =  -1136.11958679     A.U. after   20 cycles

 The electronic state is 2-A.
 Alpha  occ. eigenvalues --  -38.44791 -38.44389 -38.44349 -38.44216 -38.43915
 Alpha  occ. eigenvalues --  -38.43730 -38.43635  -2.20577  -2.20236  -2.20179
 Alpha  occ. eigenvalues --   -2.19980  -2.19763  -2.19526  -2.19452  -1.14208
 Alpha  occ. eigenvalues --   -1.14207  -1.14178  -1.13942  -1.13922  -1.13888
 Alpha  occ. eigenvalues --   -1.13867  -1.13825  -1.13758  -1.13655  -1.13642
 Alpha  occ. eigenvalues --   -1.13599  -1.13467  -1.13445  -1.13366  -1.13189
 Alpha  occ. eigenvalues --   -1.13181  -1.13153  -1.13147  -1.13109  -1.13098
 Alpha  occ. eigenvalues --   -0.16897  -0.13512  -0.12296  -0.11158
 Alpha virt. eigenvalues --   -0.06220  -0.05270  -0.05175  -0.03585  -0.02647
 Alpha virt. eigenvalues --   -0.02293  -0.02022  -0.01363  -0.01277  -0.00946
 Alpha virt. eigenvalues --   -0.00557  -0.00120   0.00267   0.00350   0.00523

  Beta  occ. eigenvalues --  -38.44656 -38.44369 -38.44321 -38.44209 -38.43894
  Beta  occ. eigenvalues --  -38.43719 -38.43640  -2.20326  -2.20188  -2.20142
  Beta  occ. eigenvalues --   -2.19968  -2.19728  -2.19505  -2.19470  -1.14038
  Beta  occ. eigenvalues --   -1.14037  -1.14012  -1.13916  -1.13883  -1.13862
  Beta  occ. eigenvalues --   -1.13840  -1.13788  -1.13728  -1.13647  -1.13630
  Beta  occ. eigenvalues --   -1.13592  -1.13442  -1.13422  -1.13335  -1.13175
  Beta  occ. eigenvalues --   -1.13165  -1.13163  -1.13139  -1.13127  -1.13063
  Beta  occ. eigenvalues --   -0.16482  -0.12643  -0.12157
  Beta virt. eigenvalues --   -0.07500  -0.06114  -0.05002  -0.04770  -0.03267
  Beta virt. eigenvalues --   -0.02354  -0.02219  -0.01610  -0.01213  -0.00768
  Beta virt. eigenvalues --   -0.00500  -0.00379   0.00086   0.00408   0.00499

 Mulliken charges and spin densities:
               1          2
     1  Na  -0.458106   0.007660
     2  Na   0.465264   0.074786
     3  Na  -0.069243   0.209474
     4  Na   0.186481   0.029123
     5  Na  -0.409622   0.094182
     6  Na   0.332974  -0.106899
     7  Na  -0.047747   0.691674
 Sum of Mulliken charges =  -0.00000   1.00000

 Dipole moment (field-independent basis, Debye):
    X=              0.6319    Y=              0.3093    Z=             -0.1058  Tot=              0.7115
 Quadrupole moment (field-independent basis, Debye-Ang):
   XX=            -69.0811   YY=            -63.4870   ZZ=            -68.2675
   XY=             -2.1189   XZ=             -0.9205   YZ=             -2.4636

 Normal termination of Gaussian 16 at Wed Nov 29 00:07:13 2023.
