 Gaussian 16, Revision B.01,
 Gaussian 16:  ES64L-G16RevB.01 20-Dec-2017

 -------------------------
 #P B3LYP/6-311+g(d) force
 -------------------------

 -----
 DPGEN
 -----
 Symbolic Z-matrix:
 Charge =  0 Multiplicity = 2

                         Standard orientation:
 ---------------------------------------------------------------------
 Center     Atomic      Atomic             Coordinates (Angstroms)
 Number     Number       Type             X           Y           Z
 ---------------------------------------------------------------------
      1         11           0        0.852609    2.861977    0.129696
      2         11           0        2.906683    0.127640    0.018525
      3         11           0       -2.256087   -1.728563   -0.218946
      4         11           0        1.029291   -2.629318    0.099544
      5         11           0       -2.652170    1.521651   -0.172561
      6         11           0        0.397408   -0.017087   -1.745688
      7         11           0       -0.277733   -0.136300    1.889430
 ---------------------------------------------------------------------

 SCF Done:  E(UB3LYP) =  -1136.13947231     A.U. after   19 cycles

 The electronic state is 2-A.
 Alpha  occ. eigenvalues --  -38.43748 -38.43686 -38.43488 -38.43460 -38.43324
 Alpha  occ. eigenvalues --  -38.43239 -38.43193  -2.19591  -2.19586  -2.19360
 Alpha  occ. eigenvalues --   -2.19327  -2.19276  -2.19235  -2.19109  -1.13330
 Alpha  occ. eigenvalues --   -1.13272  -1.13254  -1.13245  -1.13230  -1.13223
 Alpha  occ. eigenvalues --   -1.13066  -1.13029  -1.13005  -1.12999  -1.12992
 Alpha  occ. eigenvalues --   -1.12960  -1.12950  -1.12913  -1.12902  -1.12888
 Alpha  occ. eigenvalues --   -1.12861  -1.12855  -1.12765  -1.12754  -1.12735
 Alpha  occ. eigenvalues --   -0.19120  -0.13144  -0.12637  -0.10834
 Alpha virt. eigenvalues --   -0.05363  -0.05034  -0.04800  -0.03245  -0.02937
 Alpha virt. eigenvalues --   -0.02489  -0.01268  -0.01090  -0.00262  -0.00137
 Alpha virt. eigenvalues --    0.00005   0.00377   0.00881   0.00921   0.00932

  Beta  occ. eigenvalues --  -38.43745 -38.43679 -38.43485 -38.43452 -38.43239
  Beta  occ. eigenvalues --  -38.43184 -38.43165  -2.19584  -2.19582  -2.19349
  Beta  occ. eigenvalues --   -2.19324  -2.19120  -2.19101  -2.19097  -1.13315
  Beta  occ. eigenvalues --   -1.13272  -1.13231  -1.13230  -1.13224  -1.13213
  Beta  occ. eigenvalues --   -1.13049  -1.13000  -1.12993  -1.12985  -1.12975
  Beta  occ. eigenvalues --   -1.12961  -1.12872  -1.12828  -1.12800  -1.12782
  Beta  occ. eigenvalues --   -1.12777  -1.12760  -1.12735  -1.12726  -1.12698
  Beta  occ. eigenvalues --   -0.18369  -0.12890  -0.12386
  Beta virt. eigenvalues --   -0.06897  -0.05347  -0.05022  -0.04766  -0.02419
  Beta virt. eigenvalues --   -0.02144  -0.01437  -0.01188  -0.01021  -0.00315
  Beta virt. eigenvalues --   -0.00195   0.00136   0.00396   0.00905   0.00922

 Mulliken charges and spin densities:
               1          2
     1  Na  -0.015259  -0.121905
     2  Na   0.320951  -0.043602
     3  Na   0.204253  -0.043089
     4  Na   0.359900  -0.036276
     5  Na  -0.025623  -0.104260
     6  Na  -0.376769   0.617618
     7  Na  -0.467453   0.731514
 Sum of Mulliken charges =  -0.00000   1.00000

 Dipole moment (field-independent basis, Debye):
    X=             -0.0539    Y=              0.1680    Z=              0.0626  Tot=              0.1873
 Quadrupole moment (field-independent basis, Debye-Ang):
   XX=            -58.8355   YY=            -61.2820   ZZ=            -73.7464
   XY=             -0.3901   XZ=              1.4308   YZ=              0.2714

 Normal termination of Gaussian 16 at Thu Dec  7 18:08:50 2023.
