 Gaussian 16, Revision B.01,
 Gaussian 16:  ES64L-G16RevB.01 20-Dec-2017

 -------------------------
 #P B3LYP/6-311+g(d) force
 -------------------------

 -----
 DPGEN
 -----
 Symbolic Z-matrix:
 Charge =  0 Multiplicity = 2

                         Standard orientation:
 ---------------------------------------------------------------------
 Center     Atomic      Atomic             Coordinates (Angstroms)
 Number     Number       Type             X           Y           Z
 ---------------------------------------------------------------------
      1         11           0       -0.855754    1.624626    1.025818
      2         11           0        2.243328    0.761973   -0.054633
      3         11           0        0.307024   -1.485042   -0.560903
      4         11           0       -2.876322   -1.111393    1.498757
      5         11           0       -3.692781   -1.446820   -1.419539
      6         11           0        4.349352   -2.424729    0.130366
      7         11           0        0.525153    4.081385   -0.619866
 ---------------------------------------------------------------------

 SCF Done:  E(UB3LYP) =  -1136.11603027     A.U. after   24 cycles

 The electronic state is 2-A.
 Alpha  occ. eigenvalues --  -38.45439 -38.45157 -38.44296 -38.44164 -38.43519
 Alpha  occ. eigenvalues --  -38.43474 -38.43248  -2.21260  -2.20884  -2.20164
 Alpha  occ. eigenvalues --   -2.20033  -2.19371  -2.19293  -2.19157  -1.15020
 Alpha  occ. eigenvalues --   -1.14945  -1.14823  -1.14563  -1.14561  -1.14494
 Alpha  occ. eigenvalues --   -1.13926  -1.13857  -1.13732  -1.13702  -1.13701
 Alpha  occ. eigenvalues --   -1.13670  -1.13025  -1.13000  -1.12983  -1.12972
 Alpha  occ. eigenvalues --   -1.12944  -1.12918  -1.12849  -1.12831  -1.12751
 Alpha  occ. eigenvalues --   -0.17412  -0.13824  -0.12524  -0.09912
 Alpha virt. eigenvalues --   -0.07215  -0.05200  -0.04774  -0.03637  -0.02894
 Alpha virt. eigenvalues --   -0.02252  -0.02038  -0.01621  -0.01094  -0.00761
 Alpha virt. eigenvalues --   -0.00239   0.00180   0.00312   0.00475   0.00591

  Beta  occ. eigenvalues --  -38.45430 -38.45159 -38.44295 -38.44146 -38.43438
  Beta  occ. eigenvalues --  -38.43433 -38.43211  -2.21246  -2.20887  -2.20163
  Beta  occ. eigenvalues --   -2.20008  -2.19219  -2.19215  -2.19095  -1.15010
  Beta  occ. eigenvalues --   -1.14916  -1.14818  -1.14565  -1.14563  -1.14495
  Beta  occ. eigenvalues --   -1.13919  -1.13846  -1.13707  -1.13706  -1.13677
  Beta  occ. eigenvalues --   -1.13623  -1.12923  -1.12919  -1.12894  -1.12891
  Beta  occ. eigenvalues --   -1.12883  -1.12867  -1.12807  -1.12795  -1.12675
  Beta  occ. eigenvalues --   -0.16878  -0.13380  -0.12316
  Beta virt. eigenvalues --   -0.07092  -0.06280  -0.05055  -0.04365  -0.03340
  Beta virt. eigenvalues --   -0.02729  -0.02085  -0.01840  -0.01063  -0.00923
  Beta virt. eigenvalues --   -0.00367  -0.00125   0.00262   0.00566   0.00643

 Mulliken charges and spin densities:
               1          2
     1  Na  -0.778938   0.112099
     2  Na  -0.786202   0.010432
     3  Na  -0.644151   0.048682
     4  Na   0.565071   0.043668
     5  Na   0.136976   0.539954
     6  Na   0.335225  -0.028355
     7  Na   1.172020   0.273519
 Sum of Mulliken charges =  -0.00000   1.00000

 Dipole moment (field-independent basis, Debye):
    X=              1.2777    Y=             -0.6261    Z=              0.6914  Tot=              1.5819
 Quadrupole moment (field-independent basis, Debye-Ang):
   XX=            -61.3651   YY=            -66.2522   ZZ=            -70.3042
   XY=             -7.3337   XZ=             -2.7894   YZ=             -3.0200

 Normal termination of Gaussian 16 at Tue Nov 28 19:21:05 2023.
