 Gaussian 16, Revision B.01,
 Gaussian 16:  ES64L-G16RevB.01 20-Dec-2017

 -------------------------
 #P B3LYP/6-311+g(d) force
 -------------------------

 -----
 DPGEN
 -----
 Symbolic Z-matrix:
 Charge =  0 Multiplicity = 2

                         Standard orientation:
 ---------------------------------------------------------------------
 Center     Atomic      Atomic             Coordinates (Angstroms)
 Number     Number       Type             X           Y           Z
 ---------------------------------------------------------------------
      1         11           0        1.204618   -2.252847    0.756245
      2         11           0        3.630528    0.275076   -0.669078
      3         11           0       -1.838712    2.769412   -1.085975
      4         11           0        0.284829    0.213598   -1.349253
      5         11           0       -2.085710   -0.323814    1.685229
      6         11           0       -1.945010   -2.442700   -1.085100
      7         11           0        0.749458    1.761275    1.747932
 ---------------------------------------------------------------------

 SCF Done:  E(UB3LYP) =  -1136.13238159     A.U. after   19 cycles

 The electronic state is 2-A.
 Alpha  occ. eigenvalues --  -38.44115 -38.44029 -38.44026 -38.43813 -38.43759
 Alpha  occ. eigenvalues --  -38.43526 -38.42972  -2.19929  -2.19861  -2.19848
 Alpha  occ. eigenvalues --   -2.19601  -2.19550  -2.19348  -2.18940  -1.13634
 Alpha  occ. eigenvalues --   -1.13611  -1.13566  -1.13529  -1.13522  -1.13511
 Alpha  occ. eigenvalues --   -1.13496  -1.13475  -1.13449  -1.13285  -1.13254
 Alpha  occ. eigenvalues --   -1.13235  -1.13231  -1.13198  -1.13168  -1.13026
 Alpha  occ. eigenvalues --   -1.13001  -1.12975  -1.12641  -1.12583  -1.12564
 Alpha  occ. eigenvalues --   -0.17958  -0.12422  -0.12110  -0.11220
 Alpha virt. eigenvalues --   -0.05570  -0.05218  -0.04653  -0.03175  -0.03068
 Alpha virt. eigenvalues --   -0.02630  -0.01540  -0.01228  -0.00819   0.00102
 Alpha virt. eigenvalues --    0.00164   0.00342   0.00412   0.00538   0.00772

  Beta  occ. eigenvalues --  -38.44108 -38.43984 -38.43979 -38.43811 -38.43729
  Beta  occ. eigenvalues --  -38.43512 -38.42925  -2.19919  -2.19780  -2.19763
  Beta  occ. eigenvalues --   -2.19597  -2.19496  -2.19323  -2.18857  -1.13629
  Beta  occ. eigenvalues --   -1.13583  -1.13524  -1.13501  -1.13466  -1.13448
  Beta  occ. eigenvalues --   -1.13428  -1.13415  -1.13394  -1.13275  -1.13252
  Beta  occ. eigenvalues --   -1.13230  -1.13185  -1.13162  -1.13134  -1.12998
  Beta  occ. eigenvalues --   -1.12986  -1.12958  -1.12573  -1.12524  -1.12500
  Beta  occ. eigenvalues --   -0.17240  -0.12273  -0.11853
  Beta virt. eigenvalues --   -0.07339  -0.05462  -0.04957  -0.04404  -0.02718
  Beta virt. eigenvalues --   -0.02634  -0.01775  -0.01436  -0.01114  -0.00412
  Beta virt. eigenvalues --    0.00098   0.00242   0.00376   0.00561   0.00618

 Mulliken charges and spin densities:
               1          2
     1  Na  -0.000854   0.100851
     2  Na   0.288048  -0.078079
     3  Na  -0.056894   0.008616
     4  Na  -0.351235   0.413944
     5  Na   0.033691   0.265736
     6  Na   0.188510  -0.022492
     7  Na  -0.101267   0.311423
 Sum of Mulliken charges =  -0.00000   1.00000

 Dipole moment (field-independent basis, Debye):
    X=              0.0953    Y=             -0.0967    Z=              0.3194  Tot=              0.3470
 Quadrupole moment (field-independent basis, Debye-Ang):
   XX=            -58.6363   YY=            -65.5662   ZZ=            -68.2695
   XY=              0.6293   XZ=              1.2952   YZ=             -0.2819

 Normal termination of Gaussian 16 at Tue Dec  5 14:12:12 2023.
