 Gaussian 16, Revision B.01,
 Gaussian 16:  ES64L-G16RevB.01 20-Dec-2017

 -------------------------
 #P B3LYP/6-311+g(d) force
 -------------------------

 -----
 DPGEN
 -----
 Symbolic Z-matrix:
 Charge =  0 Multiplicity = 2

                         Standard orientation:
 ---------------------------------------------------------------------
 Center     Atomic      Atomic             Coordinates (Angstroms)
 Number     Number       Type             X           Y           Z
 ---------------------------------------------------------------------
      1         11           0        1.619019    2.315762    0.324691
      2         11           0       -1.681902    2.153095   -0.324212
      3         11           0       -3.138320   -0.997912    0.092935
      4         11           0        2.586291   -0.301238   -0.817035
      5         11           0       -0.379995   -0.662611   -1.790418
      6         11           0        0.999737   -2.732068    0.662544
      7         11           0       -0.004830    0.224973    1.851496
 ---------------------------------------------------------------------

 SCF Done:  E(UB3LYP) =  -1136.13285876     A.U. after   19 cycles

 The electronic state is 2-A.
 Alpha  occ. eigenvalues --  -38.44129 -38.43608 -38.43584 -38.43532 -38.43516
 Alpha  occ. eigenvalues --  -38.43470 -38.43116  -2.19941  -2.19536  -2.19495
 Alpha  occ. eigenvalues --   -2.19491  -2.19425  -2.19396  -2.19048  -1.13621
 Alpha  occ. eigenvalues --   -1.13597  -1.13584  -1.13277  -1.13238  -1.13224
 Alpha  occ. eigenvalues --   -1.13194  -1.13184  -1.13163  -1.13151  -1.13105
 Alpha  occ. eigenvalues --   -1.13104  -1.13080  -1.13066  -1.13044  -1.13033
 Alpha  occ. eigenvalues --   -1.13020  -1.13011  -1.12714  -1.12693  -1.12666
 Alpha  occ. eigenvalues --   -0.19093  -0.13139  -0.12447  -0.11267
 Alpha virt. eigenvalues --   -0.05613  -0.04888  -0.04284  -0.03441  -0.03161
 Alpha virt. eigenvalues --   -0.02755  -0.01443  -0.01001  -0.00192   0.00075
 Alpha virt. eigenvalues --    0.00182   0.00380   0.00844   0.00873   0.00936

  Beta  occ. eigenvalues --  -38.44129 -38.43601 -38.43560 -38.43514 -38.43435
  Beta  occ. eigenvalues --  -38.43405 -38.43110  -2.19945  -2.19495  -2.19481
  Beta  occ. eigenvalues --   -2.19365  -2.19346  -2.19306  -2.19041  -1.13615
  Beta  occ. eigenvalues --   -1.13599  -1.13584  -1.13236  -1.13208  -1.13195
  Beta  occ. eigenvalues --   -1.13147  -1.13142  -1.13105  -1.13081  -1.13073
  Beta  occ. eigenvalues --   -1.13023  -1.13015  -1.13004  -1.12997  -1.12973
  Beta  occ. eigenvalues --   -1.12956  -1.12942  -1.12703  -1.12672  -1.12653
  Beta  occ. eigenvalues --   -0.18341  -0.12906  -0.12204
  Beta virt. eigenvalues --   -0.07284  -0.05570  -0.04818  -0.04229  -0.02697
  Beta virt. eigenvalues --   -0.02422  -0.01712  -0.01342  -0.00912  -0.00077
  Beta virt. eigenvalues --    0.00071   0.00209   0.00414   0.00855   0.00914

 Mulliken charges and spin densities:
               1          2
     1  Na   0.180848   0.063762
     2  Na  -0.053254  -0.003701
     3  Na  -0.063626  -0.087405
     4  Na   0.251228   0.140530
     5  Na  -0.036517   0.339748
     6  Na  -0.116520   0.026212
     7  Na  -0.162159   0.520854
 Sum of Mulliken charges =  -0.00000   1.00000

 Dipole moment (field-independent basis, Debye):
    X=             -0.5933    Y=             -0.2793    Z=              0.0388  Tot=              0.6569
 Quadrupole moment (field-independent basis, Debye-Ang):
   XX=            -59.0778   YY=            -64.0866   ZZ=            -71.5187
   XY=              0.6546   XZ=             -1.0166   YZ=             -2.1920

 Normal termination of Gaussian 16 at Thu Dec  7 13:59:41 2023.
