 Gaussian 16, Revision B.01,
 Gaussian 16:  ES64L-G16RevB.01 20-Dec-2017

 -------------------------
 #P B3LYP/6-311+g(d) force
 -------------------------

 -----
 DPGEN
 -----
 Symbolic Z-matrix:
 Charge =  0 Multiplicity = 2

                         Standard orientation:
 ---------------------------------------------------------------------
 Center     Atomic      Atomic             Coordinates (Angstroms)
 Number     Number       Type             X           Y           Z
 ---------------------------------------------------------------------
      1         11           0       -1.007348    2.744002   -0.643247
      2         11           0       -0.165901   -0.311694   -1.223956
      3         11           0       -0.275022   -0.202241    2.277538
      4         11           0        2.038790    2.039120    0.362815
      5         11           0       -0.603366   -2.957875   -0.184326
      6         11           0        3.191641   -1.170026   -0.462657
      7         11           0       -3.178793   -0.141285   -0.126168
 ---------------------------------------------------------------------

 SCF Done:  E(UB3LYP) =  -1136.13101611     A.U. after   19 cycles

 The electronic state is 2-A.
 Alpha  occ. eigenvalues --  -38.44289 -38.44167 -38.43961 -38.43835 -38.43480
 Alpha  occ. eigenvalues --  -38.43277 -38.42889  -2.20120  -2.19949  -2.19819
 Alpha  occ. eigenvalues --   -2.19694  -2.19330  -2.19140  -2.18965  -1.13813
 Alpha  occ. eigenvalues --   -1.13783  -1.13743  -1.13625  -1.13608  -1.13604
 Alpha  occ. eigenvalues --   -1.13587  -1.13464  -1.13409  -1.13352  -1.13316
 Alpha  occ. eigenvalues --   -1.13304  -1.13019  -1.12997  -1.12975  -1.12852
 Alpha  occ. eigenvalues --   -1.12783  -1.12765  -1.12647  -1.12616  -1.12564
 Alpha  occ. eigenvalues --   -0.18503  -0.12892  -0.12451  -0.10761
 Alpha virt. eigenvalues --   -0.05960  -0.05005  -0.04694  -0.03092  -0.02753
 Alpha virt. eigenvalues --   -0.02621  -0.01745  -0.01149  -0.00478  -0.00304
 Alpha virt. eigenvalues --   -0.00023   0.00321   0.00785   0.00848   0.00884

  Beta  occ. eigenvalues --  -38.44284 -38.44162 -38.43956 -38.43721 -38.43475
  Beta  occ. eigenvalues --  -38.43266 -38.42849  -2.20113  -2.19941  -2.19811
  Beta  occ. eigenvalues --   -2.19484  -2.19324  -2.19122  -2.18896  -1.13804
  Beta  occ. eigenvalues --   -1.13766  -1.13736  -1.13612  -1.13599  -1.13597
  Beta  occ. eigenvalues --   -1.13582  -1.13441  -1.13405  -1.13212  -1.13172
  Beta  occ. eigenvalues --   -1.13154  -1.13017  -1.12979  -1.12966  -1.12832
  Beta  occ. eigenvalues --   -1.12762  -1.12753  -1.12589  -1.12565  -1.12513
  Beta  occ. eigenvalues --   -0.17807  -0.12710  -0.12193
  Beta virt. eigenvalues --   -0.06801  -0.05929  -0.04925  -0.04612  -0.02348
  Beta virt. eigenvalues --   -0.02088  -0.01682  -0.01510  -0.01086  -0.00497
  Beta virt. eigenvalues --   -0.00286   0.00136   0.00370   0.00789   0.00894

 Mulliken charges and spin densities:
               1          2
     1  Na   0.164704   0.094895
     2  Na  -0.550901  -0.142646
     3  Na  -0.431428   0.694316
     4  Na   0.218888   0.115167
     5  Na   0.201298   0.092012
     6  Na   0.055833   0.052672
     7  Na   0.341606   0.093585
 Sum of Mulliken charges =  -0.00000   1.00000

 Dipole moment (field-independent basis, Debye):
    X=             -0.2029    Y=             -0.3464    Z=              0.2668  Tot=              0.4820
 Quadrupole moment (field-independent basis, Debye-Ang):
   XX=            -55.6932   YY=            -62.0985   ZZ=            -74.7375
   XY=             -0.1379   XZ=              0.0204   YZ=             -0.0823

 Normal termination of Gaussian 16 at Fri Dec  8 00:48:24 2023.
