 Gaussian 16, Revision B.01,
 Gaussian 16:  ES64L-G16RevB.01 20-Dec-2017

 -------------------------
 #P B3LYP/6-311+g(d) force
 -------------------------

 -----
 DPGEN
 -----
 Symbolic Z-matrix:
 Charge =  0 Multiplicity = 2

                         Standard orientation:
 ---------------------------------------------------------------------
 Center     Atomic      Atomic             Coordinates (Angstroms)
 Number     Number       Type             X           Y           Z
 ---------------------------------------------------------------------
      1         11           0        0.979574    2.209048    0.076755
      2         11           0        3.321480   -0.170484   -1.481584
      3         11           0       -3.349941   -1.119111   -0.844147
      4         11           0       -1.224586   -0.344341    2.035328
      5         11           0        0.046374   -1.387770   -1.080015
      6         11           0       -2.066887    1.735470   -0.365270
      7         11           0        2.293986   -0.922812    1.658933
 ---------------------------------------------------------------------

 SCF Done:  E(UB3LYP) =  -1136.12765371     A.U. after   25 cycles

 The electronic state is 2-A.
 Alpha  occ. eigenvalues --  -38.44686 -38.44501 -38.44489 -38.43686 -38.43651
 Alpha  occ. eigenvalues --  -38.43266 -38.42421  -2.20541  -2.20390  -2.20322
 Alpha  occ. eigenvalues --   -2.19545  -2.19517  -2.19204  -2.18296  -1.14222
 Alpha  occ. eigenvalues --   -1.14186  -1.14172  -1.14077  -1.14036  -1.13992
 Alpha  occ. eigenvalues --   -1.13989  -1.13961  -1.13946  -1.13247  -1.13231
 Alpha  occ. eigenvalues --   -1.13208  -1.13202  -1.13187  -1.13098  -1.12894
 Alpha  occ. eigenvalues --   -1.12864  -1.12819  -1.11998  -1.11946  -1.11919
 Alpha  occ. eigenvalues --   -0.18642  -0.14205  -0.11758  -0.10936
 Alpha virt. eigenvalues --   -0.06314  -0.05389  -0.04700  -0.03363  -0.02682
 Alpha virt. eigenvalues --   -0.02355  -0.02186  -0.01081  -0.00597  -0.00150
 Alpha virt. eigenvalues --    0.00196   0.00336   0.00438   0.00499   0.00746

  Beta  occ. eigenvalues --  -38.44638 -38.44457 -38.44434 -38.43681 -38.43639
  Beta  occ. eigenvalues --  -38.43250 -38.42406  -2.20454  -2.20268  -2.20261
  Beta  occ. eigenvalues --   -2.19538  -2.19500  -2.19175  -2.18269  -1.14154
  Beta  occ. eigenvalues --   -1.14131  -1.14096  -1.13996  -1.13941  -1.13935
  Beta  occ. eigenvalues --   -1.13915  -1.13909  -1.13906  -1.13237  -1.13208
  Beta  occ. eigenvalues --   -1.13200  -1.13182  -1.13178  -1.13092  -1.12873
  Beta  occ. eigenvalues --   -1.12841  -1.12797  -1.11978  -1.11921  -1.11896
  Beta  occ. eigenvalues --   -0.17944  -0.13981  -0.10776
  Beta virt. eigenvalues --   -0.07749  -0.06145  -0.04825  -0.04495  -0.02969
  Beta virt. eigenvalues --   -0.02167  -0.01977  -0.01767  -0.00682  -0.00410
  Beta virt. eigenvalues --    0.00023   0.00234   0.00405   0.00534   0.00626

 Mulliken charges and spin densities:
               1          2
     1  Na  -0.681632   0.280484
     2  Na   0.960750   0.037167
     3  Na   0.575214   0.013070
     4  Na  -0.141696   0.249583
     5  Na  -1.141687   0.275001
     6  Na   0.244721  -0.004864
     7  Na   0.184330   0.149560
 Sum of Mulliken charges =  -0.00000   1.00000

 Dipole moment (field-independent basis, Debye):
    X=              0.4965    Y=             -0.3056    Z=              0.2740  Tot=              0.6442
 Quadrupole moment (field-independent basis, Debye-Ang):
   XX=            -50.3433   YY=            -78.8507   ZZ=            -66.0760
   XY=              0.1831   XZ=             -0.6398   YZ=             -4.4543

 Normal termination of Gaussian 16 at Tue Dec  5 17:37:58 2023.
