 Gaussian 16, Revision B.01,
 Gaussian 16:  ES64L-G16RevB.01 20-Dec-2017

 -------------------------
 #P B3LYP/6-311+g(d) force
 -------------------------

 -----
 DPGEN
 -----
 Symbolic Z-matrix:
 Charge =  0 Multiplicity = 2

                         Standard orientation:
 ---------------------------------------------------------------------
 Center     Atomic      Atomic             Coordinates (Angstroms)
 Number     Number       Type             X           Y           Z
 ---------------------------------------------------------------------
      1         11           0        1.510959    2.002857   -1.301650
      2         11           0       -1.012666   -1.496518   -1.572755
      3         11           0        0.078249   -0.567342    1.049712
      4         11           0       -2.979243    2.000975   -0.148096
      5         11           0       -3.825968   -0.963025    1.043357
      6         11           0        3.501176    0.574119    1.690033
      7         11           0        2.727494   -1.551065   -0.760602
 ---------------------------------------------------------------------

 SCF Done:  E(UB3LYP) =  -1136.11559979     A.U. after   27 cycles

 The electronic state is 2-A.
 Alpha  occ. eigenvalues --  -38.44819 -38.44616 -38.44521 -38.44367 -38.44312
 Alpha  occ. eigenvalues --  -38.43564 -38.42793  -2.20624  -2.20463  -2.20431
 Alpha  occ. eigenvalues --   -2.20165  -2.20081  -2.19400  -2.18654  -1.14297
 Alpha  occ. eigenvalues --   -1.14270  -1.14248  -1.14179  -1.14161  -1.14133
 Alpha  occ. eigenvalues --   -1.14085  -1.14070  -1.14033  -1.13832  -1.13810
 Alpha  occ. eigenvalues --   -1.13775  -1.13763  -1.13738  -1.13727  -1.13069
 Alpha  occ. eigenvalues --   -1.13055  -1.13017  -1.12380  -1.12304  -1.12253
 Alpha  occ. eigenvalues --   -0.17797  -0.14312  -0.10994  -0.10587
 Alpha virt. eigenvalues --   -0.06575  -0.05931  -0.04996  -0.03117  -0.02773
 Alpha virt. eigenvalues --   -0.02455  -0.02109  -0.01313  -0.00953  -0.00603
 Alpha virt. eigenvalues --   -0.00078   0.00123   0.00207   0.00353   0.00542

  Beta  occ. eigenvalues --  -38.44789 -38.44603 -38.44511 -38.44317 -38.44290
  Beta  occ. eigenvalues --  -38.43525 -38.42785  -2.20567  -2.20442  -2.20416
  Beta  occ. eigenvalues --   -2.20092  -2.20022  -2.19326  -2.18641  -1.14257
  Beta  occ. eigenvalues --   -1.14236  -1.14211  -1.14158  -1.14128  -1.14115
  Beta  occ. eigenvalues --   -1.14072  -1.14048  -1.14022  -1.13772  -1.13746
  Beta  occ. eigenvalues --   -1.13735  -1.13720  -1.13707  -1.13674  -1.13020
  Beta  occ. eigenvalues --   -1.12997  -1.12970  -1.12374  -1.12281  -1.12241
  Beta  occ. eigenvalues --   -0.17179  -0.14019  -0.10414
  Beta virt. eigenvalues --   -0.07351  -0.06385  -0.05535  -0.04628  -0.02761
  Beta virt. eigenvalues --   -0.02622  -0.02020  -0.01465  -0.00992  -0.00672
  Beta virt. eigenvalues --   -0.00500   0.00060   0.00204   0.00279   0.00407

 Mulliken charges and spin densities:
               1          2
     1  Na  -0.345535   0.467549
     2  Na   0.079846   0.174362
     3  Na  -1.530052  -0.083975
     4  Na  -0.126213   0.076477
     5  Na   0.713440   0.131905
     6  Na   0.666119   0.112681
     7  Na   0.542394   0.121001
 Sum of Mulliken charges =  -0.00000   1.00000

 Dipole moment (field-independent basis, Debye):
    X=             -0.1858    Y=             -0.7062    Z=             -0.1824  Tot=              0.7527
 Quadrupole moment (field-independent basis, Debye-Ang):
   XX=            -56.1026   YY=            -74.4307   ZZ=            -67.5058
   XY=              0.9014   XZ=             -2.8624   YZ=             -2.6604

 Normal termination of Gaussian 16 at Tue Dec  5 19:21:25 2023.
