 Gaussian 16, Revision B.01,
 Gaussian 16:  ES64L-G16RevB.01 20-Dec-2017

 -------------------------
 #P B3LYP/6-311+g(d) force
 -------------------------

 -----
 DPGEN
 -----
 Symbolic Z-matrix:
 Charge =  0 Multiplicity = 2

                         Standard orientation:
 ---------------------------------------------------------------------
 Center     Atomic      Atomic             Coordinates (Angstroms)
 Number     Number       Type             X           Y           Z
 ---------------------------------------------------------------------
      1         11           0        1.016363    2.521654    0.287262
      2         11           0       -1.986382   -1.584593   -1.179608
      3         11           0       -1.303927    1.563956   -0.956127
      4         11           0       -2.486162    0.423095    2.057008
      5         11           0        1.338500    0.039573   -1.960636
      6         11           0        0.502438   -2.474072    0.520599
      7         11           0        2.919170   -0.489611    1.231502
 ---------------------------------------------------------------------

 SCF Done:  E(UB3LYP) =  -1136.12594496     A.U. after   20 cycles

 The electronic state is 2-A.
 Alpha  occ. eigenvalues --  -38.44876 -38.44305 -38.43804 -38.43538 -38.43526
 Alpha  occ. eigenvalues --  -38.43174 -38.43139  -2.20669  -2.20216  -2.19641
 Alpha  occ. eigenvalues --   -2.19427  -2.19420  -2.19137  -2.19042  -1.14320
 Alpha  occ. eigenvalues --   -1.14308  -1.14284  -1.13922  -1.13845  -1.13835
 Alpha  occ. eigenvalues --   -1.13323  -1.13302  -1.13291  -1.13269  -1.13119
 Alpha  occ. eigenvalues --   -1.13112  -1.13057  -1.13039  -1.13037  -1.12796
 Alpha  occ. eigenvalues --   -1.12764  -1.12720  -1.12713  -1.12708  -1.12671
 Alpha  occ. eigenvalues --   -0.18545  -0.12975  -0.12313  -0.11710
 Alpha virt. eigenvalues --   -0.05294  -0.04958  -0.04573  -0.03890  -0.03281
 Alpha virt. eigenvalues --   -0.02968  -0.00992  -0.00717  -0.00501   0.00218
 Alpha virt. eigenvalues --    0.00296   0.00394   0.00511   0.00591   0.00761

  Beta  occ. eigenvalues --  -38.44802 -38.44252 -38.43778 -38.43523 -38.43520
  Beta  occ. eigenvalues --  -38.43168 -38.43123  -2.20530  -2.20120  -2.19592
  Beta  occ. eigenvalues --   -2.19423  -2.19391  -2.19115  -2.19035  -1.14223
  Beta  occ. eigenvalues --   -1.14215  -1.14191  -1.13855  -1.13769  -1.13762
  Beta  occ. eigenvalues --   -1.13299  -1.13287  -1.13258  -1.13238  -1.13104
  Beta  occ. eigenvalues --   -1.13090  -1.13045  -1.13029  -1.12997  -1.12774
  Beta  occ. eigenvalues --   -1.12726  -1.12707  -1.12694  -1.12685  -1.12671
  Beta  occ. eigenvalues --   -0.17809  -0.12636  -0.12131
  Beta virt. eigenvalues --   -0.07941  -0.04972  -0.04554  -0.04355  -0.03722
  Beta virt. eigenvalues --   -0.02630  -0.02122  -0.00912  -0.00492  -0.00295
  Beta virt. eigenvalues --    0.00259   0.00355   0.00482   0.00615   0.00795

 Mulliken charges and spin densities:
               1          2
     1  Na  -0.126629   0.123108
     2  Na   0.197195   0.119116
     3  Na   0.999451   0.034397
     4  Na  -0.329635   0.280400
     5  Na  -0.406561   0.205697
     6  Na  -0.343807   0.098061
     7  Na   0.009987   0.139220
 Sum of Mulliken charges =  -0.00000   1.00000

 Dipole moment (field-independent basis, Debye):
    X=              0.0357    Y=             -0.0146    Z=              0.4758  Tot=              0.4774
 Quadrupole moment (field-independent basis, Debye-Ang):
   XX=            -63.3409   YY=            -71.6700   ZZ=            -62.3931
   XY=              1.8459   XZ=             -0.6796   YZ=              2.0625

 Normal termination of Gaussian 16 at Tue Dec  5 12:16:08 2023.
