 Gaussian 16, Revision B.01,
 Gaussian 16:  ES64L-G16RevB.01 20-Dec-2017

 -------------------------
 #P B3LYP/6-311+g(d) force
 -------------------------

 -----
 DPGEN
 -----
 Symbolic Z-matrix:
 Charge =  0 Multiplicity = 2

                         Standard orientation:
 ---------------------------------------------------------------------
 Center     Atomic      Atomic             Coordinates (Angstroms)
 Number     Number       Type             X           Y           Z
 ---------------------------------------------------------------------
      1         11           0       -3.292608    0.330048   -1.298078
      2         11           0        3.113088    0.823237   -1.167781
      3         11           0        0.438804   -2.568175    1.532613
      4         11           0       -1.830200    3.427850    0.654680
      5         11           0        2.840995   -2.703572   -0.430154
      6         11           0       -3.192428   -2.400441    0.049527
      7         11           0        1.922349    3.091054    0.659192
 ---------------------------------------------------------------------

 SCF Done:  E(UB3LYP) =  -1136.10655009     A.U. after   20 cycles

 The electronic state is 2-A.
 Alpha  occ. eigenvalues --  -38.44884 -38.44829 -38.44503 -38.44351 -38.44208
 Alpha  occ. eigenvalues --  -38.44036 -38.44028  -2.20681  -2.20622  -2.20310
 Alpha  occ. eigenvalues --   -2.20132  -2.20025  -2.19852  -2.19816  -1.14369
 Alpha  occ. eigenvalues --   -1.14334  -1.14323  -1.14314  -1.14286  -1.14262
 Alpha  occ. eigenvalues --   -1.13969  -1.13966  -1.13954  -1.13845  -1.13809
 Alpha  occ. eigenvalues --   -1.13775  -1.13683  -1.13670  -1.13656  -1.13501
 Alpha  occ. eigenvalues --   -1.13496  -1.13469  -1.13469  -1.13450  -1.13436
 Alpha  occ. eigenvalues --   -0.15763  -0.13759  -0.13292  -0.10553
 Alpha virt. eigenvalues --   -0.07430  -0.04807  -0.04529  -0.03783  -0.03478
 Alpha virt. eigenvalues --   -0.02158  -0.01786  -0.01589  -0.01230  -0.01039
 Alpha virt. eigenvalues --   -0.00883   0.00064   0.00203   0.00233   0.00713

  Beta  occ. eigenvalues --  -38.44848 -38.44817 -38.44500 -38.44355 -38.44174
  Beta  occ. eigenvalues --  -38.43968 -38.43947  -2.20616  -2.20605  -2.20308
  Beta  occ. eigenvalues --   -2.20147  -2.19966  -2.19743  -2.19650  -1.14323
  Beta  occ. eigenvalues --   -1.14300  -1.14291  -1.14278  -1.14266  -1.14233
  Beta  occ. eigenvalues --   -1.13970  -1.13962  -1.13935  -1.13839  -1.13824
  Beta  occ. eigenvalues --   -1.13760  -1.13639  -1.13632  -1.13612  -1.13428
  Beta  occ. eigenvalues --   -1.13425  -1.13396  -1.13356  -1.13339  -1.13327
  Beta  occ. eigenvalues --   -0.15324  -0.13131  -0.12526
  Beta virt. eigenvalues --   -0.07532  -0.07334  -0.04455  -0.04088  -0.03632
  Beta virt. eigenvalues --   -0.03115  -0.01911  -0.01566  -0.01259  -0.01039
  Beta virt. eigenvalues --   -0.00914  -0.00559   0.00221   0.00276   0.00340

 Mulliken charges and spin densities:
               1          2
     1  Na  -0.092728   0.039586
     2  Na  -0.403801   0.275230
     3  Na  -0.422386   0.222978
     4  Na  -0.119851   0.449322
     5  Na   0.463063  -0.034344
     6  Na   0.252049   0.112293
     7  Na   0.323655  -0.065065
 Sum of Mulliken charges =  -0.00000   1.00000

 Dipole moment (field-independent basis, Debye):
    X=              0.0735    Y=             -1.0524    Z=             -0.0500  Tot=              1.0562
 Quadrupole moment (field-independent basis, Debye-Ang):
   XX=            -68.5805   YY=            -69.6834   ZZ=            -65.7710
   XY=             -1.4614   XZ=             -1.4460   YZ=              0.5259

 Normal termination of Gaussian 16 at Sun Dec  3 12:28:41 2023.
