 Gaussian 16, Revision B.01,
 Gaussian 16:  ES64L-G16RevB.01 20-Dec-2017

 -------------------------
 #P B3LYP/6-311+g(d) force
 -------------------------

 -----
 DPGEN
 -----
 Symbolic Z-matrix:
 Charge =  0 Multiplicity = 2

                         Standard orientation:
 ---------------------------------------------------------------------
 Center     Atomic      Atomic             Coordinates (Angstroms)
 Number     Number       Type             X           Y           Z
 ---------------------------------------------------------------------
      1         11           0       -1.224026    1.691366    1.472572
      2         11           0       -0.310285   -1.038485   -0.936102
      3         11           0       -3.008975   -2.091018    0.500968
      4         11           0       -3.148210    1.286201   -1.239539
      5         11           0        3.212876   -0.591116   -1.497544
      6         11           0        2.321722   -1.201553    1.592838
      7         11           0        2.156898    1.944605    0.106808
 ---------------------------------------------------------------------

 SCF Done:  E(UB3LYP) =  -1136.11835828     A.U. after   25 cycles

 The electronic state is 2-A.
 Alpha  occ. eigenvalues --  -38.44951 -38.44642 -38.44295 -38.44043 -38.43986
 Alpha  occ. eigenvalues --  -38.43730 -38.43130  -2.20755  -2.20488  -2.20084
 Alpha  occ. eigenvalues --   -2.19892  -2.19880  -2.19606  -2.18950  -1.14434
 Alpha  occ. eigenvalues --   -1.14405  -1.14370  -1.14144  -1.14140  -1.14126
 Alpha  occ. eigenvalues --   -1.13768  -1.13749  -1.13719  -1.13627  -1.13559
 Alpha  occ. eigenvalues --   -1.13551  -1.13528  -1.13505  -1.13464  -1.13314
 Alpha  occ. eigenvalues --   -1.13271  -1.13225  -1.12633  -1.12606  -1.12590
 Alpha  occ. eigenvalues --   -0.17944  -0.14494  -0.10949  -0.10407
 Alpha virt. eigenvalues --   -0.06501  -0.06252  -0.05107  -0.03056  -0.02536
 Alpha virt. eigenvalues --   -0.02304  -0.02133  -0.01317  -0.00925  -0.00457
 Alpha virt. eigenvalues --    0.00046   0.00198   0.00211   0.00239   0.00454

  Beta  occ. eigenvalues --  -38.44923 -38.44593 -38.44299 -38.44028 -38.43936
  Beta  occ. eigenvalues --  -38.43716 -38.43118  -2.20702  -2.20397  -2.20092
  Beta  occ. eigenvalues --   -2.19869  -2.19788  -2.19583  -2.18930  -1.14394
  Beta  occ. eigenvalues --   -1.14372  -1.14336  -1.14085  -1.14071  -1.14054
  Beta  occ. eigenvalues --   -1.13773  -1.13751  -1.13722  -1.13590  -1.13541
  Beta  occ. eigenvalues --   -1.13514  -1.13460  -1.13440  -1.13418  -1.13274
  Beta  occ. eigenvalues --   -1.13248  -1.13215  -1.12622  -1.12586  -1.12567
  Beta  occ. eigenvalues --   -0.17334  -0.14237  -0.10786
  Beta virt. eigenvalues --   -0.06952  -0.06117  -0.06014  -0.04550  -0.02967
  Beta virt. eigenvalues --   -0.02376  -0.01844  -0.01401  -0.01127  -0.00534
  Beta virt. eigenvalues --   -0.00339   0.00169   0.00257   0.00293   0.00476

 Mulliken charges and spin densities:
               1          2
     1  Na   0.022234   0.083262
     2  Na  -0.444200   0.356658
     3  Na   0.065034  -0.091012
     4  Na   0.156370   0.000398
     5  Na   0.655355   0.216943
     6  Na  -0.266813   0.297166
     7  Na  -0.187980   0.136584
 Sum of Mulliken charges =  -0.00000   1.00000

 Dipole moment (field-independent basis, Debye):
    X=             -0.3489    Y=             -0.1733    Z=              0.0664  Tot=              0.3952
 Quadrupole moment (field-independent basis, Debye-Ang):
   XX=            -50.3521   YY=            -76.0326   ZZ=            -68.6128
   XY=             -0.9137   XZ=              1.0828   YZ=             -4.5291

 Normal termination of Gaussian 16 at Tue Dec  5 21:01:38 2023.
