 Gaussian 16, Revision B.01,
 Gaussian 16:  ES64L-G16RevB.01 20-Dec-2017

 -------------------------
 #P B3LYP/6-311+g(d) force
 -------------------------

 -----
 DPGEN
 -----
 Symbolic Z-matrix:
 Charge =  0 Multiplicity = 2

                         Standard orientation:
 ---------------------------------------------------------------------
 Center     Atomic      Atomic             Coordinates (Angstroms)
 Number     Number       Type             X           Y           Z
 ---------------------------------------------------------------------
      1         11           0        2.109739   -0.901734   -1.111152
      2         11           0        5.357608   -1.214501    1.142768
      3         11           0        3.886020    2.072257    0.040770
      4         11           0        0.081766    1.437698   -0.460587
      5         11           0       -1.106639   -1.476921   -0.011862
      6         11           0       -4.184841   -0.451495   -0.742448
      7         11           0       -6.143652    0.534697    1.142511
 ---------------------------------------------------------------------

 SCF Done:  E(UB3LYP) =  -1136.11296827     A.U. after   20 cycles

 The electronic state is 2-A.
 Alpha  occ. eigenvalues --  -38.44917 -38.44438 -38.44229 -38.44077 -38.44067
 Alpha  occ. eigenvalues --  -38.43849 -38.43847  -2.20768  -2.20318  -2.20016
 Alpha  occ. eigenvalues --   -2.19896  -2.19840  -2.19733  -2.19715  -1.14488
 Alpha  occ. eigenvalues --   -1.14465  -1.14361  -1.13994  -1.13988  -1.13929
 Alpha  occ. eigenvalues --   -1.13703  -1.13702  -1.13675  -1.13633  -1.13536
 Alpha  occ. eigenvalues --   -1.13534  -1.13501  -1.13494  -1.13447  -1.13426
 Alpha  occ. eigenvalues --   -1.13397  -1.13365  -1.13351  -1.13334  -1.13288
 Alpha  occ. eigenvalues --   -0.17008  -0.14288  -0.11927  -0.10733
 Alpha virt. eigenvalues --   -0.06680  -0.05541  -0.04807  -0.03167  -0.02940
 Alpha virt. eigenvalues --   -0.02782  -0.02347  -0.01131  -0.00970  -0.00796
 Alpha virt. eigenvalues --   -0.00315  -0.00286   0.00009   0.00295   0.00603

  Beta  occ. eigenvalues --  -38.44905 -38.44398 -38.44197 -38.44074 -38.44009
  Beta  occ. eigenvalues --  -38.43848 -38.43821  -2.20749  -2.20247  -2.19961
  Beta  occ. eigenvalues --   -2.19889  -2.19729  -2.19713  -2.19683  -1.14462
  Beta  occ. eigenvalues --   -1.14431  -1.14351  -1.13947  -1.13945  -1.13853
  Beta  occ. eigenvalues --   -1.13698  -1.13669  -1.13638  -1.13571  -1.13531
  Beta  occ. eigenvalues --   -1.13529  -1.13426  -1.13415  -1.13403  -1.13378
  Beta  occ. eigenvalues --   -1.13364  -1.13356  -1.13336  -1.13315  -1.13279
  Beta  occ. eigenvalues --   -0.16494  -0.13991  -0.11674
  Beta virt. eigenvalues --   -0.07182  -0.06405  -0.05030  -0.04583  -0.02995
  Beta virt. eigenvalues --   -0.02791  -0.02295  -0.01871  -0.01060  -0.00877
  Beta virt. eigenvalues --   -0.00425  -0.00089   0.00037   0.00179   0.00379

 Mulliken charges and spin densities:
               1          2
     1  Na   0.190323   0.088018
     2  Na   0.043164   0.283910
     3  Na   0.289963  -0.035476
     4  Na  -0.467867   0.446430
     5  Na  -0.138018   0.162812
     6  Na   0.120772   0.031079
     7  Na  -0.038337   0.023227
 Sum of Mulliken charges =  -0.00000   1.00000

 Dipole moment (field-independent basis, Debye):
    X=              0.1091    Y=              0.2762    Z=              0.2424  Tot=              0.3833
 Quadrupole moment (field-independent basis, Debye-Ang):
   XX=            -69.4706   YY=            -67.6967   ZZ=            -66.7758
   XY=             -1.3241   XZ=             -2.2228   YZ=              1.6326

 Normal termination of Gaussian 16 at Tue Nov 28 22:35:12 2023.
