 Gaussian 16, Revision B.01,
 Gaussian 16:  ES64L-G16RevB.01 20-Dec-2017

 -------------------------
 #P B3LYP/6-311+g(d) force
 -------------------------

 -----
 DPGEN
 -----
 Symbolic Z-matrix:
 Charge =  0 Multiplicity = 2

                         Standard orientation:
 ---------------------------------------------------------------------
 Center     Atomic      Atomic             Coordinates (Angstroms)
 Number     Number       Type             X           Y           Z
 ---------------------------------------------------------------------
      1         11           0        0.238858   -0.120554   -1.798310
      2         11           0       -0.276472    0.006586    1.830376
      3         11           0       -1.472317   -2.397994   -0.368174
      4         11           0        2.042446   -2.004447    0.069278
      5         11           0       -3.101526    0.513618    0.384556
      6         11           0       -0.303658    2.931598   -0.561314
      7         11           0        2.872670    1.071194    0.443589
 ---------------------------------------------------------------------

 SCF Done:  E(UB3LYP) =  -1136.13790856     A.U. after   19 cycles

 The electronic state is 2-A.
 Alpha  occ. eigenvalues --  -38.43992 -38.43871 -38.43577 -38.43354 -38.43338
 Alpha  occ. eigenvalues --  -38.43321 -38.43235  -2.19835  -2.19719  -2.19519
 Alpha  occ. eigenvalues --   -2.19320  -2.19259  -2.19144  -2.19129  -1.13542
 Alpha  occ. eigenvalues --   -1.13489  -1.13463  -1.13405  -1.13387  -1.13352
 Alpha  occ. eigenvalues --   -1.13200  -1.13149  -1.13139  -1.13046  -1.12988
 Alpha  occ. eigenvalues --   -1.12974  -1.12917  -1.12896  -1.12881  -1.12822
 Alpha  occ. eigenvalues --   -1.12796  -1.12792  -1.12784  -1.12771  -1.12743
 Alpha  occ. eigenvalues --   -0.18894  -0.13181  -0.12360  -0.11023
 Alpha virt. eigenvalues --   -0.05569  -0.04921  -0.04594  -0.03344  -0.02979
 Alpha virt. eigenvalues --   -0.02597  -0.01503  -0.01017  -0.00308  -0.00070
 Alpha virt. eigenvalues --    0.00021   0.00363   0.00835   0.00904   0.00930

  Beta  occ. eigenvalues --  -38.43984 -38.43861 -38.43505 -38.43348 -38.43307
  Beta  occ. eigenvalues --  -38.43257 -38.43224  -2.19823  -2.19705  -2.19388
  Beta  occ. eigenvalues --   -2.19252  -2.19173  -2.19121  -2.19114  -1.13519
  Beta  occ. eigenvalues --   -1.13478  -1.13452  -1.13398  -1.13365  -1.13335
  Beta  occ. eigenvalues --   -1.13114  -1.13060  -1.13042  -1.12987  -1.12919
  Beta  occ. eigenvalues --   -1.12898  -1.12884  -1.12869  -1.12825  -1.12784
  Beta  occ. eigenvalues --   -1.12773  -1.12767  -1.12760  -1.12753  -1.12720
  Beta  occ. eigenvalues --   -0.18174  -0.12900  -0.12069
  Beta virt. eigenvalues --   -0.07143  -0.05482  -0.04929  -0.04532  -0.02579
  Beta virt. eigenvalues --   -0.02223  -0.01579  -0.01379  -0.00948  -0.00290
  Beta virt. eigenvalues --   -0.00117   0.00122   0.00392   0.00879   0.00909

 Mulliken charges and spin densities:
               1          2
     1  Na  -0.153690   0.578195
     2  Na  -0.279652   0.561391
     3  Na   0.181162  -0.052355
     4  Na   0.145012  -0.043409
     5  Na   0.126280  -0.015411
     6  Na  -0.058724  -0.032633
     7  Na   0.039611   0.004223
 Sum of Mulliken charges =  -0.00000   1.00000

 Dipole moment (field-independent basis, Debye):
    X=             -0.0736    Y=              0.0987    Z=              0.1427  Tot=              0.1885
 Quadrupole moment (field-independent basis, Debye-Ang):
   XX=            -56.9158   YY=            -63.9934   ZZ=            -72.9861
   XY=              0.1121   XZ=              1.0874   YZ=             -0.0191

 Normal termination of Gaussian 16 at Tue Dec  5 13:03:13 2023.
