 Gaussian 16, Revision B.01,
 Gaussian 16:  ES64L-G16RevB.01 20-Dec-2017

 -------------------------
 #P B3LYP/6-311+g(d) force
 -------------------------

 -----
 DPGEN
 -----
 Symbolic Z-matrix:
 Charge =  0 Multiplicity = 2

                         Standard orientation:
 ---------------------------------------------------------------------
 Center     Atomic      Atomic             Coordinates (Angstroms)
 Number     Number       Type             X           Y           Z
 ---------------------------------------------------------------------
      1         11           0       -1.752891    1.393100   -0.911186
      2         11           0       -1.262899    0.479796    1.634014
      3         11           0        0.369496   -0.196817   -1.684186
      4         11           0        2.925215   -0.274738   -0.350286
      5         11           0        0.995111    1.646978    0.588714
      6         11           0        0.704486   -1.396120    1.102514
      7         11           0       -1.978516   -1.652198   -0.379586
 ---------------------------------------------------------------------

 SCF Done:  E(UB3LYP) =  -1136.08096321     A.U. after   23 cycles

 The electronic state is 2-A.
 Alpha  occ. eigenvalues --  -38.44603 -38.44407 -38.44354 -38.43752 -38.43415
 Alpha  occ. eigenvalues --  -38.43136 -38.43003  -2.20837  -2.20603  -2.20434
 Alpha  occ. eigenvalues --   -2.19879  -2.19608  -2.19195  -2.19179  -1.14660
 Alpha  occ. eigenvalues --   -1.14582  -1.14481  -1.14445  -1.14369  -1.14195
 Alpha  occ. eigenvalues --   -1.14142  -1.14058  -1.14019  -1.13533  -1.13513
 Alpha  occ. eigenvalues --   -1.13433  -1.13320  -1.13232  -1.13203  -1.12904
 Alpha  occ. eigenvalues --   -1.12865  -1.12842  -1.12828  -1.12777  -1.12746
 Alpha  occ. eigenvalues --   -0.21559  -0.14233  -0.12928  -0.11951
 Alpha virt. eigenvalues --   -0.05572  -0.04263  -0.03957  -0.03817  -0.02981
 Alpha virt. eigenvalues --   -0.02822  -0.01241  -0.00353  -0.00305   0.00302
 Alpha virt. eigenvalues --    0.00737   0.00922   0.00970   0.01060   0.01081

  Beta  occ. eigenvalues --  -38.44527 -38.44400 -38.44270 -38.43722 -38.43369
  Beta  occ. eigenvalues --  -38.43124 -38.42977  -2.20702  -2.20460  -2.20419
  Beta  occ. eigenvalues --   -2.19829  -2.19531  -2.19163  -2.19155  -1.14567
  Beta  occ. eigenvalues --   -1.14475  -1.14389  -1.14350  -1.14288  -1.14117
  Beta  occ. eigenvalues --   -1.14101  -1.14044  -1.13965  -1.13496  -1.13448
  Beta  occ. eigenvalues --   -1.13392  -1.13269  -1.13169  -1.13128  -1.12876
  Beta  occ. eigenvalues --   -1.12854  -1.12795  -1.12778  -1.12757  -1.12707
  Beta  occ. eigenvalues --   -0.20713  -0.13960  -0.11695
  Beta virt. eigenvalues --   -0.08494  -0.05513  -0.03970  -0.03450  -0.03259
  Beta virt. eigenvalues --   -0.02198  -0.02024  -0.01180  -0.00333  -0.00072
  Beta virt. eigenvalues --    0.00332   0.00804   0.00937   0.01060   0.01110

 Mulliken charges and spin densities:
               1          2
     1  Na   0.081345   0.030099
     2  Na   0.762195   0.269569
     3  Na  -0.064231   0.394089
     4  Na   0.975779   0.002523
     5  Na  -0.864496   0.140718
     6  Na  -0.577083   0.188088
     7  Na  -0.313509  -0.025087
 Sum of Mulliken charges =  -0.00000   1.00000

 Dipole moment (field-independent basis, Debye):
    X=              0.1897    Y=             -0.1576    Z=             -0.2421  Tot=              0.3456
 Quadrupole moment (field-independent basis, Debye-Ang):
   XX=            -57.0059   YY=            -75.0632   ZZ=            -65.0141
   XY=              0.1463   XZ=              0.3095   YZ=              0.0929

 Normal termination of Gaussian 16 at Fri Dec  8 20:24:12 2023.
