 Gaussian 16, Revision B.01,
 Gaussian 16:  ES64L-G16RevB.01 20-Dec-2017

 -------------------------
 #P B3LYP/6-311+g(d) force
 -------------------------

 -----
 DPGEN
 -----
 Symbolic Z-matrix:
 Charge =  0 Multiplicity = 2

                         Standard orientation:
 ---------------------------------------------------------------------
 Center     Atomic      Atomic             Coordinates (Angstroms)
 Number     Number       Type             X           Y           Z
 ---------------------------------------------------------------------
      1         11           0       -3.952966    0.436817   -0.868993
      2         11           0        3.708218   -1.900168    0.755834
      3         11           0       -2.997835   -2.719836   -0.514851
      4         11           0        0.311291   -1.286514    0.757752
      5         11           0       -1.610987    1.964686    1.603773
      6         11           0        0.784044    3.021919   -0.363596
      7         11           0        3.758235    0.483095   -1.369920
 ---------------------------------------------------------------------

 SCF Done:  E(UB3LYP) =  -1136.11444131     A.U. after   22 cycles

 The electronic state is 2-A.
 Alpha  occ. eigenvalues --  -38.44971 -38.44488 -38.44326 -38.44246 -38.44087
 Alpha  occ. eigenvalues --  -38.44086 -38.43928  -2.20762  -2.20294  -2.20098
 Alpha  occ. eigenvalues --   -2.20017  -2.19900  -2.19891  -2.19740  -1.14432
 Alpha  occ. eigenvalues --   -1.14399  -1.14394  -1.13975  -1.13957  -1.13950
 Alpha  occ. eigenvalues --   -1.13772  -1.13757  -1.13748  -1.13696  -1.13686
 Alpha  occ. eigenvalues --   -1.13662  -1.13574  -1.13558  -1.13538  -1.13535
 Alpha  occ. eigenvalues --   -1.13524  -1.13501  -1.13407  -1.13389  -1.13374
 Alpha  occ. eigenvalues --   -0.16431  -0.14017  -0.12150  -0.10454
 Alpha virt. eigenvalues --   -0.07224  -0.05214  -0.04765  -0.03760  -0.03101
 Alpha virt. eigenvalues --   -0.02543  -0.01790  -0.01442  -0.01085  -0.00806
 Alpha virt. eigenvalues --   -0.00363  -0.00068   0.00167   0.00370   0.00528

  Beta  occ. eigenvalues --  -38.44926 -38.44489 -38.44334 -38.44238 -38.44024
  Beta  occ. eigenvalues --  -38.44017 -38.43913  -2.20678  -2.20300  -2.20115
  Beta  occ. eigenvalues --   -2.20003  -2.19781  -2.19765  -2.19713  -1.14374
  Beta  occ. eigenvalues --   -1.14346  -1.14330  -1.13973  -1.13965  -1.13934
  Beta  occ. eigenvalues --   -1.13787  -1.13767  -1.13744  -1.13687  -1.13675
  Beta  occ. eigenvalues --   -1.13641  -1.13483  -1.13478  -1.13454  -1.13451
  Beta  occ. eigenvalues --   -1.13447  -1.13419  -1.13381  -1.13369  -1.13359
  Beta  occ. eigenvalues --   -0.15862  -0.13542  -0.11960
  Beta virt. eigenvalues --   -0.07089  -0.07023  -0.04732  -0.04449  -0.03447
  Beta virt. eigenvalues --   -0.02565  -0.02447  -0.01458  -0.01229  -0.00999
  Beta virt. eigenvalues --   -0.00503  -0.00237   0.00124   0.00332   0.00502

 Mulliken charges and spin densities:
               1          2
     1  Na  -0.014377   0.248887
     2  Na   0.110647  -0.045700
     3  Na   0.701999  -0.060570
     4  Na  -1.184926   0.363412
     5  Na   0.319307   0.139631
     6  Na  -0.057628  -0.014248
     7  Na   0.124977   0.368588
 Sum of Mulliken charges =  -0.00000   1.00000

 Dipole moment (field-independent basis, Debye):
    X=             -0.3158    Y=             -0.2111    Z=              0.1097  Tot=              0.3954
 Quadrupole moment (field-independent basis, Debye-Ang):
   XX=            -62.9782   YY=            -65.8826   ZZ=            -69.9953
   XY=             -5.5837   XZ=              0.3664   YZ=             -2.0442

 Normal termination of Gaussian 16 at Sun Dec  3 14:02:13 2023.
