 Gaussian 16, Revision B.01,
 Gaussian 16:  ES64L-G16RevB.01 20-Dec-2017

 -------------------------
 #P B3LYP/6-311+g(d) force
 -------------------------

 -----
 DPGEN
 -----
 Symbolic Z-matrix:
 Charge =  0 Multiplicity = 2

                         Standard orientation:
 ---------------------------------------------------------------------
 Center     Atomic      Atomic             Coordinates (Angstroms)
 Number     Number       Type             X           Y           Z
 ---------------------------------------------------------------------
      1         11           0       -2.244634    2.087108   -0.222410
      2         11           0        0.779955   -2.305686   -0.021825
      3         11           0       -2.664121   -1.951095    0.028773
      4         11           0        0.002480   -0.122980   -1.785135
      5         11           0        1.039605    2.529339    0.013211
      6         11           0        3.484459   -0.370453    0.096752
      7         11           0       -0.397744    0.133767    1.890635
 ---------------------------------------------------------------------

 SCF Done:  E(UB3LYP) =  -1136.13437088     A.U. after   19 cycles

 The electronic state is 2-A.
 Alpha  occ. eigenvalues --  -38.44169 -38.43858 -38.43787 -38.43464 -38.43410
 Alpha  occ. eigenvalues --  -38.43384 -38.43191  -2.19962  -2.19671  -2.19638
 Alpha  occ. eigenvalues --   -2.19442  -2.19348  -2.19260  -2.19144  -1.13638
 Alpha  occ. eigenvalues --   -1.13624  -1.13600  -1.13340  -1.13328  -1.13326
 Alpha  occ. eigenvalues --   -1.13314  -1.13310  -1.13276  -1.13236  -1.13099
 Alpha  occ. eigenvalues --   -1.13035  -1.13028  -1.13000  -1.12967  -1.12931
 Alpha  occ. eigenvalues --   -1.12914  -1.12869  -1.12812  -1.12800  -1.12715
 Alpha  occ. eigenvalues --   -0.18823  -0.12844  -0.12592  -0.10724
 Alpha virt. eigenvalues --   -0.05783  -0.05264  -0.04350  -0.03075  -0.02912
 Alpha virt. eigenvalues --   -0.02486  -0.01798  -0.01269  -0.00232  -0.00043
 Alpha virt. eigenvalues --   -0.00007   0.00312   0.00743   0.00864   0.00917

  Beta  occ. eigenvalues --  -38.44171 -38.43857 -38.43781 -38.43383 -38.43376
  Beta  occ. eigenvalues --  -38.43327 -38.43178  -2.19969  -2.19672  -2.19630
  Beta  occ. eigenvalues --   -2.19295  -2.19251  -2.19195  -2.19125  -1.13644
  Beta  occ. eigenvalues --   -1.13616  -1.13606  -1.13332  -1.13327  -1.13317
  Beta  occ. eigenvalues --   -1.13311  -1.13275  -1.13275  -1.13150  -1.13012
  Beta  occ. eigenvalues --   -1.12949  -1.12935  -1.12919  -1.12891  -1.12870
  Beta  occ. eigenvalues --   -1.12864  -1.12837  -1.12784  -1.12738  -1.12710
  Beta  occ. eigenvalues --   -0.18066  -0.12638  -0.12338
  Beta virt. eigenvalues --   -0.06787  -0.05720  -0.05271  -0.04333  -0.02300
  Beta virt. eigenvalues --   -0.02128  -0.01721  -0.01435  -0.01209  -0.00286
  Beta virt. eigenvalues --   -0.00046   0.00105   0.00328   0.00784   0.00856

 Mulliken charges and spin densities:
               1          2
     1  Na   0.150881  -0.124988
     2  Na   0.357232   0.005746
     3  Na   0.193442  -0.114783
     4  Na  -0.342753   0.628730
     5  Na   0.140619  -0.065092
     6  Na  -0.073259  -0.081387
     7  Na  -0.426163   0.751774
 Sum of Mulliken charges =  -0.00000   1.00000

 Dipole moment (field-independent basis, Debye):
    X=             -0.1638    Y=              0.1659    Z=              0.0568  Tot=              0.2400
 Quadrupole moment (field-independent basis, Debye-Ang):
   XX=            -52.7682   YY=            -65.1093   ZZ=            -74.4957
   XY=              0.8653   XZ=              1.0037   YZ=             -0.5751

 Normal termination of Gaussian 16 at Thu Dec  7 17:06:41 2023.
