 Gaussian 16, Revision B.01,
 Gaussian 16:  ES64L-G16RevB.01 20-Dec-2017

 -------------------------
 #P B3LYP/6-311+g(d) force
 -------------------------

 -----
 DPGEN
 -----
 Symbolic Z-matrix:
 Charge =  0 Multiplicity = 2

                         Standard orientation:
 ---------------------------------------------------------------------
 Center     Atomic      Atomic             Coordinates (Angstroms)
 Number     Number       Type             X           Y           Z
 ---------------------------------------------------------------------
      1         11           0        2.436790    1.572313   -0.285494
      2         11           0       -1.013094    2.399821    0.312475
      3         11           0       -3.287443   -0.063962   -0.599670
      4         11           0        0.644506    0.071851    2.112282
      5         11           0       -0.072635    0.038481   -1.576750
      6         11           0        2.449958   -1.748233   -0.662963
      7         11           0       -1.158083   -2.270271    0.700120
 ---------------------------------------------------------------------

 SCF Done:  E(UB3LYP) =  -1136.13514451     A.U. after   20 cycles

 The electronic state is 2-A.
 Alpha  occ. eigenvalues --  -38.44046 -38.43882 -38.43632 -38.43629 -38.43366
 Alpha  occ. eigenvalues --  -38.43102 -38.42905  -2.19895  -2.19817  -2.19534
 Alpha  occ. eigenvalues --   -2.19495  -2.19404  -2.18981  -2.18800  -1.13571
 Alpha  occ. eigenvalues --   -1.13550  -1.13536  -1.13491  -1.13459  -1.13428
 Alpha  occ. eigenvalues --   -1.13270  -1.13213  -1.13198  -1.13170  -1.13127
 Alpha  occ. eigenvalues --   -1.13102  -1.13090  -1.13033  -1.13012  -1.12674
 Alpha  occ. eigenvalues --   -1.12638  -1.12597  -1.12495  -1.12474  -1.12405
 Alpha  occ. eigenvalues --   -0.19095  -0.13416  -0.11990  -0.11474
 Alpha virt. eigenvalues --   -0.05639  -0.04954  -0.04040  -0.03390  -0.03013
 Alpha virt. eigenvalues --   -0.02914  -0.01635  -0.00874  -0.00287   0.00107
 Alpha virt. eigenvalues --    0.00247   0.00355   0.00770   0.00882   0.00941

  Beta  occ. eigenvalues --  -38.44038 -38.43781 -38.43620 -38.43616 -38.43312
  Beta  occ. eigenvalues --  -38.43084 -38.42898  -2.19881  -2.19633  -2.19522
  Beta  occ. eigenvalues --   -2.19469  -2.19307  -2.18951  -2.18792  -1.13553
  Beta  occ. eigenvalues --   -1.13539  -1.13529  -1.13369  -1.13338  -1.13294
  Beta  occ. eigenvalues --   -1.13243  -1.13192  -1.13172  -1.13146  -1.13105
  Beta  occ. eigenvalues --   -1.13081  -1.13024  -1.12974  -1.12940  -1.12648
  Beta  occ. eigenvalues --   -1.12597  -1.12583  -1.12491  -1.12444  -1.12398
  Beta  occ. eigenvalues --   -0.18355  -0.13130  -0.11730
  Beta virt. eigenvalues --   -0.07481  -0.05536  -0.04943  -0.03899  -0.02800
  Beta virt. eigenvalues --   -0.02201  -0.01846  -0.01521  -0.00843  -0.00121
  Beta virt. eigenvalues --    0.00140   0.00218   0.00393   0.00876   0.00905

 Mulliken charges and spin densities:
               1          2
     1  Na   0.214943  -0.011264
     2  Na  -0.013967   0.018152
     3  Na   0.213521  -0.001738
     4  Na  -0.164544   0.546429
     5  Na  -0.344752   0.349049
     6  Na   0.095667   0.024286
     7  Na  -0.000868   0.075086
 Sum of Mulliken charges =  -0.00000   1.00000

 Dipole moment (field-independent basis, Debye):
    X=              0.0479    Y=              0.0015    Z=              0.0548  Tot=              0.0728
 Quadrupole moment (field-independent basis, Debye-Ang):
   XX=            -54.8374   YY=            -68.7595   ZZ=            -70.4091
   XY=             -0.1462   XZ=             -0.1281   YZ=              0.2633

 Normal termination of Gaussian 16 at Thu Dec  7 06:05:15 2023.
