 Gaussian 16, Revision B.01,
 Gaussian 16:  ES64L-G16RevB.01 20-Dec-2017

 -------------------------
 #P B3LYP/6-311+g(d) force
 -------------------------

 -----
 DPGEN
 -----
 Symbolic Z-matrix:
 Charge =  0 Multiplicity = 2

                         Standard orientation:
 ---------------------------------------------------------------------
 Center     Atomic      Atomic             Coordinates (Angstroms)
 Number     Number       Type             X           Y           Z
 ---------------------------------------------------------------------
      1         11           0        1.353504   -2.298990   -1.190187
      2         11           0        2.930593   -1.787556    1.609926
      3         11           0        3.399172    1.333526    0.020108
      4         11           0        0.870127    3.550779   -0.839521
      5         11           0       -2.741388    2.877106    0.410494
      6         11           0       -3.763856   -0.634350    0.782079
      7         11           0       -2.048153   -3.040516   -0.792899
 ---------------------------------------------------------------------

 SCF Done:  E(UB3LYP) =  -1136.11118914     A.U. after   22 cycles

 The electronic state is 2-A.
 Alpha  occ. eigenvalues --  -38.45229 -38.45122 -38.44640 -38.44603 -38.44233
 Alpha  occ. eigenvalues --  -38.43722 -38.43668  -2.21020  -2.20903  -2.20408
 Alpha  occ. eigenvalues --   -2.20351  -2.20065  -2.19499  -2.19476  -1.14716
 Alpha  occ. eigenvalues --   -1.14693  -1.14642  -1.14594  -1.14575  -1.14520
 Alpha  occ. eigenvalues --   -1.14091  -1.14079  -1.14050  -1.14030  -1.14011
 Alpha  occ. eigenvalues --   -1.13969  -1.13721  -1.13707  -1.13683  -1.13168
 Alpha  occ. eigenvalues --   -1.13160  -1.13135  -1.13130  -1.13127  -1.13118
 Alpha  occ. eigenvalues --   -0.15960  -0.13714  -0.13142  -0.10585
 Alpha virt. eigenvalues --   -0.07388  -0.05445  -0.04218  -0.03637  -0.03274
 Alpha virt. eigenvalues --   -0.02354  -0.01790  -0.01555  -0.01339  -0.01199
 Alpha virt. eigenvalues --   -0.00468  -0.00215   0.00024   0.00442   0.00657

  Beta  occ. eigenvalues --  -38.45213 -38.45093 -38.44634 -38.44574 -38.44174
  Beta  occ. eigenvalues --  -38.43687 -38.43633  -2.20995  -2.20856  -2.20399
  Beta  occ. eigenvalues --   -2.20299  -2.19955  -2.19436  -2.19411  -1.14698
  Beta  occ. eigenvalues --   -1.14681  -1.14594  -1.14566  -1.14547  -1.14448
  Beta  occ. eigenvalues --   -1.14087  -1.14076  -1.14024  -1.13996  -1.13979
  Beta  occ. eigenvalues --   -1.13926  -1.13646  -1.13632  -1.13612  -1.13127
  Beta  occ. eigenvalues --   -1.13118  -1.13091  -1.13089  -1.13076  -1.13071
  Beta  occ. eigenvalues --   -0.15418  -0.13190  -0.12466
  Beta virt. eigenvalues --   -0.07498  -0.07334  -0.05024  -0.03726  -0.03456
  Beta virt. eigenvalues --   -0.02956  -0.02060  -0.01614  -0.01404  -0.01128
  Beta virt. eigenvalues --   -0.00942  -0.00334   0.00101   0.00272   0.00434

 Mulliken charges and spin densities:
               1          2
     1  Na  -0.080920   0.094273
     2  Na   0.228389   0.273170
     3  Na  -0.053053   0.166799
     4  Na  -0.111239   0.132174
     5  Na   0.029965   0.147765
     6  Na  -0.149636   0.034253
     7  Na   0.136495   0.151565
 Sum of Mulliken charges =  -0.00000   1.00000

 Dipole moment (field-independent basis, Debye):
    X=              0.7344    Y=             -0.5944    Z=              0.3437  Tot=              1.0054
 Quadrupole moment (field-independent basis, Debye-Ang):
   XX=            -64.2957   YY=            -69.2609   ZZ=            -68.1798
   XY=             -0.4107   XZ=             -0.8648   YZ=             -0.8622

 Normal termination of Gaussian 16 at Sun Dec  3 14:26:27 2023.
