 Gaussian 16, Revision B.01,
 Gaussian 16:  ES64L-G16RevB.01 20-Dec-2017

 -------------------------
 #P B3LYP/6-311+g(d) force
 -------------------------

 -----
 DPGEN
 -----
 Symbolic Z-matrix:
 Charge =  0 Multiplicity = 2

                         Standard orientation:
 ---------------------------------------------------------------------
 Center     Atomic      Atomic             Coordinates (Angstroms)
 Number     Number       Type             X           Y           Z
 ---------------------------------------------------------------------
      1         11           0       -2.594977   -2.290916   -0.106672
      2         11           0        3.698917    0.186500   -0.130789
      3         11           0       -2.506864    2.298631    0.033558
      4         11           0       -0.162265    0.125960    2.109024
      5         11           0       -0.508787   -0.333818   -1.621463
      6         11           0        1.256452   -2.353284    0.091658
      7         11           0        0.817523    2.366926   -0.375318
 ---------------------------------------------------------------------

 SCF Done:  E(UB3LYP) =  -1136.13152328     A.U. after   19 cycles

 The electronic state is 2-A.
 Alpha  occ. eigenvalues --  -38.44237 -38.44146 -38.44116 -38.43754 -38.43698
 Alpha  occ. eigenvalues --  -38.43337 -38.43280  -2.20011  -2.19940  -2.19917
 Alpha  occ. eigenvalues --   -2.19612  -2.19567  -2.19297  -2.19165  -1.13682
 Alpha  occ. eigenvalues --   -1.13677  -1.13648  -1.13630  -1.13593  -1.13583
 Alpha  occ. eigenvalues --   -1.13575  -1.13574  -1.13566  -1.13344  -1.13303
 Alpha  occ. eigenvalues --   -1.13232  -1.13201  -1.13189  -1.13177  -1.12995
 Alpha  occ. eigenvalues --   -1.12944  -1.12923  -1.12841  -1.12836  -1.12761
 Alpha  occ. eigenvalues --   -0.18286  -0.12676  -0.12474  -0.10619
 Alpha virt. eigenvalues --   -0.06021  -0.05599  -0.04301  -0.02982  -0.02866
 Alpha virt. eigenvalues --   -0.02567  -0.01930  -0.01594  -0.00348  -0.00191
 Alpha virt. eigenvalues --   -0.00083   0.00246   0.00694   0.00769   0.00879

  Beta  occ. eigenvalues --  -38.44240 -38.44145 -38.44116 -38.43745 -38.43595
  Beta  occ. eigenvalues --  -38.43279 -38.43266  -2.20017  -2.19940  -2.19919
  Beta  occ. eigenvalues --   -2.19598  -2.19378  -2.19192  -2.19144  -1.13688
  Beta  occ. eigenvalues --   -1.13671  -1.13653  -1.13621  -1.13587  -1.13581
  Beta  occ. eigenvalues --   -1.13574  -1.13570  -1.13563  -1.13332  -1.13260
  Beta  occ. eigenvalues --   -1.13197  -1.13109  -1.13060  -1.13042  -1.12933
  Beta  occ. eigenvalues --   -1.12876  -1.12848  -1.12812  -1.12785  -1.12751
  Beta  occ. eigenvalues --   -0.17550  -0.12518  -0.12253
  Beta virt. eigenvalues --   -0.06680  -0.05928  -0.05581  -0.04259  -0.02262
  Beta virt. eigenvalues --   -0.02155  -0.01876  -0.01542  -0.01481  -0.00358
  Beta virt. eigenvalues --   -0.00211   0.00078   0.00278   0.00738   0.00771

 Mulliken charges and spin densities:
               1          2
     1  Na   0.151815  -0.103272
     2  Na  -0.087896  -0.048836
     3  Na   0.153534  -0.078749
     4  Na  -0.410176   0.676571
     5  Na  -0.083093   0.412816
     6  Na   0.158131   0.041593
     7  Na   0.117684   0.099878
 Sum of Mulliken charges =  -0.00000   1.00000

 Dipole moment (field-independent basis, Debye):
    X=             -0.4017    Y=             -0.0703    Z=              0.1974  Tot=              0.4531
 Quadrupole moment (field-independent basis, Debye-Ang):
   XX=            -52.2364   YY=            -64.5906   ZZ=            -75.4072
   XY=             -0.1718   XZ=             -0.9422   YZ=             -0.8271

 Normal termination of Gaussian 16 at Thu Dec  7 07:49:21 2023.
