 Gaussian 16, Revision B.01,
 Gaussian 16:  ES64L-G16RevB.01 20-Dec-2017

 -------------------------
 #P B3LYP/6-311+g(d) force
 -------------------------

 -----
 DPGEN
 -----
 Symbolic Z-matrix:
 Charge =  0 Multiplicity = 2

                         Standard orientation:
 ---------------------------------------------------------------------
 Center     Atomic      Atomic             Coordinates (Angstroms)
 Number     Number       Type             X           Y           Z
 ---------------------------------------------------------------------
      1         11           0        1.666168   -2.583877   -0.460658
      2         11           0       -0.063313    0.131264   -1.627584
      3         11           0        0.682584    2.761380    0.420704
      4         11           0       -2.918716   -1.561146    0.283099
      5         11           0        3.070858    0.382717    0.172649
      6         11           0       -0.192387   -0.657948    1.653410
      7         11           0       -2.245195    1.527610   -0.441619
 ---------------------------------------------------------------------

 SCF Done:  E(UB3LYP) =  -1136.13169483     A.U. after   20 cycles

 The electronic state is 2-A.
 Alpha  occ. eigenvalues --  -38.44253 -38.44067 -38.43621 -38.43606 -38.43297
 Alpha  occ. eigenvalues --  -38.43288 -38.42909  -2.20104  -2.19920  -2.19588
 Alpha  occ. eigenvalues --   -2.19460  -2.19322  -2.19244  -2.18793  -1.13775
 Alpha  occ. eigenvalues --   -1.13768  -1.13750  -1.13610  -1.13585  -1.13557
 Alpha  occ. eigenvalues --   -1.13442  -1.13225  -1.13184  -1.13138  -1.13123
 Alpha  occ. eigenvalues --   -1.13096  -1.13003  -1.12920  -1.12917  -1.12905
 Alpha  occ. eigenvalues --   -1.12871  -1.12860  -1.12461  -1.12454  -1.12437
 Alpha  occ. eigenvalues --   -0.19019  -0.13549  -0.12401  -0.10608
 Alpha virt. eigenvalues --   -0.05907  -0.05146  -0.04477  -0.03303  -0.02843
 Alpha virt. eigenvalues --   -0.02127  -0.01752  -0.01119  -0.00377  -0.00086
 Alpha virt. eigenvalues --    0.00044   0.00325   0.00796   0.00825   0.00883

  Beta  occ. eigenvalues --  -38.44247 -38.44058 -38.43603 -38.43593 -38.43224
  Beta  occ. eigenvalues --  -38.43223 -38.42900  -2.20096  -2.19908  -2.19559
  Beta  occ. eigenvalues --   -2.19438  -2.19189  -2.19128  -2.18779  -1.13769
  Beta  occ. eigenvalues --   -1.13757  -1.13734  -1.13597  -1.13572  -1.13539
  Beta  occ. eigenvalues --   -1.13395  -1.13191  -1.13162  -1.13121  -1.13091
  Beta  occ. eigenvalues --   -1.13081  -1.12919  -1.12836  -1.12827  -1.12815
  Beta  occ. eigenvalues --   -1.12786  -1.12774  -1.12454  -1.12447  -1.12403
  Beta  occ. eigenvalues --   -0.18341  -0.13265  -0.12119
  Beta virt. eigenvalues --   -0.06775  -0.05849  -0.05085  -0.04391  -0.02549
  Beta virt. eigenvalues --   -0.02121  -0.01659  -0.01177  -0.01011  -0.00401
  Beta virt. eigenvalues --   -0.00073   0.00165   0.00368   0.00839   0.00858

 Mulliken charges and spin densities:
               1          2
     1  Na   0.059270  -0.017299
     2  Na  -0.142542   0.251658
     3  Na  -0.204740   0.061171
     4  Na   0.119829  -0.036746
     5  Na   0.031693   0.021547
     6  Na  -0.344033   0.514819
     7  Na   0.480523   0.204849
 Sum of Mulliken charges =  -0.00000   1.00000

 Dipole moment (field-independent basis, Debye):
    X=              0.1234    Y=             -0.4012    Z=              0.0910  Tot=              0.4295
 Quadrupole moment (field-independent basis, Debye-Ang):
   XX=            -54.5051   YY=            -63.4964   ZZ=            -75.0659
   XY=              0.7868   XZ=              0.4934   YZ=              1.6234

 Normal termination of Gaussian 16 at Tue Dec  5 23:39:02 2023.
