 Gaussian 16, Revision B.01,
 Gaussian 16:  ES64L-G16RevB.01 20-Dec-2017

 -------------------------
 #P B3LYP/6-311+g(d) force
 -------------------------

 -----
 DPGEN
 -----
 Symbolic Z-matrix:
 Charge =  0 Multiplicity = 2

                         Standard orientation:
 ---------------------------------------------------------------------
 Center     Atomic      Atomic             Coordinates (Angstroms)
 Number     Number       Type             X           Y           Z
 ---------------------------------------------------------------------
      1         11           0        1.584710    1.645297    0.620136
      2         11           0       -1.855550    2.293086    0.169271
      3         11           0       -3.404246   -0.383361   -1.246336
      4         11           0       -1.433026   -0.565561    1.779681
      5         11           0        2.068823   -1.515746    1.255845
      6         11           0       -0.187478   -2.174198   -0.984480
      7         11           0        3.226766    0.700483   -1.594116
 ---------------------------------------------------------------------

 SCF Done:  E(UB3LYP) =  -1136.12607896     A.U. after   21 cycles

 The electronic state is 2-A.
 Alpha  occ. eigenvalues --  -38.44492 -38.44436 -38.44124 -38.43888 -38.43414
 Alpha  occ. eigenvalues --  -38.43373 -38.43219  -2.20318  -2.20288  -2.20014
 Alpha  occ. eigenvalues --   -2.19768  -2.19251  -2.19214  -2.19134  -1.14007
 Alpha  occ. eigenvalues --   -1.13985  -1.13952  -1.13949  -1.13919  -1.13891
 Alpha  occ. eigenvalues --   -1.13705  -1.13662  -1.13640  -1.13459  -1.13441
 Alpha  occ. eigenvalues --   -1.13382  -1.12930  -1.12909  -1.12896  -1.12886
 Alpha  occ. eigenvalues --   -1.12882  -1.12851  -1.12825  -1.12790  -1.12764
 Alpha  occ. eigenvalues --   -0.18120  -0.14039  -0.11653  -0.11142
 Alpha virt. eigenvalues --   -0.05801  -0.05377  -0.05021  -0.03443  -0.02799
 Alpha virt. eigenvalues --   -0.02550  -0.01736  -0.00780  -0.00678  -0.00114
 Alpha virt. eigenvalues --    0.00030   0.00314   0.00339   0.00432   0.00587

  Beta  occ. eigenvalues --  -38.44444 -38.44382 -38.44080 -38.43869 -38.43404
  Beta  occ. eigenvalues --  -38.43366 -38.43211  -2.20227  -2.20187  -2.19936
  Beta  occ. eigenvalues --   -2.19736  -2.19235  -2.19205  -2.19126  -1.13944
  Beta  occ. eigenvalues --   -1.13922  -1.13897  -1.13883  -1.13848  -1.13822
  Beta  occ. eigenvalues --   -1.13655  -1.13593  -1.13577  -1.13435  -1.13422
  Beta  occ. eigenvalues --   -1.13342  -1.12922  -1.12890  -1.12886  -1.12871
  Beta  occ. eigenvalues --   -1.12867  -1.12840  -1.12805  -1.12781  -1.12741
  Beta  occ. eigenvalues --   -0.17465  -0.13642  -0.11419
  Beta virt. eigenvalues --   -0.07578  -0.05528  -0.05144  -0.04445  -0.03352
  Beta virt. eigenvalues --   -0.02298  -0.01789  -0.01550  -0.00615  -0.00389
  Beta virt. eigenvalues --   -0.00028   0.00119   0.00402   0.00474   0.00566

 Mulliken charges and spin densities:
               1          2
     1  Na  -0.409372   0.073418
     2  Na   0.048220  -0.026525
     3  Na   0.163937   0.209665
     4  Na   0.054401   0.304125
     5  Na   0.431995   0.115371
     6  Na  -0.548932   0.155231
     7  Na   0.259751   0.168714
 Sum of Mulliken charges =  -0.00000   1.00000

 Dipole moment (field-independent basis, Debye):
    X=             -0.2139    Y=             -0.4548    Z=             -0.3170  Tot=              0.5942
 Quadrupole moment (field-independent basis, Debye-Ang):
   XX=            -57.5642   YY=            -75.0822   ZZ=            -64.4558
   XY=             -2.3723   XZ=              0.2404   YZ=             -0.8276

 Normal termination of Gaussian 16 at Tue Nov 28 19:57:28 2023.
