 Gaussian 16, Revision B.01,
 Gaussian 16:  ES64L-G16RevB.01 20-Dec-2017

 -------------------------
 #P B3LYP/6-311+g(d) force
 -------------------------

 -----
 DPGEN
 -----
 Symbolic Z-matrix:
 Charge =  0 Multiplicity = 2

                         Standard orientation:
 ---------------------------------------------------------------------
 Center     Atomic      Atomic             Coordinates (Angstroms)
 Number     Number       Type             X           Y           Z
 ---------------------------------------------------------------------
      1         11           0        0.066235   -0.739352   -1.571671
      2         11           0        3.093306    1.237762   -0.443311
      3         11           0       -1.836718   -2.458408    0.251771
      4         11           0       -3.354456    0.520676   -0.302211
      5         11           0       -0.489634    3.046870   -0.140499
      6         11           0        2.371512   -2.167668    0.236270
      7         11           0        0.149754    0.560120    1.969652
 ---------------------------------------------------------------------

 SCF Done:  E(UB3LYP) =  -1136.13204043     A.U. after   20 cycles

 The electronic state is 2-A.
 Alpha  occ. eigenvalues --  -38.44506 -38.44504 -38.44073 -38.43763 -38.43536
 Alpha  occ. eigenvalues --  -38.43477 -38.43228  -2.20293  -2.20291  -2.19891
 Alpha  occ. eigenvalues --   -2.19604  -2.19451  -2.19275  -2.19097  -1.13971
 Alpha  occ. eigenvalues --   -1.13968  -1.13949  -1.13944  -1.13932  -1.13929
 Alpha  occ. eigenvalues --   -1.13583  -1.13548  -1.13524  -1.13336  -1.13259
 Alpha  occ. eigenvalues --   -1.13230  -1.13133  -1.13090  -1.13059  -1.12972
 Alpha  occ. eigenvalues --   -1.12942  -1.12908  -1.12764  -1.12720  -1.12715
 Alpha  occ. eigenvalues --   -0.18005  -0.13155  -0.12238  -0.10167
 Alpha virt. eigenvalues --   -0.06105  -0.05662  -0.04710  -0.03150  -0.02859
 Alpha virt. eigenvalues --   -0.02135  -0.01883  -0.01356  -0.00769  -0.00619
 Alpha virt. eigenvalues --   -0.00026   0.00319   0.00687   0.00778   0.00807

  Beta  occ. eigenvalues --  -38.44498 -38.44493 -38.44069 -38.43758 -38.43493
  Beta  occ. eigenvalues --  -38.43475 -38.43139  -2.20283  -2.20269  -2.19886
  Beta  occ. eigenvalues --   -2.19598  -2.19374  -2.19274  -2.18933  -1.13954
  Beta  occ. eigenvalues --   -1.13941  -1.13938  -1.13931  -1.13925  -1.13913
  Beta  occ. eigenvalues --   -1.13577  -1.13537  -1.13512  -1.13324  -1.13248
  Beta  occ. eigenvalues --   -1.13216  -1.13076  -1.13037  -1.13003  -1.12961
  Beta  occ. eigenvalues --   -1.12929  -1.12911  -1.12654  -1.12607  -1.12596
  Beta  occ. eigenvalues --   -0.17335  -0.12932  -0.12050
  Beta virt. eigenvalues --   -0.06427  -0.06000  -0.05626  -0.04597  -0.02469
  Beta virt. eigenvalues --   -0.02151  -0.01765  -0.01306  -0.01179  -0.00777
  Beta virt. eigenvalues --   -0.00632   0.00139   0.00377   0.00761   0.00796

 Mulliken charges and spin densities:
               1          2
     1  Na  -0.044416   0.367681
     2  Na  -0.001748  -0.009580
     3  Na   0.179727   0.036318
     4  Na  -0.005347  -0.025630
     5  Na  -0.048161  -0.082117
     6  Na   0.201138   0.033109
     7  Na  -0.281193   0.680219
 Sum of Mulliken charges =  -0.00000   1.00000

 Dipole moment (field-independent basis, Debye):
    X=              0.1000    Y=             -0.1098    Z=             -0.0239  Tot=              0.1504
 Quadrupole moment (field-independent basis, Debye-Ang):
   XX=            -53.3087   YY=            -62.9545   ZZ=            -76.4896
   XY=             -0.2592   XZ=              0.0397   YZ=             -3.1635

 Normal termination of Gaussian 16 at Thu Dec  7 14:55:29 2023.
