 Gaussian 16, Revision B.01,
 Gaussian 16:  ES64L-G16RevB.01 20-Dec-2017

 -------------------------
 #P B3LYP/6-311+g(d) force
 -------------------------

 -----
 DPGEN
 -----
 Symbolic Z-matrix:
 Charge =  0 Multiplicity = 2

                         Standard orientation:
 ---------------------------------------------------------------------
 Center     Atomic      Atomic             Coordinates (Angstroms)
 Number     Number       Type             X           Y           Z
 ---------------------------------------------------------------------
      1         11           0       -0.648435    1.390695   -0.006662
      2         11           0        2.547156    3.460278    0.485903
      3         11           0        3.264100    0.504123   -0.437402
      4         11           0        3.647570   -2.576940   -0.268344
      5         11           0        0.598664   -2.109247    0.053476
      6         11           0       -3.700686   -1.351649    1.056058
      7         11           0       -5.708369    0.682740   -0.883029
 ---------------------------------------------------------------------

 SCF Done:  E(UB3LYP) =  -1136.11856902     A.U. after   20 cycles

 The electronic state is 2-A.
 Alpha  occ. eigenvalues --  -38.44976 -38.44857 -38.44614 -38.44013 -38.43818
 Alpha  occ. eigenvalues --  -38.43490 -38.43424  -2.20738  -2.20596  -2.20400
 Alpha  occ. eigenvalues --   -2.19857  -2.19712  -2.19307  -2.19297  -1.14438
 Alpha  occ. eigenvalues --   -1.14425  -1.14307  -1.14290  -1.14262  -1.14246
 Alpha  occ. eigenvalues --   -1.14045  -1.14043  -1.14005  -1.13538  -1.13531
 Alpha  occ. eigenvalues --   -1.13496  -1.13400  -1.13384  -1.13374  -1.12983
 Alpha  occ. eigenvalues --   -1.12956  -1.12953  -1.12940  -1.12934  -1.12915
 Alpha  occ. eigenvalues --   -0.16635  -0.13945  -0.12306  -0.10981
 Alpha virt. eigenvalues --   -0.06304  -0.05221  -0.04813  -0.03826  -0.03131
 Alpha virt. eigenvalues --   -0.02309  -0.01864  -0.01523  -0.01093  -0.00848
 Alpha virt. eigenvalues --   -0.00323  -0.00065   0.00117   0.00293   0.00648

  Beta  occ. eigenvalues --  -38.44935 -38.44873 -38.44528 -38.43979 -38.43787
  Beta  occ. eigenvalues --  -38.43483 -38.43404  -2.20664  -2.20631  -2.20238
  Beta  occ. eigenvalues --   -2.19796  -2.19658  -2.19285  -2.19269  -1.14389
  Beta  occ. eigenvalues --   -1.14365  -1.14318  -1.14288  -1.14257  -1.14233
  Beta  occ. eigenvalues --   -1.13935  -1.13931  -1.13902  -1.13499  -1.13492
  Beta  occ. eigenvalues --   -1.13438  -1.13364  -1.13342  -1.13327  -1.12964
  Beta  occ. eigenvalues --   -1.12947  -1.12921  -1.12919  -1.12913  -1.12906
  Beta  occ. eigenvalues --   -0.16028  -0.13262  -0.12219
  Beta virt. eigenvalues --   -0.07518  -0.05969  -0.04910  -0.04367  -0.03624
  Beta virt. eigenvalues --   -0.02762  -0.02103  -0.01701  -0.01235  -0.00974
  Beta virt. eigenvalues --   -0.00448  -0.00075   0.00107   0.00339   0.00437

 Mulliken charges and spin densities:
               1          2
     1  Na  -0.683168  -0.006613
     2  Na   0.753916   0.105063
     3  Na  -0.988062   0.282217
     4  Na   1.486524   0.144074
     5  Na  -0.778000   0.104241
     6  Na   0.004717  -0.065795
     7  Na   0.204073   0.436814
 Sum of Mulliken charges =  -0.00000   1.00000

 Dipole moment (field-independent basis, Debye):
    X=             -0.3556    Y=             -0.0557    Z=              0.1478  Tot=              0.3891
 Quadrupole moment (field-independent basis, Debye-Ang):
   XX=            -66.0932   YY=            -62.5120   ZZ=            -70.2407
   XY=             -1.6787   XZ=              1.1194   YZ=             -2.3430

 Normal termination of Gaussian 16 at Tue Nov 28 23:23:32 2023.
