 Gaussian 16, Revision B.01,
 Gaussian 16:  ES64L-G16RevB.01 20-Dec-2017

 -------------------------
 #P B3LYP/6-311+g(d) force
 -------------------------

 -----
 DPGEN
 -----
 Symbolic Z-matrix:
 Charge =  0 Multiplicity = 2

                         Standard orientation:
 ---------------------------------------------------------------------
 Center     Atomic      Atomic             Coordinates (Angstroms)
 Number     Number       Type             X           Y           Z
 ---------------------------------------------------------------------
      1         11           0        0.144136    1.237826    1.383589
      2         11           0        1.532131    3.567489   -0.419342
      3         11           0        2.998051    0.795120   -0.419365
      4         11           0        3.757071   -2.773320   -0.342904
      5         11           0        0.223454   -2.047789    0.594012
      6         11           0       -2.865294   -0.568654   -0.599301
      7         11           0       -5.789549   -0.210672   -0.196689
 ---------------------------------------------------------------------

 SCF Done:  E(UB3LYP) =  -1136.12156382     A.U. after   18 cycles

 The electronic state is 2-A.
 Alpha  occ. eigenvalues --  -38.44690 -38.44292 -38.44178 -38.43945 -38.43913
 Alpha  occ. eigenvalues --  -38.43750 -38.43464  -2.20567  -2.20162  -2.20014
 Alpha  occ. eigenvalues --   -2.19776  -2.19771  -2.19534  -2.19300  -1.14261
 Alpha  occ. eigenvalues --   -1.14238  -1.14175  -1.13858  -1.13843  -1.13780
 Alpha  occ. eigenvalues --   -1.13709  -1.13634  -1.13634  -1.13471  -1.13454
 Alpha  occ. eigenvalues --   -1.13432  -1.13415  -1.13399  -1.13368  -1.13198
 Alpha  occ. eigenvalues --   -1.13190  -1.13153  -1.12983  -1.12967  -1.12943
 Alpha  occ. eigenvalues --   -0.17175  -0.13858  -0.12526  -0.11230
 Alpha virt. eigenvalues --   -0.05852  -0.05419  -0.04724  -0.03666  -0.02949
 Alpha virt. eigenvalues --   -0.02211  -0.01631  -0.01469  -0.01357  -0.00917
 Alpha virt. eigenvalues --   -0.00542   0.00027   0.00368   0.00516   0.00566

  Beta  occ. eigenvalues --  -38.44650 -38.44261 -38.44100 -38.43908 -38.43904
  Beta  occ. eigenvalues --  -38.43717 -38.43466  -2.20497  -2.20106  -2.19869
  Beta  occ. eigenvalues --   -2.19754  -2.19711  -2.19472  -2.19312  -1.14217
  Beta  occ. eigenvalues --   -1.14193  -1.14105  -1.13821  -1.13801  -1.13735
  Beta  occ. eigenvalues --   -1.13616  -1.13536  -1.13535  -1.13426  -1.13412
  Beta  occ. eigenvalues --   -1.13409  -1.13404  -1.13389  -1.13311  -1.13156
  Beta  occ. eigenvalues --   -1.13141  -1.13117  -1.12987  -1.12984  -1.12898
  Beta  occ. eigenvalues --   -0.16566  -0.13104  -0.12219
  Beta virt. eigenvalues --   -0.07869  -0.05470  -0.05221  -0.04327  -0.03358
  Beta virt. eigenvalues --   -0.02638  -0.02053  -0.01492  -0.01142  -0.01030
  Beta virt. eigenvalues --   -0.00521  -0.00292   0.00178   0.00489   0.00587

 Mulliken charges and spin densities:
               1          2
     1  Na   0.200076   0.214246
     2  Na   0.369361   0.036464
     3  Na  -0.736532   0.292392
     4  Na   0.636684   0.148579
     5  Na  -0.376759  -0.055146
     6  Na  -0.483266   0.107149
     7  Na   0.390436   0.256316
 Sum of Mulliken charges =  -0.00000   1.00000

 Dipole moment (field-independent basis, Debye):
    X=              0.2963    Y=              0.8745    Z=              0.2961  Tot=              0.9696
 Quadrupole moment (field-independent basis, Debye-Ang):
   XX=            -66.0253   YY=            -62.4067   ZZ=            -69.4743
   XY=             -2.0433   XZ=             -2.8307   YZ=             -0.8086

 Normal termination of Gaussian 16 at Tue Nov 28 20:24:48 2023.
