 Gaussian 16, Revision B.01,
 Gaussian 16:  ES64L-G16RevB.01 20-Dec-2017

 -------------------------
 #P B3LYP/6-311+g(d) force
 -------------------------

 -----
 DPGEN
 -----
 Symbolic Z-matrix:
 Charge =  0 Multiplicity = 2

                         Standard orientation:
 ---------------------------------------------------------------------
 Center     Atomic      Atomic             Coordinates (Angstroms)
 Number     Number       Type             X           Y           Z
 ---------------------------------------------------------------------
      1         11           0       -1.005810   -1.293116    1.477301
      2         11           0       -3.956175   -0.216014   -0.056656
      3         11           0        1.671712    1.306078    1.881262
      4         11           0       -0.731280    2.700112   -0.220294
      5         11           0        2.244206   -2.331723    0.211763
      6         11           0       -0.656019   -1.058829   -1.778500
      7         11           0        2.433366    0.893491   -1.514877
 ---------------------------------------------------------------------

 SCF Done:  E(UB3LYP) =  -1136.13120151     A.U. after   20 cycles

 The electronic state is 2-A.
 Alpha  occ. eigenvalues --  -38.44540 -38.44240 -38.44184 -38.43798 -38.43760
 Alpha  occ. eigenvalues --  -38.43467 -38.43338  -2.20306  -2.20066  -2.20029
 Alpha  occ. eigenvalues --   -2.19636  -2.19623  -2.19244  -2.19139  -1.13986
 Alpha  occ. eigenvalues --   -1.13962  -1.13939  -1.13751  -1.13737  -1.13722
 Alpha  occ. eigenvalues --   -1.13686  -1.13676  -1.13623  -1.13322  -1.13311
 Alpha  occ. eigenvalues --   -1.13282  -1.13274  -1.13249  -1.13226  -1.12927
 Alpha  occ. eigenvalues --   -1.12921  -1.12865  -1.12805  -1.12800  -1.12791
 Alpha  occ. eigenvalues --   -0.17854  -0.12954  -0.11571  -0.11389
 Alpha virt. eigenvalues --   -0.06186  -0.04962  -0.04499  -0.03444  -0.03079
 Alpha virt. eigenvalues --   -0.02904  -0.01965  -0.00929  -0.00589  -0.00202
 Alpha virt. eigenvalues --    0.00177   0.00284   0.00323   0.00667   0.00804

  Beta  occ. eigenvalues --  -38.44543 -38.44200 -38.44136 -38.43746 -38.43717
  Beta  occ. eigenvalues --  -38.43465 -38.43336  -2.20310  -2.19993  -2.19943
  Beta  occ. eigenvalues --   -2.19548  -2.19538  -2.19242  -2.19140  -1.13984
  Beta  occ. eigenvalues --   -1.13966  -1.13942  -1.13690  -1.13679  -1.13674
  Beta  occ. eigenvalues --   -1.13626  -1.13616  -1.13558  -1.13271  -1.13242
  Beta  occ. eigenvalues --   -1.13220  -1.13213  -1.13178  -1.13165  -1.12922
  Beta  occ. eigenvalues --   -1.12908  -1.12867  -1.12805  -1.12796  -1.12780
  Beta  occ. eigenvalues --   -0.17082  -0.12822  -0.11418
  Beta virt. eigenvalues --   -0.07452  -0.06070  -0.04901  -0.03837  -0.03320
  Beta virt. eigenvalues --   -0.02398  -0.02064  -0.01818  -0.00842  -0.00246
  Beta virt. eigenvalues --   -0.00185   0.00208   0.00348   0.00430   0.00745

 Mulliken charges and spin densities:
               1          2
     1  Na  -0.097091   0.259796
     2  Na   0.197390  -0.050274
     3  Na  -0.009396   0.322975
     4  Na  -0.222262  -0.061506
     5  Na   0.199121  -0.094087
     6  Na  -0.197281   0.432697
     7  Na   0.129519   0.190398
 Sum of Mulliken charges =  -0.00000   1.00000

 Dipole moment (field-independent basis, Debye):
    X=             -0.4633    Y=             -0.0240    Z=             -0.1944  Tot=              0.5030
 Quadrupole moment (field-independent basis, Debye-Ang):
   XX=            -53.4917   YY=            -73.2725   ZZ=            -67.5015
   XY=             -1.4352   XZ=              0.3388   YZ=             -1.2431

 Normal termination of Gaussian 16 at Mon Dec  4 01:14:46 2023.
