 Gaussian 16, Revision B.01,
 Gaussian 16:  ES64L-G16RevB.01 20-Dec-2017

 -------------------------
 #P B3LYP/6-311+g(d) force
 -------------------------

 -----
 DPGEN
 -----
 Symbolic Z-matrix:
 Charge =  0 Multiplicity = 2

                         Standard orientation:
 ---------------------------------------------------------------------
 Center     Atomic      Atomic             Coordinates (Angstroms)
 Number     Number       Type             X           Y           Z
 ---------------------------------------------------------------------
      1         11           0        0.284287   -0.598634   -0.478077
      2         11           0       -2.504090   -1.322684   -1.799992
      3         11           0        2.348569    1.991304    0.150162
      4         11           0        3.603466   -2.546260   -0.060434
      5         11           0       -0.645675    2.279929   -1.696316
      6         11           0       -0.246076    1.305318    2.094008
      7         11           0       -2.840481   -1.108972    1.790649
 ---------------------------------------------------------------------

 SCF Done:  E(UB3LYP) =  -1136.11546894     A.U. after   63 cycles

 The electronic state is 2-A.
 Alpha  occ. eigenvalues --  -38.44887 -38.44775 -38.44637 -38.44595 -38.44457
 Alpha  occ. eigenvalues --  -38.42926 -38.42874  -2.20685  -2.20618  -2.20512
 Alpha  occ. eigenvalues --   -2.20418  -2.20298  -2.18905  -2.18592  -1.14355
 Alpha  occ. eigenvalues --   -1.14343  -1.14309  -1.14302  -1.14262  -1.14217
 Alpha  occ. eigenvalues --   -1.14209  -1.14158  -1.14119  -1.14115  -1.14055
 Alpha  occ. eigenvalues --   -1.14033  -1.13986  -1.13968  -1.13888  -1.12647
 Alpha  occ. eigenvalues --   -1.12571  -1.12503  -1.12277  -1.12268  -1.12229
 Alpha  occ. eigenvalues --   -0.18272  -0.13202  -0.12428  -0.10643
 Alpha virt. eigenvalues --   -0.05954  -0.05773  -0.04964  -0.03503  -0.02980
 Alpha virt. eigenvalues --   -0.02460  -0.01808  -0.01163  -0.01051  -0.00103
 Alpha virt. eigenvalues --   -0.00049   0.00152   0.00231   0.00559   0.00653

  Beta  occ. eigenvalues --  -38.44843 -38.44705 -38.44576 -38.44563 -38.44454
  Beta  occ. eigenvalues --  -38.42903 -38.42897  -2.20605  -2.20491  -2.20400
  Beta  occ. eigenvalues --   -2.20360  -2.20293  -2.18867  -2.18637  -1.14295
  Beta  occ. eigenvalues --   -1.14281  -1.14249  -1.14217  -1.14178  -1.14141
  Beta  occ. eigenvalues --   -1.14118  -1.14081  -1.14070  -1.14041  -1.14010
  Beta  occ. eigenvalues --   -1.13993  -1.13971  -1.13953  -1.13884  -1.12581
  Beta  occ. eigenvalues --   -1.12546  -1.12482  -1.12307  -1.12299  -1.12256
  Beta  occ. eigenvalues --   -0.17404  -0.12993  -0.10655
  Beta virt. eigenvalues --   -0.08349  -0.05639  -0.05387  -0.04525  -0.02848
  Beta virt. eigenvalues --   -0.02663  -0.01910  -0.01722  -0.00975  -0.00620
  Beta virt. eigenvalues --   -0.00034   0.00079   0.00183   0.00341   0.00663

 Mulliken charges and spin densities:
               1          2
     1  Na  -2.492803   0.455287
     2  Na   1.354735   0.104469
     3  Na   0.788900  -0.003550
     4  Na   0.308179  -0.281699
     5  Na   0.079643   0.282577
     6  Na   0.102589   0.263082
     7  Na  -0.141243   0.179833
 Sum of Mulliken charges =  -0.00000   1.00000

 Dipole moment (field-independent basis, Debye):
    X=             -1.9560    Y=              1.5883    Z=              0.2001  Tot=              2.5276
 Quadrupole moment (field-independent basis, Debye-Ang):
   XX=            -62.9032   YY=            -69.0596   ZZ=            -63.4977
   XY=              9.3956   XZ=              1.9803   YZ=             -2.1355

 Normal termination of Gaussian 16 at Tue Dec  5 13:01:09 2023.
