 Gaussian 16, Revision B.01,
 Gaussian 16:  ES64L-G16RevB.01 20-Dec-2017

 -------------------------
 #P B3LYP/6-311+g(d) force
 -------------------------

 -----
 DPGEN
 -----
 Symbolic Z-matrix:
 Charge =  0 Multiplicity = 2

                         Standard orientation:
 ---------------------------------------------------------------------
 Center     Atomic      Atomic             Coordinates (Angstroms)
 Number     Number       Type             X           Y           Z
 ---------------------------------------------------------------------
      1         11           0        0.088088    0.039412    1.977619
      2         11           0       -3.108105   -0.964507    0.197345
      3         11           0       -1.326660    2.442228   -0.141272
      4         11           0        1.920391    2.085197   -0.025567
      5         11           0        2.948558   -1.193915   -0.223266
      6         11           0        0.075210   -2.503829   -0.159457
      7         11           0       -0.597481    0.095414   -1.625402
 ---------------------------------------------------------------------

 SCF Done:  E(UB3LYP) =  -1136.13319530     A.U. after   19 cycles

 The electronic state is 2-A.
 Alpha  occ. eigenvalues --  -38.44144 -38.43798 -38.43489 -38.43456 -38.43451
 Alpha  occ. eigenvalues --  -38.43316 -38.43145  -2.19977  -2.19644  -2.19425
 Alpha  occ. eigenvalues --   -2.19394  -2.19355  -2.19332  -2.19087  -1.13655
 Alpha  occ. eigenvalues --   -1.13630  -1.13621  -1.13334  -1.13303  -1.13300
 Alpha  occ. eigenvalues --   -1.13293  -1.13127  -1.13086  -1.13062  -1.13044
 Alpha  occ. eigenvalues --   -1.13036  -1.13004  -1.12993  -1.12979  -1.12941
 Alpha  occ. eigenvalues --   -1.12923  -1.12911  -1.12762  -1.12744  -1.12685
 Alpha  occ. eigenvalues --   -0.19182  -0.13085  -0.12713  -0.10860
 Alpha virt. eigenvalues --   -0.05674  -0.05095  -0.04405  -0.03172  -0.02974
 Alpha virt. eigenvalues --   -0.02503  -0.01663  -0.00993  -0.00131  -0.00020
 Alpha virt. eigenvalues --    0.00010   0.00332   0.00833   0.00904   0.00950

  Beta  occ. eigenvalues --  -38.44141 -38.43796 -38.43446 -38.43445 -38.43395
  Beta  occ. eigenvalues --  -38.43250 -38.43133  -2.19973  -2.19643  -2.19373
  Beta  occ. eigenvalues --   -2.19328  -2.19253  -2.19241  -2.19071  -1.13646
  Beta  occ. eigenvalues --   -1.13622  -1.13613  -1.13335  -1.13299  -1.13277
  Beta  occ. eigenvalues --   -1.13255  -1.13064  -1.13022  -1.12998  -1.12987
  Beta  occ. eigenvalues --   -1.12973  -1.12959  -1.12928  -1.12923  -1.12899
  Beta  occ. eigenvalues --   -1.12859  -1.12848  -1.12742  -1.12694  -1.12677
  Beta  occ. eigenvalues --   -0.18436  -0.12869  -0.12427
  Beta virt. eigenvalues --   -0.06911  -0.05627  -0.05068  -0.04403  -0.02408
  Beta virt. eigenvalues --   -0.02135  -0.01577  -0.01434  -0.00938  -0.00181
  Beta virt. eigenvalues --   -0.00038   0.00127   0.00360   0.00879   0.00904

 Mulliken charges and spin densities:
               1          2
     1  Na  -0.613295   0.730842
     2  Na   0.237688  -0.061020
     3  Na   0.376466  -0.082611
     4  Na   0.200188  -0.021469
     5  Na  -0.085888  -0.057546
     6  Na   0.298075   0.022536
     7  Na  -0.413234   0.469269
 Sum of Mulliken charges =  -0.00000   1.00000

 Dipole moment (field-independent basis, Debye):
    X=             -0.2081    Y=              0.0053    Z=              0.2358  Tot=              0.3146
 Quadrupole moment (field-independent basis, Debye-Ang):
   XX=            -54.3833   YY=            -65.2920   ZZ=            -73.8176
   XY=              0.6798   XZ=             -1.6360   YZ=              0.0426

 Normal termination of Gaussian 16 at Thu Dec  7 05:54:03 2023.
