 Gaussian 16, Revision B.01,
 Gaussian 16:  ES64L-G16RevB.01 20-Dec-2017

 -------------------------
 #P B3LYP/6-311+g(d) force
 -------------------------

 -----
 DPGEN
 -----
 Symbolic Z-matrix:
 Charge =  0 Multiplicity = 2

                         Standard orientation:
 ---------------------------------------------------------------------
 Center     Atomic      Atomic             Coordinates (Angstroms)
 Number     Number       Type             X           Y           Z
 ---------------------------------------------------------------------
      1         11           0       -0.059812    0.261172    2.008674
      2         11           0        0.678503   -2.753237   -0.036087
      3         11           0       -2.772994   -1.682366   -0.021985
      4         11           0        3.144776   -0.581062   -0.012737
      5         11           0       -2.221939    1.982279   -0.094919
      6         11           0       -0.047495    0.072756   -1.711228
      7         11           0        1.278961    2.700456   -0.131717
 ---------------------------------------------------------------------

 SCF Done:  E(UB3LYP) =  -1136.14038297     A.U. after   19 cycles

 The electronic state is 2-A.
 Alpha  occ. eigenvalues --  -38.43849 -38.43804 -38.43790 -38.43572 -38.43497
 Alpha  occ. eigenvalues --  -38.43367 -38.43194  -2.19673  -2.19645  -2.19606
 Alpha  occ. eigenvalues --   -2.19421  -2.19391  -2.19230  -2.19157  -1.13348
 Alpha  occ. eigenvalues --   -1.13339  -1.13338  -1.13321  -1.13318  -1.13279
 Alpha  occ. eigenvalues --   -1.13275  -1.13262  -1.13244  -1.13112  -1.13099
 Alpha  occ. eigenvalues --   -1.13054  -1.13045  -1.13014  -1.13003  -1.12933
 Alpha  occ. eigenvalues --   -1.12894  -1.12855  -1.12831  -1.12783  -1.12770
 Alpha  occ. eigenvalues --   -0.18609  -0.12860  -0.12573  -0.10667
 Alpha virt. eigenvalues --   -0.05446  -0.05369  -0.04790  -0.03071  -0.02912
 Alpha virt. eigenvalues --   -0.02544  -0.01465  -0.01251  -0.00425  -0.00339
 Alpha virt. eigenvalues --   -0.00013   0.00363   0.00798   0.00864   0.00901

  Beta  occ. eigenvalues --  -38.43848 -38.43804 -38.43783 -38.43566 -38.43405
  Beta  occ. eigenvalues --  -38.43362 -38.43124  -2.19674  -2.19636  -2.19608
  Beta  occ. eigenvalues --   -2.19413  -2.19226  -2.19219  -2.19029  -1.13352
  Beta  occ. eigenvalues --   -1.13332  -1.13322  -1.13318  -1.13286  -1.13277
  Beta  occ. eigenvalues --   -1.13266  -1.13260  -1.13246  -1.13103  -1.13061
  Beta  occ. eigenvalues --   -1.13045  -1.12948  -1.12920  -1.12894  -1.12885
  Beta  occ. eigenvalues --   -1.12866  -1.12856  -1.12747  -1.12693  -1.12678
  Beta  occ. eigenvalues --   -0.17868  -0.12633  -0.12348
  Beta virt. eigenvalues --   -0.06742  -0.05452  -0.05347  -0.04744  -0.02272
  Beta virt. eigenvalues --   -0.02145  -0.01473  -0.01386  -0.01183  -0.00497
  Beta virt. eigenvalues --   -0.00386   0.00127   0.00379   0.00836   0.00873

 Mulliken charges and spin densities:
               1          2
     1  Na  -0.464792   0.827549
     2  Na   0.082112  -0.081542
     3  Na   0.033712  -0.094192
     4  Na   0.072334  -0.075129
     5  Na   0.259388  -0.095291
     6  Na  -0.204780   0.617045
     7  Na   0.222027  -0.098441
 Sum of Mulliken charges =  -0.00000   1.00000

 Dipole moment (field-independent basis, Debye):
    X=             -0.0554    Y=              0.1416    Z=              0.0900  Tot=              0.1767
 Quadrupole moment (field-independent basis, Debye-Ang):
   XX=            -56.6482   YY=            -61.5945   ZZ=            -74.8737
   XY=              0.5735   XZ=              0.0245   YZ=             -0.4493

 Normal termination of Gaussian 16 at Thu Dec  7 10:40:58 2023.
