 Gaussian 16, Revision B.01,
 Gaussian 16:  ES64L-G16RevB.01 20-Dec-2017

 -------------------------
 #P B3LYP/6-311+g(d) force
 -------------------------

 -----
 DPGEN
 -----
 Symbolic Z-matrix:
 Charge =  0 Multiplicity = 2

                         Standard orientation:
 ---------------------------------------------------------------------
 Center     Atomic      Atomic             Coordinates (Angstroms)
 Number     Number       Type             X           Y           Z
 ---------------------------------------------------------------------
      1         11           0        0.710786    0.074330   -1.763129
      2         11           0       -0.859111   -1.539073   -0.099329
      3         11           0       -3.442314   -0.174378    0.055171
      4         11           0       -1.109417    1.564226   -0.232429
      5         11           0        0.435786   -0.021271    1.894971
      6         11           0        1.991982    1.602533    0.196071
      7         11           0        2.272289   -1.506367   -0.051329
 ---------------------------------------------------------------------

 SCF Done:  E(UB3LYP) =  -1136.08341596     A.U. after   23 cycles

 The electronic state is 2-A.
 Alpha  occ. eigenvalues --  -38.45263 -38.44557 -38.44480 -38.43480 -38.43423
 Alpha  occ. eigenvalues --  -38.43039 -38.42856  -2.21164  -2.20808  -2.20638
 Alpha  occ. eigenvalues --   -2.19548  -2.19531  -2.19230  -2.19013  -1.14880
 Alpha  occ. eigenvalues --   -1.14841  -1.14777  -1.14578  -1.14524  -1.14450
 Alpha  occ. eigenvalues --   -1.14378  -1.14344  -1.14216  -1.13274  -1.13217
 Alpha  occ. eigenvalues --   -1.13196  -1.13188  -1.13175  -1.13065  -1.12961
 Alpha  occ. eigenvalues --   -1.12900  -1.12802  -1.12721  -1.12659  -1.12574
 Alpha  occ. eigenvalues --   -0.21240  -0.14461  -0.12135  -0.11820
 Alpha virt. eigenvalues --   -0.06515  -0.04177  -0.03922  -0.03484  -0.02614
 Alpha virt. eigenvalues --   -0.02519  -0.01998  -0.00567  -0.00172   0.00199
 Alpha virt. eigenvalues --    0.00496   0.00635   0.00801   0.00943   0.01049

  Beta  occ. eigenvalues --  -38.45271 -38.44461 -38.44380 -38.43466 -38.43406
  Beta  occ. eigenvalues --  -38.43018 -38.42839  -2.21180  -2.20636  -2.20456
  Beta  occ. eigenvalues --   -2.19529  -2.19506  -2.19200  -2.18988  -1.14891
  Beta  occ. eigenvalues --   -1.14857  -1.14777  -1.14475  -1.14400  -1.14322
  Beta  occ. eigenvalues --   -1.14264  -1.14211  -1.14085  -1.13264  -1.13199
  Beta  occ. eigenvalues --   -1.13167  -1.13134  -1.13114  -1.13054  -1.12947
  Beta  occ. eigenvalues --   -1.12808  -1.12792  -1.12704  -1.12591  -1.12563
  Beta  occ. eigenvalues --   -0.20409  -0.14201  -0.11467
  Beta virt. eigenvalues --   -0.07914  -0.06397  -0.04206  -0.03182  -0.03041
  Beta virt. eigenvalues --   -0.01977  -0.01739  -0.01669  -0.00543   0.00020
  Beta virt. eigenvalues --    0.00233   0.00515   0.00608   0.00971   0.01043

 Mulliken charges and spin densities:
               1          2
     1  Na  -0.080944   0.389110
     2  Na  -0.112429   0.133359
     3  Na  -0.201303  -0.156432
     4  Na  -0.005806   0.084656
     5  Na  -0.153045   0.536507
     6  Na   0.200128   0.008943
     7  Na   0.353400   0.003856
 Sum of Mulliken charges =  -0.00000   1.00000

 Dipole moment (field-independent basis, Debye):
    X=             -0.7046    Y=             -0.0079    Z=              0.2785  Tot=              0.7577
 Quadrupole moment (field-independent basis, Debye-Ang):
   XX=            -49.5220   YY=            -76.3634   ZZ=            -68.5200
   XY=             -0.1125   XZ=             -0.0854   YZ=              0.2564

 Normal termination of Gaussian 16 at Fri Dec  8 19:29:09 2023.
