 Gaussian 16, Revision B.01,
 Gaussian 16:  ES64L-G16RevB.01 20-Dec-2017

 -------------------------
 #P B3LYP/6-311+g(d) force
 -------------------------

 -----
 DPGEN
 -----
 Symbolic Z-matrix:
 Charge =  0 Multiplicity = 2

                         Standard orientation:
 ---------------------------------------------------------------------
 Center     Atomic      Atomic             Coordinates (Angstroms)
 Number     Number       Type             X           Y           Z
 ---------------------------------------------------------------------
      1         11           0       -1.724012   -1.666750   -0.793450
      2         11           0       -0.008542   -0.137424    1.948863
      3         11           0        0.952478    0.219764   -1.610326
      4         11           0       -4.073271   -0.236424    0.578269
      5         11           0        3.169438   -1.921034    0.023452
      6         11           0        3.264975    1.642110    0.460486
      7         11           0       -1.581066    2.099759   -0.607294
 ---------------------------------------------------------------------

 SCF Done:  E(UB3LYP) =  -1136.11204607     A.U. after   31 cycles

 The electronic state is 2-A.
 Alpha  occ. eigenvalues --  -38.46039 -38.45250 -38.45171 -38.44013 -38.43709
 Alpha  occ. eigenvalues --  -38.42935 -38.42766  -2.21820  -2.21073  -2.20960
 Alpha  occ. eigenvalues --   -2.19800  -2.19600  -2.18895  -2.18610  -1.15526
 Alpha  occ. eigenvalues --   -1.15462  -1.15431  -1.14766  -1.14715  -1.14697
 Alpha  occ. eigenvalues --   -1.14643  -1.14604  -1.14587  -1.13482  -1.13453
 Alpha  occ. eigenvalues --   -1.13446  -1.13290  -1.13257  -1.13233  -1.12602
 Alpha  occ. eigenvalues --   -1.12540  -1.12505  -1.12287  -1.12280  -1.12238
 Alpha  occ. eigenvalues --   -0.18253  -0.14307  -0.10887  -0.10468
 Alpha virt. eigenvalues --   -0.07615  -0.05871  -0.04348  -0.03175  -0.02898
 Alpha virt. eigenvalues --   -0.02323  -0.02180  -0.01508  -0.01093  -0.00484
 Alpha virt. eigenvalues --   -0.00041   0.00105   0.00281   0.00486   0.00577

  Beta  occ. eigenvalues --  -38.46000 -38.45230 -38.45151 -38.44012 -38.43679
  Beta  occ. eigenvalues --  -38.42865 -38.42758  -2.21747  -2.21034  -2.20923
  Beta  occ. eigenvalues --   -2.19801  -2.19550  -2.18772  -2.18599  -1.15467
  Beta  occ. eigenvalues --   -1.15412  -1.15376  -1.14741  -1.14687  -1.14668
  Beta  occ. eigenvalues --   -1.14613  -1.14578  -1.14561  -1.13479  -1.13451
  Beta  occ. eigenvalues --   -1.13442  -1.13256  -1.13208  -1.13181  -1.12519
  Beta  occ. eigenvalues --   -1.12441  -1.12415  -1.12278  -1.12250  -1.12232
  Beta  occ. eigenvalues --   -0.17537  -0.14081  -0.10288
  Beta virt. eigenvalues --   -0.07350  -0.07080  -0.05780  -0.03827  -0.02915
  Beta virt. eigenvalues --   -0.02730  -0.01646  -0.01598  -0.01339  -0.00831
  Beta virt. eigenvalues --   -0.00360   0.00010   0.00121   0.00443   0.00563

 Mulliken charges and spin densities:
               1          2
     1  Na  -0.088970  -0.036219
     2  Na  -0.253839   0.412288
     3  Na   0.457435   0.254442
     4  Na   0.240085   0.256528
     5  Na  -0.077911  -0.053240
     6  Na   0.032753   0.164703
     7  Na  -0.309554   0.001497
 Sum of Mulliken charges =  -0.00000   1.00000

 Dipole moment (field-independent basis, Debye):
    X=              0.0320    Y=              0.4880    Z=              0.7585  Tot=              0.9025
 Quadrupole moment (field-independent basis, Debye-Ang):
   XX=            -46.7998   YY=            -76.6411   ZZ=            -71.0552
   XY=              0.2515   XZ=             -0.2618   YZ=              2.1963

 Normal termination of Gaussian 16 at Thu Dec  7 21:35:49 2023.
