 Gaussian 16, Revision B.01,
 Gaussian 16:  ES64L-G16RevB.01 20-Dec-2017

 -------------------------
 #P B3LYP/6-311+g(d) force
 -------------------------

 -----
 DPGEN
 -----
 Symbolic Z-matrix:
 Charge =  0 Multiplicity = 2

                         Standard orientation:
 ---------------------------------------------------------------------
 Center     Atomic      Atomic             Coordinates (Angstroms)
 Number     Number       Type             X           Y           Z
 ---------------------------------------------------------------------
      1         11           0        0.241156   -1.630259    1.259510
      2         11           0       -2.188806   -0.123077    1.444289
      3         11           0       -0.788153    0.456816   -1.609629
      4         11           0        3.719575   -2.051403   -0.175498
      5         11           0       -4.056784   -0.805161   -1.134148
      6         11           0        2.823314    1.480702   -0.937640
      7         11           0        0.249699    2.672381    1.153116
 ---------------------------------------------------------------------

 SCF Done:  E(UB3LYP) =  -1136.11706382     A.U. after   22 cycles

 The electronic state is 2-A.
 Alpha  occ. eigenvalues --  -38.45142 -38.44853 -38.44375 -38.44255 -38.44152
 Alpha  occ. eigenvalues --  -38.43320 -38.43285  -2.20983  -2.20679  -2.20166
 Alpha  occ. eigenvalues --   -2.20138  -2.20106  -2.19095  -2.19077  -1.14690
 Alpha  occ. eigenvalues --   -1.14656  -1.14578  -1.14345  -1.14318  -1.14303
 Alpha  occ. eigenvalues --   -1.14046  -1.13863  -1.13824  -1.13787  -1.13770
 Alpha  occ. eigenvalues --   -1.13758  -1.13727  -1.13702  -1.13639  -1.12772
 Alpha  occ. eigenvalues --   -1.12755  -1.12755  -1.12740  -1.12730  -1.12718
 Alpha  occ. eigenvalues --   -0.18078  -0.13674  -0.11715  -0.11221
 Alpha virt. eigenvalues --   -0.06747  -0.05437  -0.04671  -0.03154  -0.02913
 Alpha virt. eigenvalues --   -0.02658  -0.02405  -0.01265  -0.00909  -0.00113
 Alpha virt. eigenvalues --    0.00023   0.00133   0.00242   0.00308   0.00647

  Beta  occ. eigenvalues --  -38.45112 -38.44801 -38.44355 -38.44194 -38.44103
  Beta  occ. eigenvalues --  -38.43326 -38.43274  -2.20928  -2.20582  -2.20129
  Beta  occ. eigenvalues --   -2.20047  -2.20007  -2.19088  -2.19076  -1.14647
  Beta  occ. eigenvalues --   -1.14618  -1.14529  -1.14281  -1.14247  -1.14237
  Beta  occ. eigenvalues --   -1.13956  -1.13835  -1.13801  -1.13745  -1.13710
  Beta  occ. eigenvalues --   -1.13691  -1.13670  -1.13631  -1.13548  -1.12763
  Beta  occ. eigenvalues --   -1.12761  -1.12742  -1.12734  -1.12727  -1.12711
  Beta  occ. eigenvalues --   -0.17312  -0.13302  -0.11157
  Beta virt. eigenvalues --   -0.07884  -0.06464  -0.05082  -0.04286  -0.02902
  Beta virt. eigenvalues --   -0.02490  -0.02106  -0.01994  -0.01120  -0.00647
  Beta virt. eigenvalues --   -0.00067   0.00095   0.00255   0.00378   0.00480

 Mulliken charges and spin densities:
               1          2
     1  Na  -0.612685   0.274074
     2  Na   0.584791   0.020728
     3  Na  -0.700455   0.340611
     4  Na   0.047290   0.000748
     5  Na   0.488859   0.165255
     6  Na   0.263669   0.124007
     7  Na  -0.071468   0.074577
 Sum of Mulliken charges =  -0.00000   1.00000

 Dipole moment (field-independent basis, Debye):
    X=             -1.2897    Y=              0.5297    Z=             -0.3898  Tot=              1.4477
 Quadrupole moment (field-independent basis, Debye-Ang):
   XX=            -55.6044   YY=            -74.1785   ZZ=            -67.5261
   XY=              3.8617   XZ=             -1.4348   YZ=              2.5622

 Normal termination of Gaussian 16 at Sun Dec  3 13:15:07 2023.
