 Gaussian 16, Revision B.01,
 Gaussian 16:  ES64L-G16RevB.01 20-Dec-2017

 -------------------------
 #P B3LYP/6-311+g(d) force
 -------------------------

 -----
 DPGEN
 -----
 Symbolic Z-matrix:
 Charge =  0 Multiplicity = 2

                         Standard orientation:
 ---------------------------------------------------------------------
 Center     Atomic      Atomic             Coordinates (Angstroms)
 Number     Number       Type             X           Y           Z
 ---------------------------------------------------------------------
      1         11           0        0.359029   -0.161603   -1.826680
      2         11           0       -1.471857    2.510840   -0.669279
      3         11           0       -1.870895    0.006148    1.855506
      4         11           0        1.673934    1.769941    0.976786
      5         11           0       -2.940269   -1.548948   -0.882470
      6         11           0        0.746006   -1.912874    1.088183
      7         11           0        3.504051   -0.663504   -0.542047
 ---------------------------------------------------------------------

 SCF Done:  E(UB3LYP) =  -1136.13279470     A.U. after   21 cycles

 The electronic state is 2-A.
 Alpha  occ. eigenvalues --  -38.44265 -38.44239 -38.43944 -38.43890 -38.43672
 Alpha  occ. eigenvalues --  -38.43530 -38.42831  -2.20082  -2.20061  -2.19853
 Alpha  occ. eigenvalues --   -2.19766  -2.19512  -2.19399  -2.18655  -1.13755
 Alpha  occ. eigenvalues --   -1.13743  -1.13739  -1.13726  -1.13716  -1.13697
 Alpha  occ. eigenvalues --   -1.13542  -1.13486  -1.13472  -1.13461  -1.13408
 Alpha  occ. eigenvalues --   -1.13374  -1.13195  -1.13179  -1.13130  -1.13097
 Alpha  occ. eigenvalues --   -1.13071  -1.12995  -1.12339  -1.12315  -1.12286
 Alpha  occ. eigenvalues --   -0.18393  -0.13481  -0.11453  -0.11335
 Alpha virt. eigenvalues --   -0.06072  -0.05201  -0.04418  -0.03276  -0.02894
 Alpha virt. eigenvalues --   -0.02838  -0.01911  -0.00996  -0.00557   0.00022
 Alpha virt. eigenvalues --    0.00258   0.00310   0.00446   0.00711   0.00757

  Beta  occ. eigenvalues --  -38.44251 -38.44236 -38.43876 -38.43839 -38.43653
  Beta  occ. eigenvalues --  -38.43501 -38.42826  -2.20076  -2.20036  -2.19729
  Beta  occ. eigenvalues --   -2.19674  -2.19479  -2.19349  -2.18649  -1.13737
  Beta  occ. eigenvalues --   -1.13737  -1.13724  -1.13722  -1.13693  -1.13678
  Beta  occ. eigenvalues --   -1.13460  -1.13398  -1.13388  -1.13378  -1.13343
  Beta  occ. eigenvalues --   -1.13310  -1.13171  -1.13141  -1.13111  -1.13066
  Beta  occ. eigenvalues --   -1.13006  -1.12965  -1.12325  -1.12311  -1.12278
  Beta  occ. eigenvalues --   -0.17635  -0.13303  -0.11196
  Beta virt. eigenvalues --   -0.07488  -0.05925  -0.05000  -0.03977  -0.03064
  Beta virt. eigenvalues --   -0.02251  -0.01905  -0.01815  -0.00821  -0.00309
  Beta virt. eigenvalues --    0.00094   0.00284   0.00334   0.00577   0.00797

 Mulliken charges and spin densities:
               1          2
     1  Na  -0.371986   0.537076
     2  Na   0.035419  -0.057876
     3  Na   0.148573   0.322072
     4  Na  -0.279274   0.117701
     5  Na   0.067280  -0.054984
     6  Na  -0.208815   0.145530
     7  Na   0.608804  -0.009520
 Sum of Mulliken charges =  -0.00000   1.00000

 Dipole moment (field-independent basis, Debye):
    X=              0.3875    Y=             -0.2708    Z=             -0.1248  Tot=              0.4890
 Quadrupole moment (field-independent basis, Debye-Ang):
   XX=            -52.2435   YY=            -73.8014   ZZ=            -67.9949
   XY=             -0.0717   XZ=              0.8195   YZ=              1.9259

 Normal termination of Gaussian 16 at Wed Nov 29 16:09:15 2023.
