 Gaussian 16, Revision B.01,
 Gaussian 16:  ES64L-G16RevB.01 20-Dec-2017

 -------------------------
 #P B3LYP/6-311+g(d) force
 -------------------------

 -----
 DPGEN
 -----
 Symbolic Z-matrix:
 Charge =  0 Multiplicity = 2

                         Standard orientation:
 ---------------------------------------------------------------------
 Center     Atomic      Atomic             Coordinates (Angstroms)
 Number     Number       Type             X           Y           Z
 ---------------------------------------------------------------------
      1         11           0        2.074388    0.296310    2.114322
      2         11           0       -0.951531   -1.228991    0.332038
      3         11           0        1.309769    0.177312   -1.750068
      4         11           0        3.746027   -1.704006   -0.538793
      5         11           0       -1.256158    1.888540   -1.760164
      6         11           0       -4.446065   -1.766207    0.304046
      7         11           0       -0.476430    2.337042    1.298619
 ---------------------------------------------------------------------

 SCF Done:  E(UB3LYP) =  -1136.11683836     A.U. after   26 cycles

 The electronic state is 2-A.
 Alpha  occ. eigenvalues --  -38.45151 -38.44595 -38.44419 -38.44318 -38.44260
 Alpha  occ. eigenvalues --  -38.43419 -38.43195  -2.20984  -2.20523  -2.20217
 Alpha  occ. eigenvalues --   -2.20207  -2.20121  -2.19255  -2.18937  -1.14658
 Alpha  occ. eigenvalues --   -1.14645  -1.14581  -1.14230  -1.14185  -1.14153
 Alpha  occ. eigenvalues --   -1.13901  -1.13891  -1.13873  -1.13864  -1.13836
 Alpha  occ. eigenvalues --   -1.13814  -1.13789  -1.13770  -1.13719  -1.12967
 Alpha  occ. eigenvalues --   -1.12918  -1.12865  -1.12611  -1.12609  -1.12569
 Alpha  occ. eigenvalues --   -0.18371  -0.13177  -0.12567  -0.11135
 Alpha virt. eigenvalues --   -0.06479  -0.05375  -0.04979  -0.03670  -0.02653
 Alpha virt. eigenvalues --   -0.02415  -0.02040  -0.01585  -0.01034  -0.00119
 Alpha virt. eigenvalues --   -0.00018   0.00039   0.00177   0.00427   0.00673

  Beta  occ. eigenvalues --  -38.45078 -38.44527 -38.44408 -38.44279 -38.44231
  Beta  occ. eigenvalues --  -38.43406 -38.43203  -2.20852  -2.20400  -2.20197
  Beta  occ. eigenvalues --   -2.20137  -2.20071  -2.19232  -2.18953  -1.14564
  Beta  occ. eigenvalues --   -1.14557  -1.14476  -1.14143  -1.14090  -1.14069
  Beta  occ. eigenvalues --   -1.13868  -1.13859  -1.13853  -1.13832  -1.13796
  Beta  occ. eigenvalues --   -1.13766  -1.13742  -1.13736  -1.13677  -1.12929
  Beta  occ. eigenvalues --   -1.12907  -1.12855  -1.12622  -1.12620  -1.12578
  Beta  occ. eigenvalues --   -0.17516  -0.13005  -0.11041
  Beta virt. eigenvalues --   -0.08400  -0.06363  -0.04913  -0.04434  -0.02921
  Beta virt. eigenvalues --   -0.02520  -0.01970  -0.01880  -0.01422  -0.00649
  Beta virt. eigenvalues --   -0.00026   0.00118   0.00165   0.00310   0.00597

 Mulliken charges and spin densities:
               1          2
     1  Na   0.341737   0.224111
     2  Na  -1.121038   0.301849
     3  Na  -0.969103   0.393354
     4  Na   0.706563   0.003377
     5  Na   1.123184   0.060052
     6  Na   0.138829  -0.081699
     7  Na  -0.220171   0.098956
 Sum of Mulliken charges =  -0.00000   1.00000

 Dipole moment (field-independent basis, Debye):
    X=              1.6707    Y=              1.1518    Z=              0.0092  Tot=              2.0293
 Quadrupole moment (field-independent basis, Debye-Ang):
   XX=            -60.4429   YY=            -72.2362   ZZ=            -65.0989
   XY=             -9.7021   XZ=              2.8325   YZ=              0.8771

 Normal termination of Gaussian 16 at Thu Dec  7 16:13:25 2023.
