 Gaussian 16, Revision B.01,
 Gaussian 16:  ES64L-G16RevB.01 20-Dec-2017

 -------------------------
 #P B3LYP/6-311+g(d) force
 -------------------------

 -----
 DPGEN
 -----
 Symbolic Z-matrix:
 Charge =  0 Multiplicity = 2

                         Standard orientation:
 ---------------------------------------------------------------------
 Center     Atomic      Atomic             Coordinates (Angstroms)
 Number     Number       Type             X           Y           Z
 ---------------------------------------------------------------------
      1         11           0       -1.951761    2.396432   -0.001267
      2         11           0       -0.185556    0.273816   -1.717844
      3         11           0       -3.646583   -1.149027    0.189611
      4         11           0        0.133284   -2.693591   -0.574029
      5         11           0        3.534952   -1.095147    0.320072
      6         11           0        2.155974    2.212718   -0.279032
      7         11           0       -0.040311    0.054800    2.062489
 ---------------------------------------------------------------------

 SCF Done:  E(UB3LYP) =  -1136.12478418     A.U. after   22 cycles

 The electronic state is 2-A.
 Alpha  occ. eigenvalues --  -38.45274 -38.44757 -38.44322 -38.43851 -38.43778
 Alpha  occ. eigenvalues --  -38.43268 -38.43249  -2.20997  -2.20510  -2.20142
 Alpha  occ. eigenvalues --   -2.19656  -2.19592  -2.19208  -2.19069  -1.14678
 Alpha  occ. eigenvalues --   -1.14656  -1.14630  -1.14185  -1.14169  -1.14147
 Alpha  occ. eigenvalues --   -1.13819  -1.13780  -1.13753  -1.13352  -1.13319
 Alpha  occ. eigenvalues --   -1.13299  -1.13279  -1.13260  -1.13206  -1.12916
 Alpha  occ. eigenvalues --   -1.12860  -1.12827  -1.12740  -1.12729  -1.12668
 Alpha  occ. eigenvalues --   -0.17822  -0.12894  -0.11798  -0.10572
 Alpha virt. eigenvalues --   -0.06763  -0.05642  -0.04074  -0.03195  -0.02731
 Alpha virt. eigenvalues --   -0.02571  -0.02342  -0.01566  -0.00595  -0.00328
 Alpha virt. eigenvalues --   -0.00154   0.00223   0.00586   0.00618   0.00721

  Beta  occ. eigenvalues --  -38.45277 -38.44755 -38.44242 -38.43845 -38.43774
  Beta  occ. eigenvalues --  -38.43229 -38.43191  -2.21004  -2.20508  -2.19994
  Beta  occ. eigenvalues --   -2.19648  -2.19587  -2.19068  -2.19035  -1.14677
  Beta  occ. eigenvalues --   -1.14658  -1.14636  -1.14177  -1.14165  -1.14147
  Beta  occ. eigenvalues --   -1.13718  -1.13677  -1.13643  -1.13338  -1.13305
  Beta  occ. eigenvalues --   -1.13288  -1.13273  -1.13245  -1.13203  -1.12834
  Beta  occ. eigenvalues --   -1.12767  -1.12734  -1.12700  -1.12674  -1.12648
  Beta  occ. eigenvalues --   -0.17097  -0.12741  -0.11535
  Beta virt. eigenvalues --   -0.06877  -0.06485  -0.05647  -0.04005  -0.02592
  Beta virt. eigenvalues --   -0.02215  -0.01991  -0.01532  -0.01508  -0.00649
  Beta virt. eigenvalues --   -0.00286  -0.00014   0.00246   0.00684   0.00721

 Mulliken charges and spin densities:
               1          2
     1  Na   0.042364  -0.115931
     2  Na   0.378773   0.483953
     3  Na  -0.040350  -0.058009
     4  Na  -0.046701  -0.050770
     5  Na  -0.045469   0.023553
     6  Na   0.067587  -0.080946
     7  Na  -0.356205   0.798151
 Sum of Mulliken charges =  -0.00000   1.00000

 Dipole moment (field-independent basis, Debye):
    X=             -0.2603    Y=              0.0105    Z=              0.3151  Tot=              0.4088
 Quadrupole moment (field-independent basis, Debye-Ang):
   XX=            -48.6154   YY=            -67.5651   ZZ=            -75.5651
   XY=              0.2139   XZ=             -0.0828   YZ=             -0.1856

 Normal termination of Gaussian 16 at Thu Dec  7 15:10:53 2023.
