 Gaussian 16, Revision B.01,
 Gaussian 16:  ES64L-G16RevB.01 20-Dec-2017

 -------------------------
 #P B3LYP/6-311+g(d) force
 -------------------------

 -----
 DPGEN
 -----
 Symbolic Z-matrix:
 Charge =  0 Multiplicity = 2

                         Standard orientation:
 ---------------------------------------------------------------------
 Center     Atomic      Atomic             Coordinates (Angstroms)
 Number     Number       Type             X           Y           Z
 ---------------------------------------------------------------------
      1         11           0        3.229105    0.095732   -1.485848
      2         11           0        2.573899   -1.069729    1.327136
      3         11           0        0.076265   -1.231021   -1.367505
      4         11           0       -0.793254    0.625922    1.959864
      5         11           0       -2.842425   -1.762481    0.379905
      6         11           0       -3.166251    1.237058   -1.191391
      7         11           0        0.922662    2.104519    0.377838
 ---------------------------------------------------------------------

 SCF Done:  E(UB3LYP) =  -1136.11795409     A.U. after   23 cycles

 The electronic state is 2-A.
 Alpha  occ. eigenvalues --  -38.45296 -38.45129 -38.44116 -38.43999 -38.43905
 Alpha  occ. eigenvalues --  -38.42954 -38.42551  -2.21079  -2.20977  -2.19956
 Alpha  occ. eigenvalues --   -2.19871  -2.19744  -2.18879  -2.18483  -1.14751
 Alpha  occ. eigenvalues --   -1.14709  -1.14708  -1.14664  -1.14640  -1.14586
 Alpha  occ. eigenvalues --   -1.13627  -1.13613  -1.13591  -1.13545  -1.13526
 Alpha  occ. eigenvalues --   -1.13503  -1.13445  -1.13434  -1.13337  -1.12763
 Alpha  occ. eigenvalues --   -1.12518  -1.12475  -1.12135  -1.12108  -1.12073
 Alpha  occ. eigenvalues --   -0.18305  -0.14220  -0.10979  -0.10909
 Alpha virt. eigenvalues --   -0.06697  -0.05924  -0.04447  -0.03017  -0.02619
 Alpha virt. eigenvalues --   -0.02496  -0.02325  -0.01370  -0.00475  -0.00333
 Alpha virt. eigenvalues --    0.00149   0.00208   0.00427   0.00492   0.00537

  Beta  occ. eigenvalues --  -38.45252 -38.45101 -38.44095 -38.43982 -38.43888
  Beta  occ. eigenvalues --  -38.42938 -38.42533  -2.20995  -2.20926  -2.19918
  Beta  occ. eigenvalues --   -2.19839  -2.19717  -2.18850  -2.18454  -1.14690
  Beta  occ. eigenvalues --   -1.14655  -1.14649  -1.14620  -1.14604  -1.14552
  Beta  occ. eigenvalues --   -1.13595  -1.13588  -1.13557  -1.13520  -1.13504
  Beta  occ. eigenvalues --   -1.13478  -1.13422  -1.13390  -1.13323  -1.12743
  Beta  occ. eigenvalues --   -1.12492  -1.12449  -1.12119  -1.12069  -1.12044
  Beta  occ. eigenvalues --   -0.17649  -0.13983  -0.10831
  Beta virt. eigenvalues --   -0.07389  -0.06397  -0.05136  -0.04317  -0.02907
  Beta virt. eigenvalues --   -0.02289  -0.02075  -0.01734  -0.00837  -0.00388
  Beta virt. eigenvalues --   -0.00126   0.00220   0.00305   0.00512   0.00616

 Mulliken charges and spin densities:
               1          2
     1  Na   0.576847  -0.067283
     2  Na   0.055946  -0.076938
     3  Na  -0.713657   0.404566
     4  Na   0.127458   0.497737
     5  Na   0.546308  -0.004555
     6  Na  -0.100356   0.023606
     7  Na  -0.492547   0.222869
 Sum of Mulliken charges =  -0.00000   1.00000

 Dipole moment (field-independent basis, Debye):
    X=             -0.0634    Y=             -0.1782    Z=             -0.1269  Tot=              0.2278
 Quadrupole moment (field-independent basis, Debye-Ang):
   XX=            -50.6724   YY=            -72.5265   ZZ=            -71.7092
   XY=             -1.0125   XZ=              1.4011   YZ=             -9.4021

 Normal termination of Gaussian 16 at Tue Dec  5 17:29:21 2023.
