 Gaussian 16, Revision B.01,
 Gaussian 16:  ES64L-G16RevB.01 20-Dec-2017

 -------------------------
 #P B3LYP/6-311+g(d) force
 -------------------------

 -----
 DPGEN
 -----
 Symbolic Z-matrix:
 Charge =  0 Multiplicity = 2

                         Standard orientation:
 ---------------------------------------------------------------------
 Center     Atomic      Atomic             Coordinates (Angstroms)
 Number     Number       Type             X           Y           Z
 ---------------------------------------------------------------------
      1         11           0       -0.625476    1.255345    2.006290
      2         11           0        2.940114    0.357779    0.405842
      3         11           0       -3.649398   -0.376170   -0.377263
      4         11           0       -0.865872   -1.928079    0.809464
      5         11           0        1.941497   -2.857513   -0.461340
      6         11           0       -0.431991    0.190262   -1.717018
      7         11           0        0.691126    3.358375   -0.665975
 ---------------------------------------------------------------------

 SCF Done:  E(UB3LYP) =  -1136.13143818     A.U. after   19 cycles

 The electronic state is 2-A.
 Alpha  occ. eigenvalues --  -38.44717 -38.44302 -38.43788 -38.43720 -38.43699
 Alpha  occ. eigenvalues --  -38.43356 -38.43332  -2.20488  -2.20095  -2.19633
 Alpha  occ. eigenvalues --   -2.19603  -2.19493  -2.19274  -2.19159  -1.14177
 Alpha  occ. eigenvalues --   -1.14158  -1.14107  -1.13764  -1.13757  -1.13732
 Alpha  occ. eigenvalues --   -1.13323  -1.13303  -1.13269  -1.13247  -1.13236
 Alpha  occ. eigenvalues --   -1.13222  -1.13157  -1.13153  -1.13123  -1.12976
 Alpha  occ. eigenvalues --   -1.12959  -1.12913  -1.12812  -1.12805  -1.12787
 Alpha  occ. eigenvalues --   -0.17949  -0.12699  -0.12442  -0.10772
 Alpha virt. eigenvalues --   -0.06088  -0.05284  -0.04558  -0.03296  -0.02934
 Alpha virt. eigenvalues --   -0.02576  -0.01866  -0.01315  -0.00480  -0.00326
 Alpha virt. eigenvalues --    0.00054   0.00304   0.00658   0.00708   0.00820

  Beta  occ. eigenvalues --  -38.44714 -38.44299 -38.43703 -38.43691 -38.43657
  Beta  occ. eigenvalues --  -38.43335 -38.43332  -2.20485  -2.20091  -2.19488
  Beta  occ. eigenvalues --   -2.19481  -2.19475  -2.19241  -2.19159  -1.14159
  Beta  occ. eigenvalues --   -1.14158  -1.14110  -1.13762  -1.13742  -1.13730
  Beta  occ. eigenvalues --   -1.13230  -1.13207  -1.13181  -1.13159  -1.13145
  Beta  occ. eigenvalues --   -1.13144  -1.13132  -1.13116  -1.13105  -1.12956
  Beta  occ. eigenvalues --   -1.12925  -1.12877  -1.12806  -1.12803  -1.12782
  Beta  occ. eigenvalues --   -0.17237  -0.12538  -0.12263
  Beta virt. eigenvalues --   -0.06854  -0.06029  -0.05147  -0.04409  -0.02621
  Beta virt. eigenvalues --   -0.02407  -0.01805  -0.01586  -0.01258  -0.00367
  Beta virt. eigenvalues --   -0.00217   0.00143   0.00351   0.00688   0.00791

 Mulliken charges and spin densities:
               1          2
     1  Na   0.022166   0.344483
     2  Na  -0.173462   0.052150
     3  Na   0.116102  -0.037223
     4  Na  -0.047125   0.297056
     5  Na   0.296189  -0.124288
     6  Na  -0.148703   0.499034
     7  Na  -0.065166  -0.031212
 Sum of Mulliken charges =  -0.00000   1.00000

 Dipole moment (field-independent basis, Debye):
    X=             -0.1617    Y=              0.3729    Z=             -0.0648  Tot=              0.4115
 Quadrupole moment (field-independent basis, Debye-Ang):
   XX=            -56.5523   YY=            -63.3875   ZZ=            -73.2062
   XY=              0.1361   XZ=              0.3934   YZ=              0.1713

 Normal termination of Gaussian 16 at Tue Dec  5 15:08:50 2023.
