 Gaussian 16, Revision B.01,
 Gaussian 16:  ES64L-G16RevB.01 20-Dec-2017

 -------------------------
 #P B3LYP/6-311+g(d) force
 -------------------------

 -----
 DPGEN
 -----
 Symbolic Z-matrix:
 Charge =  0 Multiplicity = 2

                         Standard orientation:
 ---------------------------------------------------------------------
 Center     Atomic      Atomic             Coordinates (Angstroms)
 Number     Number       Type             X           Y           Z
 ---------------------------------------------------------------------
      1         11           0        1.390595    2.316210    0.411548
      2         11           0       -1.792300    2.159933   -0.521555
      3         11           0        3.106141   -0.599272   -0.312208
      4         11           0        0.278123   -2.681272    0.410172
      5         11           0       -2.648302   -1.292067   -0.440554
      6         11           0       -0.677857    0.193299    1.932165
      7         11           0        0.343601   -0.096830   -1.479568
 ---------------------------------------------------------------------

 SCF Done:  E(UB3LYP) =  -1136.13709261     A.U. after   18 cycles

 The electronic state is 2-A.
 Alpha  occ. eigenvalues --  -38.43686 -38.43626 -38.43374 -38.43363 -38.43320
 Alpha  occ. eigenvalues --  -38.43310 -38.42927  -2.19551  -2.19510  -2.19337
 Alpha  occ. eigenvalues --   -2.19273  -2.19233  -2.19209  -2.19013  -1.13283
 Alpha  occ. eigenvalues --   -1.13197  -1.13197  -1.13181  -1.13178  -1.13151
 Alpha  occ. eigenvalues --   -1.13047  -1.13002  -1.12976  -1.12973  -1.12929
 Alpha  occ. eigenvalues --   -1.12914  -1.12903  -1.12900  -1.12884  -1.12865
 Alpha  occ. eigenvalues --   -1.12827  -1.12816  -1.12677  -1.12634  -1.12624
 Alpha  occ. eigenvalues --   -0.19300  -0.13063  -0.12776  -0.10968
 Alpha virt. eigenvalues --   -0.05267  -0.04952  -0.04632  -0.03155  -0.03079
 Alpha virt. eigenvalues --   -0.02456  -0.01350  -0.01011  -0.00192   0.00060
 Alpha virt. eigenvalues --    0.00094   0.00360   0.00879   0.00935   0.00938

  Beta  occ. eigenvalues --  -38.43683 -38.43615 -38.43348 -38.43308 -38.43299
  Beta  occ. eigenvalues --  -38.43287 -38.42870  -2.19547  -2.19493  -2.19250
  Beta  occ. eigenvalues --   -2.19216  -2.19193  -2.19178  -2.18910  -1.13271
  Beta  occ. eigenvalues --   -1.13187  -1.13186  -1.13180  -1.13155  -1.13126
  Beta  occ. eigenvalues --   -1.13002  -1.12935  -1.12924  -1.12918  -1.12891
  Beta  occ. eigenvalues --   -1.12878  -1.12870  -1.12842  -1.12831  -1.12817
  Beta  occ. eigenvalues --   -1.12813  -1.12790  -1.12606  -1.12559  -1.12553
  Beta  occ. eigenvalues --   -0.18569  -0.12807  -0.12518
  Beta virt. eigenvalues --   -0.06987  -0.05206  -0.04934  -0.04598  -0.02413
  Beta virt. eigenvalues --   -0.02295  -0.01429  -0.01228  -0.00953  -0.00109
  Beta virt. eigenvalues --    0.00020   0.00168   0.00396   0.00922   0.00935

 Mulliken charges and spin densities:
               1          2
     1  Na   0.208238   0.061378
     2  Na   0.143882   0.021635
     3  Na   0.174445  -0.022238
     4  Na   0.118558   0.039410
     5  Na   0.093784  -0.012930
     6  Na  -0.360766   0.554023
     7  Na  -0.378140   0.358722
 Sum of Mulliken charges =  -0.00000   1.00000

 Dipole moment (field-independent basis, Debye):
    X=             -0.0601    Y=             -0.0519    Z=              0.1745  Tot=              0.1917
 Quadrupole moment (field-independent basis, Debye-Ang):
   XX=            -57.3906   YY=            -62.9642   ZZ=            -72.9602
   XY=             -0.0465   XZ=              1.9794   YZ=             -0.4867

 Normal termination of Gaussian 16 at Sun Dec  3 12:43:23 2023.
