 Gaussian 16, Revision B.01,
 Gaussian 16:  ES64L-G16RevB.01 20-Dec-2017

 -------------------------
 #P B3LYP/6-311+g(d) force
 -------------------------

 -----
 DPGEN
 -----
 Symbolic Z-matrix:
 Charge =  0 Multiplicity = 2

                         Standard orientation:
 ---------------------------------------------------------------------
 Center     Atomic      Atomic             Coordinates (Angstroms)
 Number     Number       Type             X           Y           Z
 ---------------------------------------------------------------------
      1         11           0       -4.346205    0.332229   -0.464804
      2         11           0       -0.750560    2.076804   -1.081359
      3         11           0        4.689039   -0.270597   -0.549247
      4         11           0        1.708545   -1.584472   -0.186819
      5         11           0       -1.582782   -0.261000    1.796566
      6         11           0        2.079188    1.557898    0.974946
      7         11           0       -1.797226   -1.850862   -0.489283
 ---------------------------------------------------------------------

 SCF Done:  E(UB3LYP) =  -1136.11435041     A.U. after   26 cycles

 The electronic state is 2-A.
 Alpha  occ. eigenvalues --  -38.45620 -38.44575 -38.44141 -38.43715 -38.43616
 Alpha  occ. eigenvalues --  -38.43437 -38.43368  -2.21510  -2.20415  -2.19975
 Alpha  occ. eigenvalues --   -2.19556  -2.19553  -2.19298  -2.19140  -1.15292
 Alpha  occ. eigenvalues --   -1.15137  -1.15109  -1.14078  -1.14038  -1.14027
 Alpha  occ. eigenvalues --   -1.13628  -1.13615  -1.13602  -1.13284  -1.13255
 Alpha  occ. eigenvalues --   -1.13236  -1.13196  -1.13162  -1.13149  -1.12996
 Alpha  occ. eigenvalues --   -1.12974  -1.12914  -1.12846  -1.12804  -1.12783
 Alpha  occ. eigenvalues --   -0.17978  -0.14652  -0.11125  -0.10927
 Alpha virt. eigenvalues --   -0.07036  -0.05171  -0.04840  -0.03165  -0.02997
 Alpha virt. eigenvalues --   -0.02117  -0.01921  -0.01719  -0.01229  -0.00436
 Alpha virt. eigenvalues --   -0.00208   0.00131   0.00320   0.00675   0.00693

  Beta  occ. eigenvalues --  -38.45601 -38.44488 -38.44076 -38.43697 -38.43594
  Beta  occ. eigenvalues --  -38.43418 -38.43399  -2.21478  -2.20252  -2.19853
  Beta  occ. eigenvalues --   -2.19525  -2.19518  -2.19271  -2.19201  -1.15272
  Beta  occ. eigenvalues --   -1.15094  -1.15081  -1.13963  -1.13935  -1.13918
  Beta  occ. eigenvalues --   -1.13544  -1.13533  -1.13522  -1.13265  -1.13233
  Beta  occ. eigenvalues --   -1.13219  -1.13179  -1.13122  -1.13079  -1.12985
  Beta  occ. eigenvalues --   -1.12953  -1.12887  -1.12853  -1.12844  -1.12813
  Beta  occ. eigenvalues --   -0.17325  -0.14002  -0.10716
  Beta virt. eigenvalues --   -0.07570  -0.06882  -0.04827  -0.04155  -0.03044
  Beta virt. eigenvalues --   -0.02890  -0.01900  -0.01383  -0.01116  -0.00903
  Beta virt. eigenvalues --   -0.00222  -0.00113   0.00211   0.00398   0.00748

 Mulliken charges and spin densities:
               1          2
     1  Na   0.468517   0.474727
     2  Na  -0.356824  -0.205388
     3  Na   0.808698   0.359795
     4  Na  -0.810693   0.102753
     5  Na   0.014734   0.187712
     6  Na  -0.023883   0.102107
     7  Na  -0.100548  -0.021706
 Sum of Mulliken charges =  -0.00000   1.00000

 Dipole moment (field-independent basis, Debye):
    X=             -0.3825    Y=              0.2469    Z=              0.4882  Tot=              0.6676
 Quadrupole moment (field-independent basis, Debye-Ang):
   XX=            -57.7695   YY=            -80.8793   ZZ=            -61.3789
   XY=              1.2641   XZ=             -1.2290   YZ=              2.0879

 Normal termination of Gaussian 16 at Tue Dec  5 14:08:35 2023.
