 Gaussian 16, Revision B.01,
 Gaussian 16:  ES64L-G16RevB.01 20-Dec-2017

 -------------------------
 #P B3LYP/6-311+g(d) force
 -------------------------

 -----
 DPGEN
 -----
 Symbolic Z-matrix:
 Charge =  0 Multiplicity = 2

                         Standard orientation:
 ---------------------------------------------------------------------
 Center     Atomic      Atomic             Coordinates (Angstroms)
 Number     Number       Type             X           Y           Z
 ---------------------------------------------------------------------
      1         11           0       -0.419762   -0.023609   -1.653153
      2         11           0       -3.178356   -0.631357    0.332294
      3         11           0        2.231781    1.392623   -0.128180
      4         11           0       -0.690735    3.116493   -0.384908
      5         11           0       -0.005367    0.404075    2.090072
      6         11           0       -0.683582   -2.543559   -0.319850
      7         11           0        2.746021   -1.714666    0.063725
 ---------------------------------------------------------------------

 SCF Done:  E(UB3LYP) =  -1136.13279320     A.U. after   19 cycles

 The electronic state is 2-A.
 Alpha  occ. eigenvalues --  -38.44098 -38.43868 -38.43553 -38.43538 -38.43470
 Alpha  occ. eigenvalues --  -38.43455 -38.43442  -2.19934  -2.19746  -2.19478
 Alpha  occ. eigenvalues --   -2.19438  -2.19395  -2.19384  -2.19292  -1.13614
 Alpha  occ. eigenvalues --   -1.13595  -1.13578  -1.13423  -1.13389  -1.13379
 Alpha  occ. eigenvalues --   -1.13359  -1.13147  -1.13112  -1.13098  -1.13082
 Alpha  occ. eigenvalues --   -1.13069  -1.13058  -1.13050  -1.13030  -1.13019
 Alpha  occ. eigenvalues --   -1.13007  -1.12980  -1.12945  -1.12929  -1.12911
 Alpha  occ. eigenvalues --   -0.18792  -0.13119  -0.12469  -0.10949
 Alpha virt. eigenvalues --   -0.05530  -0.05088  -0.04616  -0.03351  -0.02931
 Alpha virt. eigenvalues --   -0.02652  -0.01476  -0.01261  -0.00189  -0.00048
 Alpha virt. eigenvalues --    0.00002   0.00348   0.00808   0.00871   0.00930

  Beta  occ. eigenvalues --  -38.44092 -38.43775 -38.43546 -38.43527 -38.43461
  Beta  occ. eigenvalues --  -38.43457 -38.43376  -2.19925  -2.19575  -2.19454
  Beta  occ. eigenvalues --   -2.19384  -2.19373  -2.19325  -2.19297  -1.13611
  Beta  occ. eigenvalues --   -1.13581  -1.13561  -1.13341  -1.13310  -1.13259
  Beta  occ. eigenvalues --   -1.13239  -1.13116  -1.13095  -1.13075  -1.13061
  Beta  occ. eigenvalues --   -1.13045  -1.13028  -1.13012  -1.13009  -1.12991
  Beta  occ. eigenvalues --   -1.12950  -1.12942  -1.12925  -1.12915  -1.12912
  Beta  occ. eigenvalues --   -0.18057  -0.12885  -0.12242
  Beta virt. eigenvalues --   -0.07022  -0.05457  -0.05038  -0.04581  -0.02550
  Beta virt. eigenvalues --   -0.02200  -0.01620  -0.01371  -0.01192  -0.00217
  Beta virt. eigenvalues --   -0.00056   0.00121   0.00370   0.00849   0.00866

 Mulliken charges and spin densities:
               1          2
     1  Na  -0.177953   0.258613
     2  Na   0.032470  -0.009266
     3  Na   0.272764   0.101594
     4  Na   0.188023  -0.053913
     5  Na  -0.552031   0.638843
     6  Na   0.366352   0.111543
     7  Na  -0.129624  -0.047413
 Sum of Mulliken charges =  -0.00000   1.00000

 Dipole moment (field-independent basis, Debye):
    X=             -0.4725    Y=              0.1526    Z=              0.2775  Tot=              0.5688
 Quadrupole moment (field-independent basis, Debye-Ang):
   XX=            -58.4877   YY=            -62.3232   ZZ=            -73.3340
   XY=             -1.5527   XZ=             -0.9244   YZ=             -0.8831

 Normal termination of Gaussian 16 at Tue Dec  5 17:37:34 2023.
