 Gaussian 16, Revision B.01,
 Gaussian 16:  ES64L-G16RevB.01 20-Dec-2017

 -------------------------
 #P B3LYP/6-311+g(d) force
 -------------------------

 -----
 DPGEN
 -----
 Symbolic Z-matrix:
 Charge =  0 Multiplicity = 2

                         Standard orientation:
 ---------------------------------------------------------------------
 Center     Atomic      Atomic             Coordinates (Angstroms)
 Number     Number       Type             X           Y           Z
 ---------------------------------------------------------------------
      1         11           0        3.397048    1.052567   -0.279211
      2         11           0       -0.166008   -0.170382   -1.178497
      3         11           0       -0.049784   -0.598533    1.773753
      4         11           0       -3.291667    0.838412    0.194084
      5         11           0       -0.191002    2.964718   -0.016103
      6         11           0        2.961113   -1.988552    0.028996
      7         11           0       -2.659701   -2.098231   -0.523022
 ---------------------------------------------------------------------

 SCF Done:  E(UB3LYP) =  -1136.12038418     A.U. after   24 cycles

 The electronic state is 2-A.
 Alpha  occ. eigenvalues --  -38.44988 -38.44537 -38.44430 -38.44210 -38.43544
 Alpha  occ. eigenvalues --  -38.43314 -38.42573  -2.20840  -2.20507  -2.20256
 Alpha  occ. eigenvalues --   -2.20038  -2.19429  -2.19234  -2.18389  -1.14521
 Alpha  occ. eigenvalues --   -1.14512  -1.14468  -1.14287  -1.14150  -1.14116
 Alpha  occ. eigenvalues --   -1.13967  -1.13921  -1.13876  -1.13703  -1.13680
 Alpha  occ. eigenvalues --   -1.13668  -1.13104  -1.13096  -1.13046  -1.12942
 Alpha  occ. eigenvalues --   -1.12832  -1.12817  -1.12080  -1.12046  -1.12026
 Alpha  occ. eigenvalues --   -0.18361  -0.14231  -0.11615  -0.10027
 Alpha virt. eigenvalues --   -0.06882  -0.05727  -0.04250  -0.03298  -0.02803
 Alpha virt. eigenvalues --   -0.02175  -0.01762  -0.01581  -0.00831  -0.00439
 Alpha virt. eigenvalues --   -0.00127   0.00144   0.00541   0.00688   0.00705

  Beta  occ. eigenvalues --  -38.44974 -38.44530 -38.44397 -38.44204 -38.43523
  Beta  occ. eigenvalues --  -38.43207 -38.42574  -2.20817  -2.20497  -2.20195
  Beta  occ. eigenvalues --   -2.20031  -2.19394  -2.19037  -2.18391  -1.14508
  Beta  occ. eigenvalues --   -1.14489  -1.14433  -1.14242  -1.14150  -1.14114
  Beta  occ. eigenvalues --   -1.13932  -1.13874  -1.13830  -1.13700  -1.13671
  Beta  occ. eigenvalues --   -1.13638  -1.13083  -1.13074  -1.12999  -1.12811
  Beta  occ. eigenvalues --   -1.12703  -1.12674  -1.12081  -1.12040  -1.12027
  Beta  occ. eigenvalues --   -0.17768  -0.13739  -0.11459
  Beta virt. eigenvalues --   -0.06667  -0.06406  -0.05550  -0.04171  -0.02773
  Beta virt. eigenvalues --   -0.02518  -0.01668  -0.01494  -0.01047  -0.00743
  Beta virt. eigenvalues --   -0.00329   0.00062   0.00286   0.00654   0.00719

 Mulliken charges and spin densities:
               1          2
     1  Na  -0.016838   0.206144
     2  Na  -0.615588   0.157910
     3  Na  -0.258251   0.459262
     4  Na   0.301476   0.087881
     5  Na  -0.216190  -0.124766
     6  Na   0.407616   0.036138
     7  Na   0.397775   0.177430
 Sum of Mulliken charges =  -0.00000   1.00000

 Dipole moment (field-independent basis, Debye):
    X=             -0.1628    Y=             -0.2469    Z=              0.5949  Tot=              0.6644
 Quadrupole moment (field-independent basis, Debye-Ang):
   XX=            -57.5379   YY=            -66.5266   ZZ=            -72.9106
   XY=             -2.0896   XZ=             -1.6252   YZ=              2.0877

 Normal termination of Gaussian 16 at Tue Dec  5 09:56:24 2023.
