 Gaussian 16, Revision B.01,
 Gaussian 16:  ES64L-G16RevB.01 20-Dec-2017

 -------------------------
 #P B3LYP/6-311+g(d) force
 -------------------------

 -----
 DPGEN
 -----
 Symbolic Z-matrix:
 Charge =  0 Multiplicity = 2

                         Standard orientation:
 ---------------------------------------------------------------------
 Center     Atomic      Atomic             Coordinates (Angstroms)
 Number     Number       Type             X           Y           Z
 ---------------------------------------------------------------------
      1         11           0       -2.916162   -0.250012    0.319105
      2         11           0       -0.000450    0.097414   -1.858646
      3         11           0        2.348243    2.034175   -0.087661
      4         11           0        2.373398   -1.901883    0.264401
      5         11           0       -0.720983   -2.417884   -0.432327
      6         11           0       -1.142546    2.396021   -0.076045
      7         11           0        0.058499    0.042170    1.871174
 ---------------------------------------------------------------------

 SCF Done:  E(UB3LYP) =  -1136.13529475     A.U. after   19 cycles

 The electronic state is 2-A.
 Alpha  occ. eigenvalues --  -38.43708 -38.43637 -38.43576 -38.43493 -38.43400
 Alpha  occ. eigenvalues --  -38.43315 -38.43115  -2.19581  -2.19530  -2.19486
 Alpha  occ. eigenvalues --   -2.19466  -2.19317  -2.19253  -2.19089  -1.13309
 Alpha  occ. eigenvalues --   -1.13277  -1.13215  -1.13204  -1.13186  -1.13170
 Alpha  occ. eigenvalues --   -1.13163  -1.13159  -1.13148  -1.13122  -1.13099
 Alpha  occ. eigenvalues --   -1.13081  -1.13015  -1.12993  -1.12960  -1.12922
 Alpha  occ. eigenvalues --   -1.12906  -1.12835  -1.12770  -1.12723  -1.12689
 Alpha  occ. eigenvalues --   -0.19360  -0.12901  -0.12765  -0.11241
 Alpha virt. eigenvalues --   -0.05263  -0.05049  -0.04361  -0.03220  -0.03159
 Alpha virt. eigenvalues --   -0.02784  -0.01311  -0.01054  -0.00081   0.00037
 Alpha virt. eigenvalues --    0.00174   0.00366   0.00857   0.00935   0.00991

  Beta  occ. eigenvalues --  -38.43707 -38.43633 -38.43489 -38.43411 -38.43392
  Beta  occ. eigenvalues --  -38.43305 -38.43099  -2.19531  -2.19481  -2.19423
  Beta  occ. eigenvalues --   -2.19317  -2.19307  -2.19240  -2.19065  -1.13212
  Beta  occ. eigenvalues --   -1.13209  -1.13192  -1.13175  -1.13171  -1.13158
  Beta  occ. eigenvalues --   -1.13131  -1.13120  -1.13071  -1.13059  -1.13021
  Beta  occ. eigenvalues --   -1.13002  -1.12993  -1.12958  -1.12913  -1.12899
  Beta  occ. eigenvalues --   -1.12866  -1.12829  -1.12742  -1.12682  -1.12673
  Beta  occ. eigenvalues --   -0.18587  -0.12631  -0.12495
  Beta virt. eigenvalues --   -0.07255  -0.05267  -0.05003  -0.04360  -0.02401
  Beta virt. eigenvalues --   -0.02331  -0.01708  -0.01222  -0.00995  -0.00019
  Beta virt. eigenvalues --    0.00028   0.00163   0.00379   0.00890   0.00933

 Mulliken charges and spin densities:
               1          2
     1  Na   0.198746   0.016505
     2  Na  -0.328612   0.512052
     3  Na  -0.060206  -0.141102
     4  Na  -0.041503  -0.101586
     5  Na   0.443756   0.086280
     6  Na   0.294160  -0.038481
     7  Na  -0.506342   0.666332
 Sum of Mulliken charges =  -0.00000   1.00000

 Dipole moment (field-independent basis, Debye):
    X=              0.3500    Y=              0.1718    Z=              0.1229  Tot=              0.4088
 Quadrupole moment (field-independent basis, Debye-Ang):
   XX=            -58.2648   YY=            -64.1021   ZZ=            -71.9876
   XY=              0.1434   XZ=             -0.1775   YZ=             -0.1292

 Normal termination of Gaussian 16 at Thu Dec  7 06:52:24 2023.
