 Gaussian 16, Revision B.01,
 Gaussian 16:  ES64L-G16RevB.01 20-Dec-2017

 -------------------------
 #P B3LYP/6-311+g(d) force
 -------------------------

 -----
 DPGEN
 -----
 Symbolic Z-matrix:
 Charge =  0 Multiplicity = 2

                         Standard orientation:
 ---------------------------------------------------------------------
 Center     Atomic      Atomic             Coordinates (Angstroms)
 Number     Number       Type             X           Y           Z
 ---------------------------------------------------------------------
      1         11           0        0.347905    3.035675    0.077654
      2         11           0        0.754953   -0.668314    1.060138
      3         11           0       -1.266403   -2.503028   -0.637268
      4         11           0        4.234301   -0.587600    0.355691
      5         11           0        0.824144    0.163615   -1.597613
      6         11           0       -2.444569    0.545541   -1.246435
      7         11           0       -2.450330    0.014111    1.987833
 ---------------------------------------------------------------------

 SCF Done:  E(UB3LYP) =  -1136.11830676     A.U. after   24 cycles

 The electronic state is 2-A.
 Alpha  occ. eigenvalues --  -38.44988 -38.44451 -38.44248 -38.43743 -38.43525
 Alpha  occ. eigenvalues --  -38.43241 -38.42965  -2.20730  -2.20308  -2.20141
 Alpha  occ. eigenvalues --   -2.19737  -2.19512  -2.19130  -2.18757  -1.14408
 Alpha  occ. eigenvalues --   -1.14391  -1.14350  -1.13988  -1.13965  -1.13899
 Alpha  occ. eigenvalues --   -1.13846  -1.13794  -1.13742  -1.13681  -1.13342
 Alpha  occ. eigenvalues --   -1.13322  -1.13172  -1.13123  -1.13091  -1.12807
 Alpha  occ. eigenvalues --   -1.12787  -1.12746  -1.12429  -1.12429  -1.12389
 Alpha  occ. eigenvalues --   -0.18688  -0.12991  -0.11553  -0.11336
 Alpha virt. eigenvalues --   -0.06811  -0.04563  -0.04122  -0.03070  -0.02758
 Alpha virt. eigenvalues --   -0.02524  -0.02488  -0.00895  -0.00807  -0.00111
 Alpha virt. eigenvalues --    0.00149   0.00156   0.00351   0.00769   0.00881

  Beta  occ. eigenvalues --  -38.44987 -38.44366 -38.44221 -38.43694 -38.43500
  Beta  occ. eigenvalues --  -38.43218 -38.42969  -2.20729  -2.20151  -2.20097
  Beta  occ. eigenvalues --   -2.19651  -2.19468  -2.19092  -2.18766  -1.14405
  Beta  occ. eigenvalues --   -1.14391  -1.14350  -1.13887  -1.13860  -1.13794
  Beta  occ. eigenvalues --   -1.13789  -1.13744  -1.13712  -1.13629  -1.13265
  Beta  occ. eigenvalues --   -1.13258  -1.13126  -1.13094  -1.13046  -1.12783
  Beta  occ. eigenvalues --   -1.12749  -1.12709  -1.12436  -1.12425  -1.12397
  Beta  occ. eigenvalues --   -0.17875  -0.12794  -0.11185
  Beta virt. eigenvalues --   -0.07510  -0.06600  -0.04468  -0.03561  -0.02938
  Beta virt. eigenvalues --   -0.02428  -0.01962  -0.01713  -0.00819  -0.00422
  Beta virt. eigenvalues --   -0.00086   0.00199   0.00249   0.00421   0.00797

 Mulliken charges and spin densities:
               1          2
     1  Na  -0.392690  -0.074401
     2  Na  -0.724650   0.265866
     3  Na   0.104239   0.192462
     4  Na   0.287361   0.005838
     5  Na   0.236018   0.270234
     6  Na   0.265073   0.080658
     7  Na   0.224650   0.259344
 Sum of Mulliken charges =  -0.00000   1.00000

 Dipole moment (field-independent basis, Debye):
    X=              0.2733    Y=             -0.0486    Z=              0.0372  Tot=              0.2801
 Quadrupole moment (field-independent basis, Debye-Ang):
   XX=            -51.0576   YY=            -71.4037   ZZ=            -68.1856
   XY=              0.4743   XZ=              0.5293   YZ=              2.5972

 Normal termination of Gaussian 16 at Sat Dec  9 05:28:29 2023.
