 Gaussian 16, Revision B.01,
 Gaussian 16:  ES64L-G16RevB.01 20-Dec-2017

 -------------------------
 #P B3LYP/6-311+g(d) force
 -------------------------

 -----
 DPGEN
 -----
 Symbolic Z-matrix:
 Charge =  0 Multiplicity = 2

                         Standard orientation:
 ---------------------------------------------------------------------
 Center     Atomic      Atomic             Coordinates (Angstroms)
 Number     Number       Type             X           Y           Z
 ---------------------------------------------------------------------
      1         11           0        0.684815    2.757857    0.056871
      2         11           0        1.403396   -2.485224   -0.259174
      3         11           0       -3.068709    1.209586   -0.224257
      4         11           0       -0.522146    0.100543   -1.533166
      5         11           0       -2.250174   -1.949409    0.230027
      6         11           0        0.358868    0.088099    2.147174
      7         11           0        3.393950    0.278547   -0.417475
 ---------------------------------------------------------------------

 SCF Done:  E(UB3LYP) =  -1136.13348971     A.U. after   19 cycles

 The electronic state is 2-A.
 Alpha  occ. eigenvalues --  -38.44631 -38.44316 -38.43669 -38.43642 -38.43425
 Alpha  occ. eigenvalues --  -38.43154 -38.43115  -2.20425  -2.20167  -2.19537
 Alpha  occ. eigenvalues --   -2.19514  -2.19417  -2.18994  -2.18959  -1.14096
 Alpha  occ. eigenvalues --   -1.14082  -1.14060  -1.13884  -1.13824  -1.13788
 Alpha  occ. eigenvalues --   -1.13256  -1.13200  -1.13178  -1.13163  -1.13139
 Alpha  occ. eigenvalues --   -1.13131  -1.13093  -1.13055  -1.13039  -1.12679
 Alpha  occ. eigenvalues --   -1.12668  -1.12642  -1.12624  -1.12611  -1.12591
 Alpha  occ. eigenvalues --   -0.18503  -0.13393  -0.12053  -0.10709
 Alpha virt. eigenvalues --   -0.06198  -0.05188  -0.04284  -0.03380  -0.02710
 Alpha virt. eigenvalues --   -0.02545  -0.01942  -0.01092  -0.00435  -0.00271
 Alpha virt. eigenvalues --   -0.00054   0.00300   0.00732   0.00846   0.00870

  Beta  occ. eigenvalues --  -38.44620 -38.44311 -38.43664 -38.43538 -38.43379
  Beta  occ. eigenvalues --  -38.43148 -38.43109  -2.20406  -2.20161  -2.19529
  Beta  occ. eigenvalues --   -2.19334  -2.19322  -2.18987  -2.18951  -1.14076
  Beta  occ. eigenvalues --   -1.14065  -1.14048  -1.13873  -1.13813  -1.13782
  Beta  occ. eigenvalues --   -1.13244  -1.13181  -1.13151  -1.13059  -1.13027
  Beta  occ. eigenvalues --   -1.13007  -1.12996  -1.12993  -1.12982  -1.12676
  Beta  occ. eigenvalues --   -1.12636  -1.12634  -1.12611  -1.12609  -1.12577
  Beta  occ. eigenvalues --   -0.17815  -0.13145  -0.11822
  Beta virt. eigenvalues --   -0.06839  -0.06086  -0.05162  -0.04253  -0.02644
  Beta virt. eigenvalues --   -0.01957  -0.01843  -0.01496  -0.01039  -0.00453
  Beta virt. eigenvalues --   -0.00295   0.00109   0.00355   0.00810   0.00848

 Mulliken charges and spin densities:
               1          2
     1  Na   0.109906  -0.058914
     2  Na   0.061438   0.016292
     3  Na   0.421324  -0.018393
     4  Na  -0.298089   0.303801
     5  Na   0.158070   0.055991
     6  Na  -0.488512   0.686005
     7  Na   0.035864   0.015217
 Sum of Mulliken charges =  -0.00000   1.00000

 Dipole moment (field-independent basis, Debye):
    X=             -0.0524    Y=              0.1654    Z=              0.1461  Tot=              0.2268
 Quadrupole moment (field-independent basis, Debye-Ang):
   XX=            -52.5798   YY=            -66.5311   ZZ=            -74.2483
   XY=              0.1917   XZ=             -1.7908   YZ=             -0.3825

 Normal termination of Gaussian 16 at Thu Dec  7 10:12:48 2023.
