 Gaussian 16, Revision B.01,
 Gaussian 16:  ES64L-G16RevB.01 20-Dec-2017

 -------------------------
 #P B3LYP/6-311+g(d) force
 -------------------------

 -----
 DPGEN
 -----
 Symbolic Z-matrix:
 Charge =  0 Multiplicity = 2

                         Standard orientation:
 ---------------------------------------------------------------------
 Center     Atomic      Atomic             Coordinates (Angstroms)
 Number     Number       Type             X           Y           Z
 ---------------------------------------------------------------------
      1         11           0       -0.092701   -0.165244   -1.726903
      2         11           0       -0.204887   -0.249382    2.039716
      3         11           0        2.400990   -2.602690   -0.660600
      4         11           0       -2.562489    1.474001   -0.603125
      5         11           0        0.771752    2.736061   -0.072370
      6         11           0       -3.285076   -1.820779    0.429460
      7         11           0        2.972411    0.628033    0.593822
 ---------------------------------------------------------------------

 SCF Done:  E(UB3LYP) =  -1136.12868088     A.U. after   21 cycles

 The electronic state is 2-A.
 Alpha  occ. eigenvalues --  -38.44616 -38.44435 -38.44142 -38.44001 -38.43938
 Alpha  occ. eigenvalues --  -38.43458 -38.42772  -2.20440  -2.20205  -2.20007
 Alpha  occ. eigenvalues --   -2.19863  -2.19840  -2.19248  -2.18653  -1.14117
 Alpha  occ. eigenvalues --   -1.14084  -1.14050  -1.13872  -1.13869  -1.13841
 Alpha  occ. eigenvalues --   -1.13695  -1.13677  -1.13632  -1.13622  -1.13531
 Alpha  occ. eigenvalues --   -1.13505  -1.13478  -1.13458  -1.13433  -1.12911
 Alpha  occ. eigenvalues --   -1.12906  -1.12885  -1.12344  -1.12307  -1.12298
 Alpha  occ. eigenvalues --   -0.18175  -0.13430  -0.11734  -0.11082
 Alpha virt. eigenvalues --   -0.06193  -0.05451  -0.04483  -0.03282  -0.02880
 Alpha virt. eigenvalues --   -0.02610  -0.01975  -0.01332  -0.00564  -0.00168
 Alpha virt. eigenvalues --   -0.00130   0.00284   0.00581   0.00638   0.00762

  Beta  occ. eigenvalues --  -38.44538 -38.44428 -38.44131 -38.43984 -38.43870
  Beta  occ. eigenvalues --  -38.43441 -38.42772  -2.20297  -2.20193  -2.19989
  Beta  occ. eigenvalues --   -2.19836  -2.19718  -2.19218  -2.18657  -1.14021
  Beta  occ. eigenvalues --   -1.13989  -1.13939  -1.13866  -1.13850  -1.13834
  Beta  occ. eigenvalues --   -1.13690  -1.13653  -1.13609  -1.13576  -1.13501
  Beta  occ. eigenvalues --   -1.13446  -1.13432  -1.13391  -1.13345  -1.12888
  Beta  occ. eigenvalues --   -1.12879  -1.12868  -1.12351  -1.12311  -1.12271
  Beta  occ. eigenvalues --   -0.17475  -0.13196  -0.11413
  Beta virt. eigenvalues --   -0.07350  -0.05988  -0.05335  -0.04235  -0.02794
  Beta virt. eigenvalues --   -0.02204  -0.01889  -0.01705  -0.01155  -0.00570
  Beta virt. eigenvalues --   -0.00148   0.00010   0.00322   0.00713   0.00763

 Mulliken charges and spin densities:
               1          2
     1  Na  -0.040393   0.319598
     2  Na  -0.256107   0.453638
     3  Na  -0.028329   0.062003
     4  Na   0.280509   0.033713
     5  Na  -0.172622   0.005629
     6  Na  -0.039905   0.051157
     7  Na   0.256847   0.074261
 Sum of Mulliken charges =  -0.00000   1.00000

 Dipole moment (field-independent basis, Debye):
    X=             -0.5786    Y=             -0.1532    Z=              0.2701  Tot=              0.6566
 Quadrupole moment (field-independent basis, Debye-Ang):
   XX=            -56.3031   YY=            -66.4237   ZZ=            -72.5909
   XY=              1.5557   XZ=              1.3392   YZ=              0.0963

 Normal termination of Gaussian 16 at Thu Dec  7 13:27:02 2023.
