 Gaussian 16, Revision B.01,
 Gaussian 16:  ES64L-G16RevB.01 20-Dec-2017

 -------------------------
 #P B3LYP/6-311+g(d) force
 -------------------------

 -----
 DPGEN
 -----
 Symbolic Z-matrix:
 Charge =  0 Multiplicity = 2

                         Standard orientation:
 ---------------------------------------------------------------------
 Center     Atomic      Atomic             Coordinates (Angstroms)
 Number     Number       Type             X           Y           Z
 ---------------------------------------------------------------------
      1         11           0        2.744323    1.669517   -0.023409
      2         11           0       -3.270101   -0.205728   -0.198540
      3         11           0       -1.048175    2.975759   -0.337815
      4         11           0        0.014263   -0.003013    2.142616
      5         11           0       -0.212120    0.036460   -1.013720
      6         11           0        2.548224   -1.684528   -0.489246
      7         11           0       -0.776414   -2.788467   -0.079887
 ---------------------------------------------------------------------

 SCF Done:  E(UB3LYP) =  -1136.13201390     A.U. after   19 cycles

 The electronic state is 2-A.
 Alpha  occ. eigenvalues --  -38.44357 -38.44090 -38.43825 -38.43597 -38.43386
 Alpha  occ. eigenvalues --  -38.43361 -38.42616  -2.20181  -2.19900  -2.19639
 Alpha  occ. eigenvalues --   -2.19454  -2.19272  -2.19255  -2.18750  -1.13877
 Alpha  occ. eigenvalues --   -1.13835  -1.13805  -1.13576  -1.13565  -1.13540
 Alpha  occ. eigenvalues --   -1.13354  -1.13293  -1.13256  -1.13145  -1.13104
 Alpha  occ. eigenvalues --   -1.13091  -1.13018  -1.12959  -1.12920  -1.12883
 Alpha  occ. eigenvalues --   -1.12860  -1.12851  -1.12450  -1.12392  -1.12367
 Alpha  occ. eigenvalues --   -0.18650  -0.13059  -0.12483  -0.10314
 Alpha virt. eigenvalues --   -0.05918  -0.05161  -0.04838  -0.02840  -0.02580
 Alpha virt. eigenvalues --   -0.02197  -0.01760  -0.01278  -0.00665  -0.00468
 Alpha virt. eigenvalues --   -0.00007   0.00313   0.00782   0.00795   0.00866

  Beta  occ. eigenvalues --  -38.44351 -38.44088 -38.43820 -38.43584 -38.43380
  Beta  occ. eigenvalues --  -38.43246 -38.42584  -2.20173  -2.19899  -2.19632
  Beta  occ. eigenvalues --   -2.19432  -2.19264  -2.19043  -2.18697  -1.13868
  Beta  occ. eigenvalues --   -1.13818  -1.13801  -1.13572  -1.13554  -1.13537
  Beta  occ. eigenvalues --   -1.13345  -1.13277  -1.13251  -1.13127  -1.13079
  Beta  occ. eigenvalues --   -1.13076  -1.13010  -1.12893  -1.12879  -1.12815
  Beta  occ. eigenvalues --   -1.12714  -1.12701  -1.12379  -1.12355  -1.12331
  Beta  occ. eigenvalues --   -0.17951  -0.12818  -0.12256
  Beta virt. eigenvalues --   -0.06404  -0.05878  -0.05082  -0.04783  -0.02146
  Beta virt. eigenvalues --   -0.01875  -0.01689  -0.01228  -0.01104  -0.00680
  Beta virt. eigenvalues --   -0.00482   0.00172   0.00382   0.00809   0.00838

 Mulliken charges and spin densities:
               1          2
     1  Na   0.271931   0.063400
     2  Na   0.405553   0.088677
     3  Na   0.251945   0.076140
     4  Na  -0.298683   0.665829
     5  Na  -1.513306  -0.176916
     6  Na   0.322176   0.125643
     7  Na   0.560384   0.157228
 Sum of Mulliken charges =  -0.00000   1.00000

 Dipole moment (field-independent basis, Debye):
    X=             -0.1903    Y=              0.2150    Z=              0.2775  Tot=              0.3993
 Quadrupole moment (field-independent basis, Debye-Ang):
   XX=            -54.0697   YY=            -59.8823   ZZ=            -76.7430
   XY=              0.9071   XZ=             -0.3908   YZ=              0.1544

 Normal termination of Gaussian 16 at Thu Dec  7 18:11:58 2023.
