 Gaussian 16, Revision B.01,
 Gaussian 16:  ES64L-G16RevB.01 20-Dec-2017

 -------------------------
 #P B3LYP/6-311+g(d) force
 -------------------------

 -----
 DPGEN
 -----
 Symbolic Z-matrix:
 Charge =  0 Multiplicity = 2

                         Standard orientation:
 ---------------------------------------------------------------------
 Center     Atomic      Atomic             Coordinates (Angstroms)
 Number     Number       Type             X           Y           Z
 ---------------------------------------------------------------------
      1         11           0        3.347398    0.517242    0.090978
      2         11           0        0.146897    0.090094    1.746632
      3         11           0       -0.137112   -0.383960   -1.448125
      4         11           0        0.351313    2.886138   -0.473967
      5         11           0       -2.650365    1.520145    0.205603
      6         11           0       -2.707403   -2.032117   -0.034780
      7         11           0        1.649271   -2.597542   -0.086341
 ---------------------------------------------------------------------

 SCF Done:  E(UB3LYP) =  -1136.13442389     A.U. after   20 cycles

 The electronic state is 2-A.
 Alpha  occ. eigenvalues --  -38.44650 -38.44154 -38.43934 -38.43896 -38.43116
 Alpha  occ. eigenvalues --  -38.43082 -38.42781  -2.20441  -2.19952  -2.19775
 Alpha  occ. eigenvalues --   -2.19752  -2.19051  -2.18936  -2.18784  -1.14115
 Alpha  occ. eigenvalues --   -1.14090  -1.14086  -1.13632  -1.13606  -1.13599
 Alpha  occ. eigenvalues --   -1.13484  -1.13436  -1.13427  -1.13421  -1.13389
 Alpha  occ. eigenvalues --   -1.13386  -1.12778  -1.12677  -1.12656  -1.12618
 Alpha  occ. eigenvalues --   -1.12588  -1.12573  -1.12481  -1.12417  -1.12388
 Alpha  occ. eigenvalues --   -0.18552  -0.13238  -0.12327  -0.10025
 Alpha virt. eigenvalues --   -0.06120  -0.05502  -0.04636  -0.03027  -0.02574
 Alpha virt. eigenvalues --   -0.01961  -0.01877  -0.01369  -0.00686  -0.00442
 Alpha virt. eigenvalues --    0.00025   0.00315   0.00732   0.00774   0.00860

  Beta  occ. eigenvalues --  -38.44647 -38.44153 -38.43928 -38.43889 -38.43068
  Beta  occ. eigenvalues --  -38.43037 -38.42719  -2.20438  -2.19954  -2.19766
  Beta  occ. eigenvalues --   -2.19743  -2.18914  -2.18907  -2.18673  -1.14098
  Beta  occ. eigenvalues --   -1.14088  -1.14086  -1.13627  -1.13603  -1.13596
  Beta  occ. eigenvalues --   -1.13474  -1.13422  -1.13413  -1.13392  -1.13385
  Beta  occ. eigenvalues --   -1.13380  -1.12680  -1.12606  -1.12574  -1.12563
  Beta  occ. eigenvalues --   -1.12550  -1.12544  -1.12396  -1.12337  -1.12308
  Beta  occ. eigenvalues --   -0.17862  -0.13010  -0.12073
  Beta virt. eigenvalues --   -0.06221  -0.06071  -0.05474  -0.04591  -0.02273
  Beta virt. eigenvalues --   -0.01917  -0.01824  -0.01310  -0.00905  -0.00731
  Beta virt. eigenvalues --   -0.00455   0.00170   0.00355   0.00764   0.00786

 Mulliken charges and spin densities:
               1          2
     1  Na   0.100083  -0.014167
     2  Na  -0.253754   0.682815
     3  Na  -0.208179   0.486564
     4  Na  -0.033027   0.017882
     5  Na   0.223035   0.056027
     6  Na   0.085882  -0.098926
     7  Na   0.085960  -0.130195
 Sum of Mulliken charges =  -0.00000   1.00000

 Dipole moment (field-independent basis, Debye):
    X=              0.2292    Y=             -0.2659    Z=              0.1258  Tot=              0.3729
 Quadrupole moment (field-independent basis, Debye-Ang):
   XX=            -50.8677   YY=            -61.0811   ZZ=            -78.1985
   XY=              0.7884   XZ=             -0.6847   YZ=             -0.9404

 Normal termination of Gaussian 16 at Thu Dec  7 03:33:31 2023.
