 Gaussian 16, Revision B.01,
 Gaussian 16:  ES64L-G16RevB.01 20-Dec-2017

 -------------------------
 #P B3LYP/6-311+g(d) force
 -------------------------

 -----
 DPGEN
 -----
 Symbolic Z-matrix:
 Charge =  0 Multiplicity = 2

                         Standard orientation:
 ---------------------------------------------------------------------
 Center     Atomic      Atomic             Coordinates (Angstroms)
 Number     Number       Type             X           Y           Z
 ---------------------------------------------------------------------
      1         11           0       -3.051853    0.626042   -0.618239
      2         11           0        2.681837    1.395597    0.352636
      3         11           0       -0.482270   -0.405848    2.160635
      4         11           0        2.545796   -1.970166   -0.580756
      5         11           0        0.089045    0.086469   -1.453502
      6         11           0       -0.295738    2.836391    0.020516
      7         11           0       -1.486817   -2.568484    0.118708
 ---------------------------------------------------------------------

 SCF Done:  E(UB3LYP) =  -1136.13565923     A.U. after   19 cycles

 The electronic state is 2-A.
 Alpha  occ. eigenvalues --  -38.43989 -38.43893 -38.43762 -38.43738 -38.43639
 Alpha  occ. eigenvalues --  -38.43126 -38.43053  -2.19831  -2.19772  -2.19611
 Alpha  occ. eigenvalues --   -2.19552  -2.19494  -2.19075  -2.19005  -1.13520
 Alpha  occ. eigenvalues --   -1.13483  -1.13463  -1.13453  -1.13405  -1.13388
 Alpha  occ. eigenvalues --   -1.13295  -1.13275  -1.13265  -1.13237  -1.13195
 Alpha  occ. eigenvalues --   -1.13178  -1.13168  -1.13157  -1.13109  -1.12818
 Alpha  occ. eigenvalues --   -1.12743  -1.12700  -1.12658  -1.12642  -1.12625
 Alpha  occ. eigenvalues --   -0.18578  -0.13077  -0.12410  -0.10885
 Alpha virt. eigenvalues --   -0.05509  -0.05256  -0.04594  -0.03286  -0.02918
 Alpha virt. eigenvalues --   -0.02567  -0.01562  -0.01107  -0.00435  -0.00195
 Alpha virt. eigenvalues --   -0.00025   0.00330   0.00790   0.00860   0.00897

  Beta  occ. eigenvalues --  -38.43970 -38.43795 -38.43757 -38.43725 -38.43633
  Beta  occ. eigenvalues --  -38.43123 -38.43004  -2.19798  -2.19605  -2.19591
  Beta  occ. eigenvalues --   -2.19530  -2.19486  -2.19004  -2.18986  -1.13487
  Beta  occ. eigenvalues --   -1.13457  -1.13434  -1.13350  -1.13293  -1.13277
  Beta  occ. eigenvalues --   -1.13270  -1.13264  -1.13246  -1.13211  -1.13180
  Beta  occ. eigenvalues --   -1.13165  -1.13151  -1.13119  -1.13109  -1.12781
  Beta  occ. eigenvalues --   -1.12687  -1.12646  -1.12633  -1.12625  -1.12595
  Beta  occ. eigenvalues --   -0.17897  -0.12822  -0.12122
  Beta virt. eigenvalues --   -0.07036  -0.05430  -0.05152  -0.04546  -0.02551
  Beta virt. eigenvalues --   -0.02208  -0.01588  -0.01422  -0.01022  -0.00431
  Beta virt. eigenvalues --   -0.00224   0.00123   0.00375   0.00849   0.00879

 Mulliken charges and spin densities:
               1          2
     1  Na   0.262956   0.045099
     2  Na   0.062808   0.091039
     3  Na  -0.470580   0.592543
     4  Na   0.146103   0.028920
     5  Na  -0.343757   0.172101
     6  Na   0.088890   0.050071
     7  Na   0.253580   0.020227
 Sum of Mulliken charges =  -0.00000   1.00000

 Dipole moment (field-independent basis, Debye):
    X=             -0.1249    Y=             -0.1436    Z=              0.2289  Tot=              0.2977
 Quadrupole moment (field-independent basis, Debye-Ang):
   XX=            -57.0424   YY=            -63.2054   ZZ=            -73.4460
   XY=             -0.1579   XZ=              1.6968   YZ=              1.6336

 Normal termination of Gaussian 16 at Thu Dec  7 04:52:07 2023.
