 Gaussian 16, Revision B.01,
 Gaussian 16:  ES64L-G16RevB.01 20-Dec-2017

 -------------------------
 #P B3LYP/6-311+g(d) force
 -------------------------

 -----
 DPGEN
 -----
 Symbolic Z-matrix:
 Charge =  0 Multiplicity = 2

                         Standard orientation:
 ---------------------------------------------------------------------
 Center     Atomic      Atomic             Coordinates (Angstroms)
 Number     Number       Type             X           Y           Z
 ---------------------------------------------------------------------
      1         11           0        0.267249   -1.378250   -0.955527
      2         11           0        1.822076    1.691222   -0.580523
      3         11           0        1.468234   -0.608300    1.559184
      4         11           0       -0.858063    1.885102    0.954159
      5         11           0        3.666989   -0.624066   -0.695106
      6         11           0       -3.831546    0.279269   -1.292773
      7         11           0       -2.534938   -1.244977    1.010586
 ---------------------------------------------------------------------

 SCF Done:  E(UB3LYP) =  -1136.11196375     A.U. after   24 cycles

 The electronic state is 2-A.
 Alpha  occ. eigenvalues --  -38.44628 -38.44593 -38.44376 -38.44220 -38.44110
 Alpha  occ. eigenvalues --  -38.43282 -38.41955  -2.20515  -2.20460  -2.20405
 Alpha  occ. eigenvalues --   -2.20100  -2.20043  -2.19294  -2.17860  -1.14398
 Alpha  occ. eigenvalues --   -1.14191  -1.14160  -1.14115  -1.14090  -1.14081
 Alpha  occ. eigenvalues --   -1.14060  -1.14030  -1.13971  -1.13762  -1.13760
 Alpha  occ. eigenvalues --   -1.13751  -1.13742  -1.13692  -1.13635  -1.12973
 Alpha  occ. eigenvalues --   -1.12949  -1.12907  -1.11556  -1.11528  -1.11482
 Alpha  occ. eigenvalues --   -0.19106  -0.14817  -0.11178  -0.10929
 Alpha virt. eigenvalues --   -0.06874  -0.05434  -0.04500  -0.03045  -0.02781
 Alpha virt. eigenvalues --   -0.02374  -0.01985  -0.01042  -0.00735  -0.00228
 Alpha virt. eigenvalues --    0.00055   0.00260   0.00332   0.00638   0.00767

  Beta  occ. eigenvalues --  -38.44579 -38.44563 -38.44322 -38.44211 -38.44082
  Beta  occ. eigenvalues --  -38.43251 -38.41950  -2.20495  -2.20339  -2.20313
  Beta  occ. eigenvalues --   -2.20089  -2.19993  -2.19239  -2.17853  -1.14353
  Beta  occ. eigenvalues --   -1.14158  -1.14098  -1.14085  -1.14009  -1.13999
  Beta  occ. eigenvalues --   -1.13997  -1.13960  -1.13912  -1.13758  -1.13746
  Beta  occ. eigenvalues --   -1.13715  -1.13683  -1.13654  -1.13601  -1.12934
  Beta  occ. eigenvalues --   -1.12917  -1.12855  -1.11553  -1.11502  -1.11480
  Beta  occ. eigenvalues --   -0.18469  -0.14289  -0.10788
  Beta virt. eigenvalues --   -0.07439  -0.06687  -0.04693  -0.04386  -0.02928
  Beta virt. eigenvalues --   -0.02595  -0.01612  -0.01592  -0.00667  -0.00550
  Beta virt. eigenvalues --   -0.00016   0.00132   0.00379   0.00400   0.00745

 Mulliken charges and spin densities:
               1          2
     1  Na  -0.600684  -0.066784
     2  Na  -0.533470   0.172685
     3  Na  -0.054835   0.285045
     4  Na  -0.374704   0.076880
     5  Na   1.142656   0.085608
     6  Na  -0.141501   0.256427
     7  Na   0.562538   0.190139
 Sum of Mulliken charges =  -0.00000   1.00000

 Dipole moment (field-independent basis, Debye):
    X=              0.1341    Y=             -0.2512    Z=              0.1021  Tot=              0.3026
 Quadrupole moment (field-independent basis, Debye-Ang):
   XX=            -56.1904   YY=            -78.6953   ZZ=            -63.8591
   XY=             -1.4907   XZ=              0.6953   YZ=             -4.9336

 Normal termination of Gaussian 16 at Thu Dec  7 19:50:37 2023.
