 Gaussian 16, Revision B.01,
 Gaussian 16:  ES64L-G16RevB.01 20-Dec-2017

 -------------------------
 #P B3LYP/6-311+g(d) force
 -------------------------

 -----
 DPGEN
 -----
 Symbolic Z-matrix:
 Charge =  0 Multiplicity = 2

                         Standard orientation:
 ---------------------------------------------------------------------
 Center     Atomic      Atomic             Coordinates (Angstroms)
 Number     Number       Type             X           Y           Z
 ---------------------------------------------------------------------
      1         11           0        0.439106    0.243413   -1.485832
      2         11           0        1.805979    2.672880    0.008588
      3         11           0        3.166785   -0.981140   -0.241343
      4         11           0       -2.493498    2.132612   -0.023630
      5         11           0       -0.088400   -2.759930   -0.011764
      6         11           0        0.036459   -0.172973    2.193989
      7         11           0       -2.866431   -1.134862   -0.440009
 ---------------------------------------------------------------------

 SCF Done:  E(UB3LYP) =  -1136.13289785     A.U. after   20 cycles

 The electronic state is 2-A.
 Alpha  occ. eigenvalues --  -38.44551 -38.44064 -38.44056 -38.43736 -38.43673
 Alpha  occ. eigenvalues --  -38.43231 -38.43045  -2.20361  -2.19865  -2.19844
 Alpha  occ. eigenvalues --   -2.19590  -2.19533  -2.19201  -2.18931  -1.14053
 Alpha  occ. eigenvalues --   -1.14013  -1.13987  -1.13574  -1.13524  -1.13523
 Alpha  occ. eigenvalues --   -1.13515  -1.13489  -1.13483  -1.13263  -1.13246
 Alpha  occ. eigenvalues --   -1.13234  -1.13194  -1.13155  -1.13150  -1.12891
 Alpha  occ. eigenvalues --   -1.12854  -1.12825  -1.12611  -1.12593  -1.12560
 Alpha  occ. eigenvalues --   -0.18332  -0.13123  -0.12208  -0.10624
 Alpha virt. eigenvalues --   -0.06081  -0.05374  -0.04512  -0.03143  -0.02765
 Alpha virt. eigenvalues --   -0.02580  -0.01785  -0.01257  -0.00670  -0.00344
 Alpha virt. eigenvalues --   -0.00031   0.00314   0.00755   0.00774   0.00896

  Beta  occ. eigenvalues --  -38.44544 -38.44063 -38.44057 -38.43727 -38.43563
  Beta  occ. eigenvalues --  -38.43186 -38.43037  -2.20351  -2.19865  -2.19847
  Beta  occ. eigenvalues --   -2.19575  -2.19329  -2.19121  -2.18921  -1.14037
  Beta  occ. eigenvalues --   -1.13998  -1.13983  -1.13570  -1.13526  -1.13512
  Beta  occ. eigenvalues --   -1.13505  -1.13490  -1.13484  -1.13253  -1.13227
  Beta  occ. eigenvalues --   -1.13219  -1.13059  -1.13010  -1.13007  -1.12833
  Beta  occ. eigenvalues --   -1.12795  -1.12764  -1.12608  -1.12559  -1.12550
  Beta  occ. eigenvalues --   -0.17629  -0.12897  -0.12011
  Beta virt. eigenvalues --   -0.06684  -0.06065  -0.05299  -0.04477  -0.02425
  Beta virt. eigenvalues --   -0.02025  -0.01704  -0.01495  -0.01175  -0.00704
  Beta virt. eigenvalues --   -0.00373   0.00133   0.00364   0.00772   0.00845

 Mulliken charges and spin densities:
               1          2
     1  Na  -0.206156   0.240868
     2  Na   0.018374  -0.068561
     3  Na   0.269698  -0.025406
     4  Na   0.050352  -0.022467
     5  Na   0.387281   0.089298
     6  Na  -0.553458   0.761943
     7  Na   0.033909   0.024324
 Sum of Mulliken charges =  -0.00000   1.00000

 Dipole moment (field-independent basis, Debye):
    X=              0.4887    Y=              0.2678    Z=              0.1409  Tot=              0.5748
 Quadrupole moment (field-independent basis, Debye-Ang):
   XX=            -55.1049   YY=            -62.7489   ZZ=            -75.3800
   XY=             -0.6804   XZ=              0.8006   YZ=              1.2415

 Normal termination of Gaussian 16 at Thu Dec  7 13:23:11 2023.
