 Gaussian 16, Revision B.01,
 Gaussian 16:  ES64L-G16RevB.01 20-Dec-2017

 -------------------------
 #P B3LYP/6-311+g(d) force
 -------------------------

 -----
 DPGEN
 -----
 Symbolic Z-matrix:
 Charge =  0 Multiplicity = 2

                         Standard orientation:
 ---------------------------------------------------------------------
 Center     Atomic      Atomic             Coordinates (Angstroms)
 Number     Number       Type             X           Y           Z
 ---------------------------------------------------------------------
      1         11           0        4.506557   -0.161056   -1.183115
      2         11           0       -3.947465    3.006544   -0.949491
      3         11           0        1.575337   -2.447598   -0.911005
      4         11           0        4.872412    2.507149    0.895710
      5         11           0       -2.923095    0.967334    0.978506
      6         11           0       -3.869747   -1.704955   -0.482823
      7         11           0       -0.213999   -2.167418    1.652218
 ---------------------------------------------------------------------

 SCF Done:  E(UB3LYP) =  -1136.10223462     A.U. after   19 cycles

 The electronic state is 2-A.
 Alpha  occ. eigenvalues --  -38.45475 -38.44491 -38.44255 -38.44125 -38.44120
 Alpha  occ. eigenvalues --  -38.43917 -38.43849  -2.21275  -2.20264  -2.20130
 Alpha  occ. eigenvalues --   -2.19958  -2.19898  -2.19734  -2.19603  -1.14936
 Alpha  occ. eigenvalues --   -1.14920  -1.14879  -1.13968  -1.13947  -1.13903
 Alpha  occ. eigenvalues --   -1.13881  -1.13802  -1.13782  -1.13584  -1.13582
 Alpha  occ. eigenvalues --   -1.13551  -1.13550  -1.13547  -1.13523  -1.13389
 Alpha  occ. eigenvalues --   -1.13384  -1.13357  -1.13290  -1.13275  -1.13246
 Alpha  occ. eigenvalues --   -0.15929  -0.13919  -0.12212  -0.10674
 Alpha virt. eigenvalues --   -0.07115  -0.05613  -0.04167  -0.03580  -0.03012
 Alpha virt. eigenvalues --   -0.02448  -0.02022  -0.01689  -0.01539  -0.00989
 Alpha virt. eigenvalues --   -0.00589  -0.00193  -0.00149   0.00274   0.00531

  Beta  occ. eigenvalues --  -38.45396 -38.44519 -38.44252 -38.44070 -38.44045
  Beta  occ. eigenvalues --  -38.43872 -38.43868  -2.21128  -2.20319  -2.20130
  Beta  occ. eigenvalues --   -2.19820  -2.19794  -2.19651  -2.19642  -1.14836
  Beta  occ. eigenvalues --   -1.14820  -1.14780  -1.13999  -1.13988  -1.13926
  Beta  occ. eigenvalues --   -1.13854  -1.13793  -1.13767  -1.13491  -1.13485
  Beta  occ. eigenvalues --   -1.13479  -1.13478  -1.13470  -1.13459  -1.13335
  Beta  occ. eigenvalues --   -1.13328  -1.13321  -1.13317  -1.13298  -1.13245
  Beta  occ. eigenvalues --   -0.15442  -0.13446  -0.11654
  Beta virt. eigenvalues --   -0.07512  -0.06640  -0.05314  -0.03987  -0.03303
  Beta virt. eigenvalues --   -0.02809  -0.02160  -0.01677  -0.01486  -0.01264
  Beta virt. eigenvalues --   -0.00724  -0.00412  -0.00020   0.00125   0.00357

 Mulliken charges and spin densities:
               1          2
     1  Na  -0.144437  -0.128934
     2  Na   0.574679   0.289418
     3  Na  -0.042491   0.246890
     4  Na   0.125371   0.289444
     5  Na  -0.617736   0.068321
     6  Na   0.196679   0.372327
     7  Na  -0.092064  -0.137466
 Sum of Mulliken charges =  -0.00000   1.00000

 Dipole moment (field-independent basis, Debye):
    X=             -1.7389    Y=             -0.4776    Z=             -0.0773  Tot=              1.8049
 Quadrupole moment (field-independent basis, Debye-Ang):
   XX=            -74.6444   YY=            -69.2114   ZZ=            -61.1113
   XY=              2.6637   XZ=              4.7704   YZ=              4.5128

 Normal termination of Gaussian 16 at Sun Dec  3 23:05:43 2023.
