 Gaussian 16, Revision B.01,
 Gaussian 16:  ES64L-G16RevB.01 20-Dec-2017

 -------------------------
 #P B3LYP/6-311+g(d) force
 -------------------------

 -----
 DPGEN
 -----
 Symbolic Z-matrix:
 Charge =  0 Multiplicity = 2

                         Standard orientation:
 ---------------------------------------------------------------------
 Center     Atomic      Atomic             Coordinates (Angstroms)
 Number     Number       Type             X           Y           Z
 ---------------------------------------------------------------------
      1         11           0       -2.603181   -0.246545    0.133404
      2         11           0        3.242613   -1.071089    0.258955
      3         11           0        0.155607   -2.469688   -0.510163
      4         11           0        0.722164    0.473791   -2.095013
      5         11           0       -5.048792    0.825502    0.088722
      6         11           0        2.810401    2.511437    0.007650
      7         11           0        0.721188   -0.023409    2.116445
 ---------------------------------------------------------------------

 SCF Done:  E(UB3LYP) =  -1136.11095805     A.U. after   30 cycles

 The electronic state is 2-A.
 Alpha  occ. eigenvalues --  -38.45750 -38.45322 -38.44630 -38.44502 -38.43450
 Alpha  occ. eigenvalues --  -38.43065 -38.42741  -2.21592  -2.21163  -2.20486
 Alpha  occ. eigenvalues --   -2.20344  -2.19360  -2.18869  -2.18619  -1.15292
 Alpha  occ. eigenvalues --   -1.15255  -1.15198  -1.14834  -1.14806  -1.14759
 Alpha  occ. eigenvalues --   -1.14219  -1.14153  -1.14128  -1.14083  -1.13958
 Alpha  occ. eigenvalues --   -1.13958  -1.13012  -1.12994  -1.12974  -1.12545
 Alpha  occ. eigenvalues --   -1.12530  -1.12509  -1.12294  -1.12282  -1.12264
 Alpha  occ. eigenvalues --   -0.18181  -0.13611  -0.11577  -0.11387
 Alpha virt. eigenvalues --   -0.07643  -0.04757  -0.03690  -0.03574  -0.03237
 Alpha virt. eigenvalues --   -0.02783  -0.02638  -0.01210  -0.00797  -0.00581
 Alpha virt. eigenvalues --   -0.00459   0.00011   0.00205   0.00648   0.00727

  Beta  occ. eigenvalues --  -38.45731 -38.45246 -38.44530 -38.44523 -38.43448
  Beta  occ. eigenvalues --  -38.43058 -38.42732  -2.21562  -2.21023  -2.20383
  Beta  occ. eigenvalues --   -2.20303  -2.19355  -2.18859  -2.18606  -1.15253
  Beta  occ. eigenvalues --   -1.15222  -1.15181  -1.14725  -1.14715  -1.14663
  Beta  occ. eigenvalues --   -1.14245  -1.14027  -1.14008  -1.13984  -1.13984
  Beta  occ. eigenvalues --   -1.13944  -1.13019  -1.12988  -1.12969  -1.12539
  Beta  occ. eigenvalues --   -1.12514  -1.12497  -1.12283  -1.12276  -1.12230
  Beta  occ. eigenvalues --   -0.17354  -0.13660  -0.11177
  Beta virt. eigenvalues --   -0.07534  -0.07364  -0.04584  -0.03586  -0.03033
  Beta virt. eigenvalues --   -0.02720  -0.02246  -0.01927  -0.01177  -0.00565
  Beta virt. eigenvalues --   -0.00530  -0.00380   0.00194   0.00276   0.00701

 Mulliken charges and spin densities:
               1          2
     1  Na   0.099164  -0.184278
     2  Na   0.014188   0.089342
     3  Na   1.354938   0.274035
     4  Na   0.129460   0.530554
     5  Na  -1.932522  -0.120756
     6  Na  -0.181962  -0.072619
     7  Na   0.516733   0.483722
 Sum of Mulliken charges =  -0.00000   1.00000

 Dipole moment (field-independent basis, Debye):
    X=              0.9038    Y=             -0.4556    Z=              0.1286  Tot=              1.0203
 Quadrupole moment (field-independent basis, Debye-Ang):
   XX=            -58.3666   YY=            -70.0741   ZZ=            -70.3300
   XY=             -6.8543   XZ=              0.1190   YZ=              0.6930

 Normal termination of Gaussian 16 at Fri Dec  8 00:42:19 2023.
