 Gaussian 16, Revision B.01,
 Gaussian 16:  ES64L-G16RevB.01 20-Dec-2017

 -------------------------
 #P B3LYP/6-311+g(d) force
 -------------------------

 -----
 DPGEN
 -----
 Symbolic Z-matrix:
 Charge =  0 Multiplicity = 2

                         Standard orientation:
 ---------------------------------------------------------------------
 Center     Atomic      Atomic             Coordinates (Angstroms)
 Number     Number       Type             X           Y           Z
 ---------------------------------------------------------------------
      1         11           0        3.334138    2.110997    0.228135
      2         11           0       -0.284583   -1.713453   -1.502315
      3         11           0       -3.801847    1.534659   -0.737480
      4         11           0       -0.088898    1.913287   -0.204429
      5         11           0        3.247897   -1.728817   -0.653740
      6         11           0       -3.002550   -1.488129    0.999560
      7         11           0        0.595842   -0.628545    1.870270
 ---------------------------------------------------------------------

 SCF Done:  E(UB3LYP) =  -1136.11673306     A.U. after   24 cycles

 The electronic state is 2-A.
 Alpha  occ. eigenvalues --  -38.45008 -38.44393 -38.44337 -38.44324 -38.44176
 Alpha  occ. eigenvalues --  -38.44166 -38.43907  -2.20791  -2.20157  -2.20131
 Alpha  occ. eigenvalues --   -2.20106  -2.20019  -2.19959  -2.19724  -1.14469
 Alpha  occ. eigenvalues --   -1.14438  -1.14432  -1.13838  -1.13835  -1.13818
 Alpha  occ. eigenvalues --   -1.13798  -1.13792  -1.13781  -1.13759  -1.13745
 Alpha  occ. eigenvalues --   -1.13731  -1.13720  -1.13646  -1.13621  -1.13617
 Alpha  occ. eigenvalues --   -1.13610  -1.13586  -1.13427  -1.13422  -1.13310
 Alpha  occ. eigenvalues --   -0.17497  -0.13604  -0.11533  -0.10519
 Alpha virt. eigenvalues --   -0.07157  -0.06322  -0.04091  -0.03321  -0.02860
 Alpha virt. eigenvalues --   -0.02472  -0.02255  -0.01955  -0.00827  -0.00665
 Alpha virt. eigenvalues --   -0.00042   0.00080   0.00211   0.00404   0.00510

  Beta  occ. eigenvalues --  -38.44988 -38.44400 -38.44323 -38.44288 -38.44134
  Beta  occ. eigenvalues --  -38.44093 -38.43899  -2.20758  -2.20171  -2.20107
  Beta  occ. eigenvalues --   -2.20040  -2.19887  -2.19880  -2.19713  -1.14447
  Beta  occ. eigenvalues --   -1.14417  -1.14389  -1.13846  -1.13824  -1.13823
  Beta  occ. eigenvalues --   -1.13805  -1.13765  -1.13733  -1.13727  -1.13700
  Beta  occ. eigenvalues --   -1.13685  -1.13644  -1.13565  -1.13555  -1.13555
  Beta  occ. eigenvalues --   -1.13536  -1.13514  -1.13420  -1.13399  -1.13298
  Beta  occ. eigenvalues --   -0.16939  -0.13300  -0.11195
  Beta virt. eigenvalues --   -0.07060  -0.06968  -0.06061  -0.03575  -0.03141
  Beta virt. eigenvalues --   -0.02643  -0.02003  -0.01991  -0.01424  -0.00649
  Beta virt. eigenvalues --   -0.00400   0.00003   0.00136   0.00356   0.00440

 Mulliken charges and spin densities:
               1          2
     1  Na   0.527270  -0.023049
     2  Na   0.005687   0.165620
     3  Na   0.352986   0.173396
     4  Na  -1.142514   0.017623
     5  Na  -0.054027   0.182957
     6  Na   0.188635   0.132331
     7  Na   0.121963   0.351122
 Sum of Mulliken charges =  -0.00000   1.00000

 Dipole moment (field-independent basis, Debye):
    X=              0.1003    Y=             -0.5476    Z=              0.4302  Tot=              0.7035
 Quadrupole moment (field-independent basis, Debye-Ang):
   XX=            -49.6229   YY=            -75.2578   ZZ=            -71.4755
   XY=              4.1504   XZ=              0.1828   YZ=             -2.2373

 Normal termination of Gaussian 16 at Mon Dec  4 00:17:16 2023.
