 Gaussian 16, Revision B.01,
 Gaussian 16:  ES64L-G16RevB.01 20-Dec-2017

 -------------------------
 #P B3LYP/6-311+g(d) force
 -------------------------

 -----
 DPGEN
 -----
 Symbolic Z-matrix:
 Charge =  0 Multiplicity = 2

                         Standard orientation:
 ---------------------------------------------------------------------
 Center     Atomic      Atomic             Coordinates (Angstroms)
 Number     Number       Type             X           Y           Z
 ---------------------------------------------------------------------
      1         11           0       -3.230290    0.151610   -0.352912
      2         11           0       -2.631529    3.382456   -0.093945
      3         11           0        4.220067    1.160473   -0.083093
      4         11           0       -3.690450   -3.380118    0.287709
      5         11           0        5.865406   -1.599588   -0.032986
      6         11           0        0.133461    1.989293    0.502636
      7         11           0       -0.666666   -1.704126   -0.227409
 ---------------------------------------------------------------------

 SCF Done:  E(UB3LYP) =  -1136.11656738     A.U. after   20 cycles

 The electronic state is 2-A.
 Alpha  occ. eigenvalues --  -38.44912 -38.44864 -38.44409 -38.43850 -38.43831
 Alpha  occ. eigenvalues --  -38.43789 -38.43632  -2.20746  -2.20645  -2.20289
 Alpha  occ. eigenvalues --   -2.19687  -2.19624  -2.19553  -2.19492  -1.14467
 Alpha  occ. eigenvalues --   -1.14418  -1.14337  -1.14314  -1.14311  -1.14250
 Alpha  occ. eigenvalues --   -1.13998  -1.13976  -1.13870  -1.13371  -1.13354
 Alpha  occ. eigenvalues --   -1.13338  -1.13311  -1.13272  -1.13271  -1.13231
 Alpha  occ. eigenvalues --   -1.13212  -1.13164  -1.13144  -1.13134  -1.13108
 Alpha  occ. eigenvalues --   -0.16882  -0.13376  -0.12850  -0.10513
 Alpha virt. eigenvalues --   -0.06730  -0.05514  -0.04466  -0.03775  -0.02960
 Alpha virt. eigenvalues --   -0.02441  -0.02022  -0.01685  -0.01219  -0.00932
 Alpha virt. eigenvalues --   -0.00239  -0.00069   0.00317   0.00394   0.00511

  Beta  occ. eigenvalues --  -38.44872 -38.44857 -38.44378 -38.43812 -38.43803
  Beta  occ. eigenvalues --  -38.43779 -38.43598  -2.20671  -2.20632  -2.20234
  Beta  occ. eigenvalues --   -2.19618  -2.19583  -2.19528  -2.19430  -1.14420
  Beta  occ. eigenvalues --   -1.14369  -1.14306  -1.14305  -1.14280  -1.14224
  Beta  occ. eigenvalues --   -1.13951  -1.13933  -1.13826  -1.13323  -1.13298
  Beta  occ. eigenvalues --   -1.13294  -1.13284  -1.13258  -1.13225  -1.13203
  Beta  occ. eigenvalues --   -1.13201  -1.13134  -1.13093  -1.13088  -1.13069
  Beta  occ. eigenvalues --   -0.16278  -0.13135  -0.12422
  Beta virt. eigenvalues --   -0.07127  -0.06382  -0.05190  -0.04134  -0.03389
  Beta virt. eigenvalues --   -0.02562  -0.02292  -0.01888  -0.01606  -0.00950
  Beta virt. eigenvalues --   -0.00560   0.00035   0.00210   0.00401   0.00503

 Mulliken charges and spin densities:
               1          2
     1  Na  -0.568752   0.396334
     2  Na   1.236457   0.208751
     3  Na  -0.334008  -0.071975
     4  Na   0.989761   0.072055
     5  Na   0.142430   0.247293
     6  Na  -0.816954   0.071990
     7  Na  -0.648934   0.075552
 Sum of Mulliken charges =  -0.00000   1.00000

 Dipole moment (field-independent basis, Debye):
    X=             -1.8465    Y=             -1.3641    Z=              0.1499  Tot=              2.3006
 Quadrupole moment (field-independent basis, Debye-Ang):
   XX=            -71.0499   YY=            -53.4019   ZZ=            -73.6084
   XY=              3.6060   XZ=             -0.8595   YZ=             -0.8376

 Normal termination of Gaussian 16 at Tue Nov 28 19:13:00 2023.
