 Gaussian 16, Revision B.01,
 Gaussian 16:  ES64L-G16RevB.01 20-Dec-2017

 -------------------------
 #P B3LYP/6-311+g(d) force
 -------------------------

 -----
 DPGEN
 -----
 Symbolic Z-matrix:
 Charge =  0 Multiplicity = 2

                         Standard orientation:
 ---------------------------------------------------------------------
 Center     Atomic      Atomic             Coordinates (Angstroms)
 Number     Number       Type             X           Y           Z
 ---------------------------------------------------------------------
      1         11           0       -2.350589    1.389217    0.723712
      2         11           0        0.201645    4.281409   -0.300600
      3         11           0       -4.219033   -1.431071   -0.381723
      4         11           0       -0.916561   -2.345367    0.077447
      5         11           0        2.235192   -2.636881   -0.051866
      6         11           0        1.008675    0.953923   -0.200784
      7         11           0        4.040672   -0.211231    0.133815
 ---------------------------------------------------------------------

 SCF Done:  E(UB3LYP) =  -1136.12453762     A.U. after   23 cycles

 The electronic state is 2-A.
 Alpha  occ. eigenvalues --  -38.44935 -38.44438 -38.43993 -38.43875 -38.43716
 Alpha  occ. eigenvalues --  -38.43427 -38.43358  -2.20722  -2.20207  -2.19864
 Alpha  occ. eigenvalues --   -2.19778  -2.19530  -2.19323  -2.19236  -1.14437
 Alpha  occ. eigenvalues --   -1.14420  -1.14296  -1.13881  -1.13876  -1.13828
 Alpha  occ. eigenvalues --   -1.13584  -1.13575  -1.13502  -1.13457  -1.13434
 Alpha  occ. eigenvalues --   -1.13420  -1.13190  -1.13185  -1.13151  -1.12966
 Alpha  occ. eigenvalues --   -1.12942  -1.12940  -1.12910  -1.12907  -1.12844
 Alpha  occ. eigenvalues --   -0.17153  -0.13996  -0.13028  -0.10180
 Alpha virt. eigenvalues --   -0.06381  -0.05859  -0.04299  -0.03324  -0.02501
 Alpha virt. eigenvalues --   -0.02422  -0.01980  -0.01828  -0.01315  -0.00419
 Alpha virt. eigenvalues --   -0.00030   0.00182   0.00470   0.00540   0.00669

  Beta  occ. eigenvalues --  -38.44926 -38.44436 -38.43990 -38.43846 -38.43672
  Beta  occ. eigenvalues --  -38.43352 -38.43304  -2.20708  -2.20204  -2.19859
  Beta  occ. eigenvalues --   -2.19735  -2.19447  -2.19181  -2.19142  -1.14426
  Beta  occ. eigenvalues --   -1.14413  -1.14273  -1.13879  -1.13874  -1.13825
  Beta  occ. eigenvalues --   -1.13575  -1.13557  -1.13456  -1.13416  -1.13406
  Beta  occ. eigenvalues --   -1.13394  -1.13131  -1.13128  -1.13098  -1.12868
  Beta  occ. eigenvalues --   -1.12854  -1.12850  -1.12847  -1.12844  -1.12748
  Beta  occ. eigenvalues --   -0.16687  -0.13409  -0.12592
  Beta virt. eigenvalues --   -0.06613  -0.06222  -0.05730  -0.04102  -0.02723
  Beta virt. eigenvalues --   -0.02316  -0.02164  -0.01887  -0.01280  -0.01177
  Beta virt. eigenvalues --   -0.00213   0.00238   0.00439   0.00549   0.00689

 Mulliken charges and spin densities:
               1          2
     1  Na   0.064991   0.161351
     2  Na   0.813065  -0.011170
     3  Na   1.054460   0.415538
     4  Na  -0.533533   0.196032
     5  Na   0.622712  -0.083348
     6  Na  -2.622163  -0.059892
     7  Na   0.600468   0.381489
 Sum of Mulliken charges =  -0.00000   1.00000

 Dipole moment (field-independent basis, Debye):
    X=             -0.3167    Y=              0.9441    Z=             -0.0304  Tot=              0.9962
 Quadrupole moment (field-independent basis, Debye-Ang):
   XX=            -67.5153   YY=            -57.0740   ZZ=            -71.3472
   XY=             -1.0270   XZ=              0.1776   YZ=              0.5466

 Normal termination of Gaussian 16 at Wed Nov 29 16:19:08 2023.
