 Gaussian 16, Revision B.01,
 Gaussian 16:  ES64L-G16RevB.01 20-Dec-2017

 -------------------------
 #P B3LYP/6-311+g(d) force
 -------------------------

 -----
 DPGEN
 -----
 Symbolic Z-matrix:
 Charge =  0 Multiplicity = 2

                         Standard orientation:
 ---------------------------------------------------------------------
 Center     Atomic      Atomic             Coordinates (Angstroms)
 Number     Number       Type             X           Y           Z
 ---------------------------------------------------------------------
      1         11           0       -1.072895   -1.114511    2.162297
      2         11           0       -0.974027   -2.380662   -0.806717
      3         11           0        4.901862    0.033335    0.190961
      4         11           0        2.182504   -0.089302   -0.323567
      5         11           0       -0.915820    0.940386   -2.172556
      6         11           0       -0.879940    2.473332    1.013169
      7         11           0       -3.241684    0.137422   -0.063587
 ---------------------------------------------------------------------

 SCF Done:  E(UB3LYP) =  -1136.11376197     A.U. after   24 cycles

 The electronic state is 2-A.
 Alpha  occ. eigenvalues --  -38.45420 -38.44988 -38.43927 -38.43913 -38.43575
 Alpha  occ. eigenvalues --  -38.43559 -38.43082  -2.21304  -2.20810  -2.19814
 Alpha  occ. eigenvalues --   -2.19789  -2.19446  -2.19389  -2.18960  -1.15013
 Alpha  occ. eigenvalues --   -1.14978  -1.14904  -1.14589  -1.14434  -1.14431
 Alpha  occ. eigenvalues --   -1.13485  -1.13474  -1.13450  -1.13444  -1.13410
 Alpha  occ. eigenvalues --   -1.13408  -1.13135  -1.13094  -1.13063  -1.13059
 Alpha  occ. eigenvalues --   -1.13041  -1.13011  -1.12631  -1.12614  -1.12595
 Alpha  occ. eigenvalues --   -0.18412  -0.13342  -0.11936  -0.11327
 Alpha virt. eigenvalues --   -0.07514  -0.04127  -0.03743  -0.03434  -0.03177
 Alpha virt. eigenvalues --   -0.02992  -0.02749  -0.00833  -0.00641  -0.00405
 Alpha virt. eigenvalues --   -0.00319  -0.00199   0.00273   0.00719   0.01036

  Beta  occ. eigenvalues --  -38.45410 -38.44993 -38.43860 -38.43854 -38.43569
  Beta  occ. eigenvalues --  -38.43524 -38.43058  -2.21291  -2.20820  -2.19691
  Beta  occ. eigenvalues --   -2.19681  -2.19437  -2.19326  -2.18918  -1.14981
  Beta  occ. eigenvalues --   -1.14949  -1.14903  -1.14596  -1.14440  -1.14438
  Beta  occ. eigenvalues --   -1.13400  -1.13393  -1.13382  -1.13368  -1.13320
  Beta  occ. eigenvalues --   -1.13313  -1.13128  -1.13078  -1.13058  -1.13017
  Beta  occ. eigenvalues --   -1.12992  -1.12963  -1.12606  -1.12584  -1.12544
  Beta  occ. eigenvalues --   -0.17525  -0.13277  -0.11224
  Beta virt. eigenvalues --   -0.07817  -0.07267  -0.03691  -0.03288  -0.03122
  Beta virt. eigenvalues --   -0.03071  -0.02653  -0.01934  -0.00656  -0.00522
  Beta virt. eigenvalues --   -0.00292  -0.00220   0.00014   0.00280   0.00777

 Mulliken charges and spin densities:
               1          2
     1  Na   0.321779   0.319220
     2  Na   0.435183   0.022661
     3  Na  -1.362941   0.312597
     4  Na  -0.488182  -0.194396
     5  Na   0.985523   0.246426
     6  Na   0.119285   0.122810
     7  Na  -0.010647   0.170682
 Sum of Mulliken charges =  -0.00000   1.00000

 Dipole moment (field-independent basis, Debye):
    X=             -0.1257    Y=              0.1642    Z=              0.2385  Tot=              0.3156
 Quadrupole moment (field-independent basis, Debye-Ang):
   XX=            -50.7259   YY=            -76.8220   ZZ=            -66.7072
   XY=              0.6053   XZ=              2.3740   YZ=              3.3538

 Normal termination of Gaussian 16 at Thu Dec  7 13:26:16 2023.
