 Gaussian 16, Revision B.01,
 Gaussian 16:  ES64L-G16RevB.01 20-Dec-2017

 -------------------------
 #P B3LYP/6-311+g(d) force
 -------------------------

 -----
 DPGEN
 -----
 Symbolic Z-matrix:
 Charge =  0 Multiplicity = 2

                         Standard orientation:
 ---------------------------------------------------------------------
 Center     Atomic      Atomic             Coordinates (Angstroms)
 Number     Number       Type             X           Y           Z
 ---------------------------------------------------------------------
      1         11           0        1.893728   -0.380481    1.608736
      2         11           0       -0.186198   -2.831971    0.611579
      3         11           0       -0.186759   -0.085126   -1.000687
      4         11           0       -2.392241    2.177653    0.160745
      5         11           0        3.238442   -0.238632   -1.362732
      6         11           0        0.824929    2.612998    0.403760
      7         11           0       -3.191901   -1.254441   -0.421402
 ---------------------------------------------------------------------

 SCF Done:  E(UB3LYP) =  -1136.12988607     A.U. after   19 cycles

 The electronic state is 2-A.
 Alpha  occ. eigenvalues --  -38.44088 -38.44034 -38.43799 -38.43565 -38.43535
 Alpha  occ. eigenvalues --  -38.43488 -38.43217  -2.19918  -2.19886  -2.19639
 Alpha  occ. eigenvalues --   -2.19461  -2.19424  -2.19372  -2.19265  -1.13601
 Alpha  occ. eigenvalues --   -1.13581  -1.13547  -1.13547  -1.13527  -1.13508
 Alpha  occ. eigenvalues --   -1.13331  -1.13304  -1.13283  -1.13184  -1.13147
 Alpha  occ. eigenvalues --   -1.13110  -1.13101  -1.13078  -1.13070  -1.13031
 Alpha  occ. eigenvalues --   -1.13019  -1.12974  -1.12954  -1.12895  -1.12881
 Alpha  occ. eigenvalues --   -0.18454  -0.13614  -0.12576  -0.10360
 Alpha virt. eigenvalues --   -0.06050  -0.05410  -0.04839  -0.03255  -0.02518
 Alpha virt. eigenvalues --   -0.02165  -0.01738  -0.01032  -0.00637  -0.00351
 Alpha virt. eigenvalues --   -0.00215   0.00277   0.00613   0.00768   0.00804

  Beta  occ. eigenvalues --  -38.44082 -38.43960 -38.43803 -38.43542 -38.43489
  Beta  occ. eigenvalues --  -38.43472 -38.43196  -2.19906  -2.19749  -2.19647
  Beta  occ. eigenvalues --   -2.19384  -2.19380  -2.19344  -2.19229  -1.13589
  Beta  occ. eigenvalues --   -1.13573  -1.13540  -1.13446  -1.13437  -1.13415
  Beta  occ. eigenvalues --   -1.13336  -1.13308  -1.13279  -1.13146  -1.13114
  Beta  occ. eigenvalues --   -1.13060  -1.13052  -1.13041  -1.13023  -1.12995
  Beta  occ. eigenvalues --   -1.12975  -1.12956  -1.12904  -1.12879  -1.12852
  Beta  occ. eigenvalues --   -0.17907  -0.13289  -0.12347
  Beta virt. eigenvalues --   -0.06640  -0.05830  -0.05259  -0.04574  -0.02810
  Beta virt. eigenvalues --   -0.02025  -0.01888  -0.01001  -0.00928  -0.00512
  Beta virt. eigenvalues --   -0.00313   0.00062   0.00390   0.00789   0.00822

 Mulliken charges and spin densities:
               1          2
     1  Na  -0.005711   0.276919
     2  Na  -0.492105  -0.022528
     3  Na  -0.043200   0.619497
     4  Na  -0.161876  -0.108844
     5  Na   0.004866   0.219946
     6  Na   0.002266   0.047256
     7  Na   0.695761  -0.032246
 Sum of Mulliken charges =  -0.00000   1.00000

 Dipole moment (field-independent basis, Debye):
    X=             -0.4671    Y=             -0.0441    Z=              0.4374  Tot=              0.6414
 Quadrupole moment (field-independent basis, Debye-Ang):
   XX=            -54.7001   YY=            -64.8248   ZZ=            -74.0711
   XY=              0.5902   XZ=              0.3238   YZ=              0.5139

 Normal termination of Gaussian 16 at Wed Nov 29 02:53:48 2023.
