 Gaussian 16, Revision B.01,
 Gaussian 16:  ES64L-G16RevB.01 20-Dec-2017

 -------------------------
 #P B3LYP/6-311+g(d) force
 -------------------------

 -----
 DPGEN
 -----
 Symbolic Z-matrix:
 Charge =  0 Multiplicity = 2

                         Standard orientation:
 ---------------------------------------------------------------------
 Center     Atomic      Atomic             Coordinates (Angstroms)
 Number     Number       Type             X           Y           Z
 ---------------------------------------------------------------------
      1         11           0       -0.573034    0.071013    2.012805
      2         11           0        2.790924    2.006311    0.479135
      3         11           0       -3.495669   -0.445094   -0.143315
      4         11           0       -1.010002    2.872038   -0.399911
      5         11           0       -0.181525    0.080595   -1.739397
      6         11           0        2.761713   -1.813918   -0.479898
      7         11           0       -0.292408   -2.770946    0.270581
 ---------------------------------------------------------------------

 SCF Done:  E(UB3LYP) =  -1136.13066996     A.U. after   21 cycles

 The electronic state is 2-A.
 Alpha  occ. eigenvalues --  -38.44710 -38.44352 -38.43894 -38.43794 -38.43779
 Alpha  occ. eigenvalues --  -38.43532 -38.43334  -2.20477  -2.20094  -2.19706
 Alpha  occ. eigenvalues --   -2.19645  -2.19596  -2.19439  -2.19199  -1.14158
 Alpha  occ. eigenvalues --   -1.14126  -1.14121  -1.13772  -1.13749  -1.13731
 Alpha  occ. eigenvalues --   -1.13429  -1.13372  -1.13325  -1.13315  -1.13282
 Alpha  occ. eigenvalues --   -1.13268  -1.13265  -1.13250  -1.13238  -1.13119
 Alpha  occ. eigenvalues --   -1.13082  -1.13047  -1.12887  -1.12866  -1.12813
 Alpha  occ. eigenvalues --   -0.17950  -0.12678  -0.12299  -0.10623
 Alpha virt. eigenvalues --   -0.06212  -0.05305  -0.04712  -0.03056  -0.02995
 Alpha virt. eigenvalues --   -0.02532  -0.01958  -0.01222  -0.00708  -0.00382
 Alpha virt. eigenvalues --   -0.00069   0.00312   0.00713   0.00731   0.00765

  Beta  occ. eigenvalues --  -38.44710 -38.44344 -38.43884 -38.43789 -38.43693
  Beta  occ. eigenvalues --  -38.43465 -38.43326  -2.20481  -2.20079  -2.19692
  Beta  occ. eigenvalues --   -2.19589  -2.19486  -2.19316  -2.19188  -1.14150
  Beta  occ. eigenvalues --   -1.14126  -1.14120  -1.13752  -1.13740  -1.13723
  Beta  occ. eigenvalues --   -1.13407  -1.13351  -1.13305  -1.13266  -1.13250
  Beta  occ. eigenvalues --   -1.13232  -1.13218  -1.13172  -1.13134  -1.13036
  Beta  occ. eigenvalues --   -1.12997  -1.12957  -1.12877  -1.12840  -1.12801
  Beta  occ. eigenvalues --   -0.17239  -0.12461  -0.12063
  Beta virt. eigenvalues --   -0.06835  -0.06130  -0.05217  -0.04622  -0.02430
  Beta virt. eigenvalues --   -0.02248  -0.01860  -0.01540  -0.01134  -0.00727
  Beta virt. eigenvalues --   -0.00397   0.00071   0.00346   0.00761   0.00801

 Mulliken charges and spin densities:
               1          2
     1  Na  -0.093215   0.720736
     2  Na  -0.166096   0.029675
     3  Na   0.042453  -0.140294
     4  Na  -0.022364  -0.083904
     5  Na   0.213943   0.537904
     6  Na  -0.023849  -0.014050
     7  Na   0.049127  -0.050067
 Sum of Mulliken charges =  -0.00000   1.00000

 Dipole moment (field-independent basis, Debye):
    X=             -0.4431    Y=              0.1841    Z=              0.0235  Tot=              0.4804
 Quadrupole moment (field-independent basis, Debye-Ang):
   XX=            -53.7262   YY=            -64.2963   ZZ=            -74.9974
   XY=              0.3259   XZ=              0.7967   YZ=              0.5936

 Normal termination of Gaussian 16 at Fri Dec  8 05:07:26 2023.
