 Gaussian 16, Revision B.01,
 Gaussian 16:  ES64L-G16RevB.01 20-Dec-2017

 -------------------------
 #P B3LYP/6-311+g(d) force
 -------------------------

 -----
 DPGEN
 -----
 Symbolic Z-matrix:
 Charge =  0 Multiplicity = 2

                         Standard orientation:
 ---------------------------------------------------------------------
 Center     Atomic      Atomic             Coordinates (Angstroms)
 Number     Number       Type             X           Y           Z
 ---------------------------------------------------------------------
      1         11           0        4.589707    0.499691    0.208085
      2         11           0        1.579910    3.479413    0.049210
      3         11           0        3.075175   -1.995203    0.022141
      4         11           0       -2.997310   -2.541803    0.912169
      5         11           0       -3.781553    0.471430   -0.340896
      6         11           0       -0.165784   -3.416449   -0.755589
      7         11           0       -2.300144    3.502921   -0.095119
 ---------------------------------------------------------------------

 SCF Done:  E(UB3LYP) =  -1136.10434369     A.U. after   23 cycles

 The electronic state is 2-A.
 Alpha  occ. eigenvalues --  -38.45501 -38.45049 -38.44770 -38.44730 -38.44109
 Alpha  occ. eigenvalues --  -38.44062 -38.44024  -2.21243  -2.20826  -2.20557
 Alpha  occ. eigenvalues --   -2.20512  -2.19947  -2.19875  -2.19830  -1.14907
 Alpha  occ. eigenvalues --   -1.14890  -1.14848  -1.14503  -1.14502  -1.14482
 Alpha  occ. eigenvalues --   -1.14291  -1.14214  -1.14203  -1.14202  -1.14198
 Alpha  occ. eigenvalues --   -1.14158  -1.13608  -1.13578  -1.13562  -1.13535
 Alpha  occ. eigenvalues --   -1.13525  -1.13501  -1.13480  -1.13477  -1.13457
 Alpha  occ. eigenvalues --   -0.15574  -0.14044  -0.13382  -0.10702
 Alpha virt. eigenvalues --   -0.07968  -0.04789  -0.04485  -0.03547  -0.03299
 Alpha virt. eigenvalues --   -0.02658  -0.02361  -0.01932  -0.01529  -0.00644
 Alpha virt. eigenvalues --   -0.00272  -0.00131   0.00068   0.00318   0.00406

  Beta  occ. eigenvalues --  -38.45422 -38.45063 -38.44797 -38.44708 -38.44065
  Beta  occ. eigenvalues --  -38.44012 -38.43960  -2.21097  -2.20857  -2.20566
  Beta  occ. eigenvalues --   -2.20525  -2.19869  -2.19781  -2.19711  -1.14809
  Beta  occ. eigenvalues --   -1.14793  -1.14743  -1.14529  -1.14524  -1.14473
  Beta  occ. eigenvalues --   -1.14243  -1.14237  -1.14236  -1.14199  -1.14171
  Beta  occ. eigenvalues --   -1.14168  -1.13549  -1.13527  -1.13507  -1.13467
  Beta  occ. eigenvalues --   -1.13459  -1.13453  -1.13398  -1.13396  -1.13382
  Beta  occ. eigenvalues --   -0.15070  -0.13469  -0.12698
  Beta virt. eigenvalues --   -0.07903  -0.07508  -0.04492  -0.04059  -0.03217
  Beta virt. eigenvalues --   -0.02882  -0.02441  -0.02193  -0.01838  -0.01410
  Beta virt. eigenvalues --   -0.00394   0.00023   0.00128   0.00196   0.00343

 Mulliken charges and spin densities:
               1          2
     1  Na   0.562718   0.156558
     2  Na  -0.195770   0.452302
     3  Na  -0.377914   0.114608
     4  Na   0.119398  -0.074854
     5  Na  -0.327330   0.199428
     6  Na  -0.171743   0.329108
     7  Na   0.390641  -0.177149
 Sum of Mulliken charges =  -0.00000   1.00000

 Dipole moment (field-independent basis, Debye):
    X=             -0.0534    Y=              0.1933    Z=              0.2198  Tot=              0.2975
 Quadrupole moment (field-independent basis, Debye-Ang):
   XX=            -64.4443   YY=            -65.2785   ZZ=            -71.6568
   XY=              4.5311   XZ=             -1.1891   YZ=             -0.9937

 Normal termination of Gaussian 16 at Sun Dec  3 12:30:48 2023.
