 Gaussian 16, Revision B.01,
 Gaussian 16:  ES64L-G16RevB.01 20-Dec-2017

 -------------------------
 #P B3LYP/6-311+g(d) force
 -------------------------

 -----
 DPGEN
 -----
 Symbolic Z-matrix:
 Charge =  0 Multiplicity = 2

                         Standard orientation:
 ---------------------------------------------------------------------
 Center     Atomic      Atomic             Coordinates (Angstroms)
 Number     Number       Type             X           Y           Z
 ---------------------------------------------------------------------
      1         11           0       -3.812189   -1.534113   -0.191362
      2         11           0        2.742354   -0.724079   -1.660687
      3         11           0        2.455183   -1.170725    1.974325
      4         11           0        0.940533    1.431368    1.217113
      5         11           0       -2.172249    1.518430    0.949830
      6         11           0       -0.354190   -1.564247   -0.639946
      7         11           0        0.200559    2.043365   -1.649273
 ---------------------------------------------------------------------

 SCF Done:  E(UB3LYP) =  -1136.12593658     A.U. after   21 cycles

 The electronic state is 2-A.
 Alpha  occ. eigenvalues --  -38.44534 -38.44527 -38.43864 -38.43844 -38.43515
 Alpha  occ. eigenvalues --  -38.43332 -38.43198  -2.20388  -2.20359  -2.19731
 Alpha  occ. eigenvalues --   -2.19720  -2.19368  -2.19196  -2.19112  -1.14089
 Alpha  occ. eigenvalues --   -1.14042  -1.14027  -1.14002  -1.13993  -1.13958
 Alpha  occ. eigenvalues --   -1.13461  -1.13442  -1.13399  -1.13375  -1.13333
 Alpha  occ. eigenvalues --   -1.13306  -1.13074  -1.13060  -1.12970  -1.12868
 Alpha  occ. eigenvalues --   -1.12847  -1.12808  -1.12782  -1.12776  -1.12749
 Alpha  occ. eigenvalues --   -0.18436  -0.13264  -0.12084  -0.11505
 Alpha virt. eigenvalues --   -0.05854  -0.05339  -0.04496  -0.03315  -0.03119
 Alpha virt. eigenvalues --   -0.02638  -0.01828  -0.00974  -0.00856   0.00141
 Alpha virt. eigenvalues --    0.00215   0.00237   0.00342   0.00560   0.00748

  Beta  occ. eigenvalues --  -38.44485 -38.44462 -38.43856 -38.43805 -38.43499
  Beta  occ. eigenvalues --  -38.43340 -38.43158  -2.20285  -2.20257  -2.19705
  Beta  occ. eigenvalues --   -2.19658  -2.19341  -2.19127  -2.19126  -1.13988
  Beta  occ. eigenvalues --   -1.13982  -1.13952  -1.13939  -1.13924  -1.13881
  Beta  occ. eigenvalues --   -1.13439  -1.13406  -1.13376  -1.13332  -1.13310
  Beta  occ. eigenvalues --   -1.13258  -1.13047  -1.13028  -1.12957  -1.12820
  Beta  occ. eigenvalues --   -1.12791  -1.12786  -1.12784  -1.12758  -1.12748
  Beta  occ. eigenvalues --   -0.17664  -0.13045  -0.11441
  Beta virt. eigenvalues --   -0.07960  -0.05659  -0.04985  -0.04049  -0.03086
  Beta virt. eigenvalues --   -0.02346  -0.02165  -0.01658  -0.00883  -0.00446
  Beta virt. eigenvalues --    0.00184   0.00281   0.00391   0.00456   0.00713

 Mulliken charges and spin densities:
               1          2
     1  Na   0.151572  -0.079031
     2  Na   0.184422   0.188433
     3  Na   0.237517   0.137589
     4  Na   0.020106   0.345894
     5  Na  -0.024752  -0.043503
     6  Na  -0.694038   0.216043
     7  Na   0.125173   0.234574
 Sum of Mulliken charges =  -0.00000   1.00000

 Dipole moment (field-independent basis, Debye):
    X=              0.7989    Y=              0.2091    Z=             -0.2307  Tot=              0.8575
 Quadrupole moment (field-independent basis, Debye-Ang):
   XX=            -57.4105   YY=            -73.7316   ZZ=            -64.1626
   XY=             -3.5238   XZ=             -1.8567   YZ=             -2.2139

 Normal termination of Gaussian 16 at Thu Dec  7 19:23:17 2023.
