 Gaussian 16, Revision B.01,
 Gaussian 16:  ES64L-G16RevB.01 20-Dec-2017

 -------------------------
 #P B3LYP/6-311+g(d) force
 -------------------------

 -----
 DPGEN
 -----
 Symbolic Z-matrix:
 Charge =  0 Multiplicity = 2

                         Standard orientation:
 ---------------------------------------------------------------------
 Center     Atomic      Atomic             Coordinates (Angstroms)
 Number     Number       Type             X           Y           Z
 ---------------------------------------------------------------------
      1         11           0       -0.026294   -0.730088    2.318444
      2         11           0        0.185206   -0.028406   -1.626363
      3         11           0       -2.574965    1.646949   -0.050570
      4         11           0        0.459666    2.743815    0.047042
      5         11           0        3.080930    0.718450    0.014524
      6         11           0        1.226785   -2.648826   -0.415745
      7         11           0       -2.351327   -1.701893   -0.287334
 ---------------------------------------------------------------------

 SCF Done:  E(UB3LYP) =  -1136.13621730     A.U. after   19 cycles

 The electronic state is 2-A.
 Alpha  occ. eigenvalues --  -38.44087 -38.43903 -38.43724 -38.43669 -38.43468
 Alpha  occ. eigenvalues --  -38.43248 -38.43246  -2.19926  -2.19730  -2.19583
 Alpha  occ. eigenvalues --   -2.19532  -2.19321  -2.19261  -2.19131  -1.13571
 Alpha  occ. eigenvalues --   -1.13555  -1.13551  -1.13410  -1.13397  -1.13369
 Alpha  occ. eigenvalues --   -1.13292  -1.13271  -1.13248  -1.13215  -1.13183
 Alpha  occ. eigenvalues --   -1.13140  -1.13021  -1.12983  -1.12966  -1.12940
 Alpha  occ. eigenvalues --   -1.12912  -1.12870  -1.12789  -1.12783  -1.12753
 Alpha  occ. eigenvalues --   -0.18640  -0.12810  -0.12698  -0.11060
 Alpha virt. eigenvalues --   -0.05551  -0.05057  -0.04641  -0.03254  -0.03096
 Alpha virt. eigenvalues --   -0.02863  -0.01348  -0.01093  -0.00287  -0.00165
 Alpha virt. eigenvalues --   -0.00060   0.00356   0.00814   0.00881   0.00931

  Beta  occ. eigenvalues --  -38.43981 -38.43903 -38.43717 -38.43658 -38.43468
  Beta  occ. eigenvalues --  -38.43243 -38.43188  -2.19733  -2.19728  -2.19574
  Beta  occ. eigenvalues --   -2.19517  -2.19322  -2.19153  -2.19127  -1.13442
  Beta  occ. eigenvalues --   -1.13418  -1.13414  -1.13409  -1.13382  -1.13371
  Beta  occ. eigenvalues --   -1.13276  -1.13253  -1.13219  -1.13211  -1.13152
  Beta  occ. eigenvalues --   -1.13135  -1.13021  -1.12974  -1.12961  -1.12881
  Beta  occ. eigenvalues --   -1.12849  -1.12794  -1.12770  -1.12756  -1.12753
  Beta  occ. eigenvalues --   -0.17929  -0.12618  -0.12466
  Beta virt. eigenvalues --   -0.07057  -0.05547  -0.05020  -0.04566  -0.02433
  Beta virt. eigenvalues --   -0.02338  -0.01784  -0.01273  -0.01032  -0.00352
  Beta virt. eigenvalues --   -0.00198   0.00126   0.00397   0.00856   0.00905

 Mulliken charges and spin densities:
               1          2
     1  Na  -0.777714   0.729429
     2  Na  -0.183115   0.176102
     3  Na   0.016175   0.011295
     4  Na   0.097089   0.044003
     5  Na   0.150890   0.014741
     6  Na   0.338211  -0.017303
     7  Na   0.358465   0.041734
 Sum of Mulliken charges =  -0.00000   1.00000

 Dipole moment (field-independent basis, Debye):
    X=              0.1636    Y=             -0.2746    Z=              0.2559  Tot=              0.4094
 Quadrupole moment (field-independent basis, Debye-Ang):
   XX=            -58.7613   YY=            -63.5421   ZZ=            -72.7106
   XY=             -0.1540   XZ=              0.5002   YZ=              1.2638

 Normal termination of Gaussian 16 at Tue Dec  5 15:32:59 2023.
