 Gaussian 16, Revision B.01,
 Gaussian 16:  ES64L-G16RevB.01 20-Dec-2017

 -------------------------
 #P B3LYP/6-311+g(d) force
 -------------------------

 -----
 DPGEN
 -----
 Symbolic Z-matrix:
 Charge =  0 Multiplicity = 2

                         Standard orientation:
 ---------------------------------------------------------------------
 Center     Atomic      Atomic             Coordinates (Angstroms)
 Number     Number       Type             X           Y           Z
 ---------------------------------------------------------------------
      1         11           0        1.720501    2.368817    0.116555
      2         11           0       -2.580194   -1.979354   -0.341241
      3         11           0       -2.568638    2.261079   -0.033732
      4         11           0       -0.549890    0.249611    0.045377
      5         11           0        1.067958   -0.970687   -2.452017
      6         11           0        2.478629   -0.668317    0.159077
      7         11           0        0.431633   -1.261150    2.505981
 ---------------------------------------------------------------------

 SCF Done:  E(UB3LYP) =  -1136.10816421     A.U. after   28 cycles

 The electronic state is 2-A.
 Alpha  occ. eigenvalues --  -38.45147 -38.44804 -38.44172 -38.43769 -38.43542
 Alpha  occ. eigenvalues --  -38.43365 -38.42056  -2.21035  -2.20685  -2.19968
 Alpha  occ. eigenvalues --   -2.19583  -2.19404  -2.19379  -2.18307  -1.14723
 Alpha  occ. eigenvalues --   -1.14679  -1.14605  -1.14386  -1.14317  -1.14259
 Alpha  occ. eigenvalues --   -1.13678  -1.13619  -1.13588  -1.13353  -1.13233
 Alpha  occ. eigenvalues --   -1.13177  -1.13165  -1.13080  -1.13057  -1.13046
 Alpha  occ. eigenvalues --   -1.13043  -1.12936  -1.12037  -1.11976  -1.11910
 Alpha  occ. eigenvalues --   -0.18903  -0.12815  -0.12258  -0.11509
 Alpha virt. eigenvalues --   -0.05620  -0.04975  -0.04259  -0.03435  -0.02900
 Alpha virt. eigenvalues --   -0.02777  -0.01407  -0.00950  -0.00582   0.00234
 Alpha virt. eigenvalues --    0.00303   0.00359   0.00571   0.00858   0.00891

  Beta  occ. eigenvalues --  -38.45044 -38.44709 -38.44174 -38.43780 -38.43536
  Beta  occ. eigenvalues --  -38.43349 -38.42036  -2.20845  -2.20510  -2.19972
  Beta  occ. eigenvalues --   -2.19603  -2.19394  -2.19359  -2.18277  -1.14599
  Beta  occ. eigenvalues --   -1.14544  -1.14472  -1.14264  -1.14198  -1.14137
  Beta  occ. eigenvalues --   -1.13681  -1.13613  -1.13593  -1.13366  -1.13244
  Beta  occ. eigenvalues --   -1.13192  -1.13161  -1.13055  -1.13051  -1.13029
  Beta  occ. eigenvalues --   -1.12978  -1.12931  -1.11976  -1.11942  -1.11899
  Beta  occ. eigenvalues --   -0.18036  -0.12642  -0.11298
  Beta virt. eigenvalues --   -0.08139  -0.05495  -0.04796  -0.03610  -0.02797
  Beta virt. eigenvalues --   -0.02456  -0.02119  -0.01345  -0.00933  -0.00259
  Beta virt. eigenvalues --    0.00281   0.00353   0.00386   0.00853   0.00899

 Mulliken charges and spin densities:
               1          2
     1  Na  -0.427757  -0.037807
     2  Na   1.758941   0.081036
     3  Na  -0.278838  -0.188400
     4  Na  -3.476778  -0.023567
     5  Na  -0.042099   0.471554
     6  Na   2.514185   0.225759
     7  Na  -0.047654   0.471425
 Sum of Mulliken charges =  -0.00000   1.00000

 Dipole moment (field-independent basis, Debye):
    X=             -0.0225    Y=             -0.5286    Z=             -0.1543  Tot=              0.5511
 Quadrupole moment (field-independent basis, Debye-Ang):
   XX=            -60.9755   YY=            -68.6268   ZZ=            -62.3900
   XY=              1.9059   XZ=              0.5868   YZ=              0.9856

 Normal termination of Gaussian 16 at Thu Dec  7 03:28:10 2023.
