 Gaussian 16, Revision B.01,
 Gaussian 16:  ES64L-G16RevB.01 20-Dec-2017

 -------------------------
 #P B3LYP/6-311+g(d) force
 -------------------------

 -----
 DPGEN
 -----
 Symbolic Z-matrix:
 Charge =  0 Multiplicity = 2

                         Standard orientation:
 ---------------------------------------------------------------------
 Center     Atomic      Atomic             Coordinates (Angstroms)
 Number     Number       Type             X           Y           Z
 ---------------------------------------------------------------------
      1         11           0       -0.108297   -0.430461    1.483967
      2         11           0        0.288528   -0.316179   -1.395922
      3         11           0       -3.294687    0.993492    0.414175
      4         11           0       -2.489594   -2.237713   -0.391488
      5         11           0        3.014041    1.390822    0.256384
      6         11           0        2.626390   -2.412265    0.062827
      7         11           0       -0.036382    3.012304   -0.429943
 ---------------------------------------------------------------------

 SCF Done:  E(UB3LYP) =  -1136.12634463     A.U. after   23 cycles

 The electronic state is 2-A.
 Alpha  occ. eigenvalues --  -38.44706 -38.44395 -38.44234 -38.44158 -38.43815
 Alpha  occ. eigenvalues --  -38.43052 -38.42874  -2.20506  -2.20196  -2.20055
 Alpha  occ. eigenvalues --   -2.19948  -2.19744  -2.18871  -2.18862  -1.14190
 Alpha  occ. eigenvalues --   -1.14165  -1.14132  -1.13865  -1.13850  -1.13842
 Alpha  occ. eigenvalues --   -1.13722  -1.13713  -1.13688  -1.13625  -1.13604
 Alpha  occ. eigenvalues --   -1.13591  -1.13550  -1.13365  -1.13319  -1.12605
 Alpha  occ. eigenvalues --   -1.12555  -1.12532  -1.12511  -1.12462  -1.12441
 Alpha  occ. eigenvalues --   -0.18205  -0.13477  -0.12081  -0.09604
 Alpha virt. eigenvalues --   -0.06233  -0.06143  -0.04594  -0.03047  -0.02370
 Alpha virt. eigenvalues --   -0.02236  -0.01775  -0.01516  -0.00954  -0.00498
 Alpha virt. eigenvalues --   -0.00013   0.00248   0.00616   0.00642   0.00779

  Beta  occ. eigenvalues --  -38.44701 -38.44374 -38.44219 -38.44156 -38.43771
  Beta  occ. eigenvalues --  -38.43044 -38.42807  -2.20499  -2.20159  -2.20031
  Beta  occ. eigenvalues --   -2.19948  -2.19665  -2.18857  -2.18742  -1.14178
  Beta  occ. eigenvalues --   -1.14162  -1.14121  -1.13832  -1.13823  -1.13816
  Beta  occ. eigenvalues --   -1.13705  -1.13691  -1.13658  -1.13617  -1.13604
  Beta  occ. eigenvalues --   -1.13583  -1.13482  -1.13311  -1.13259  -1.12543
  Beta  occ. eigenvalues --   -1.12520  -1.12510  -1.12495  -1.12381  -1.12350
  Beta  occ. eigenvalues --   -0.17588  -0.13202  -0.11833
  Beta virt. eigenvalues --   -0.06165  -0.06133  -0.05840  -0.04524  -0.02389
  Beta virt. eigenvalues --   -0.02104  -0.01753  -0.01656  -0.00980  -0.00768
  Beta virt. eigenvalues --   -0.00428   0.00156   0.00327   0.00656   0.00706

 Mulliken charges and spin densities:
               1          2
     1  Na  -0.227463   0.400243
     2  Na   0.065393   0.237497
     3  Na   0.025884   0.152249
     4  Na   0.172710   0.079684
     5  Na   0.064699   0.047110
     6  Na   0.065069   0.044194
     7  Na  -0.166291   0.039025
 Sum of Mulliken charges =  -0.00000   1.00000

 Dipole moment (field-independent basis, Debye):
    X=              0.1996    Y=             -0.3318    Z=             -0.0157  Tot=              0.3875
 Quadrupole moment (field-independent basis, Debye-Ang):
   XX=            -49.8459   YY=            -61.3693   ZZ=            -78.7238
   XY=              0.2662   XZ=              1.1053   YZ=              0.4028

 Normal termination of Gaussian 16 at Thu Dec  7 13:58:42 2023.
