 Gaussian 16, Revision B.01,
 Gaussian 16:  ES64L-G16RevB.01 20-Dec-2017

 -------------------------
 #P B3LYP/6-311+g(d) force
 -------------------------

 -----
 DPGEN
 -----
 Symbolic Z-matrix:
 Charge =  0 Multiplicity = 2

                         Standard orientation:
 ---------------------------------------------------------------------
 Center     Atomic      Atomic             Coordinates (Angstroms)
 Number     Number       Type             X           Y           Z
 ---------------------------------------------------------------------
      1         11           0        4.799547   -1.339109    0.253748
      2         11           0        1.663648    3.958265   -0.817994
      3         11           0        2.329121   -2.884414   -0.515665
      4         11           0       -1.641665   -2.500753   -0.385697
      5         11           0       -6.130081    1.958211   -0.029086
      6         11           0       -4.588865   -1.419150    0.588559
      7         11           0        3.568295    2.226950    0.906135
 ---------------------------------------------------------------------

 SCF Done:  E(UB3LYP) =  -1136.10143623     A.U. after   19 cycles

 The electronic state is 2-A.
 Alpha  occ. eigenvalues --  -38.45671 -38.44589 -38.44585 -38.44481 -38.44380
 Alpha  occ. eigenvalues --  -38.44170 -38.43859  -2.21443  -2.20408  -2.20384
 Alpha  occ. eigenvalues --   -2.20241  -2.20169  -2.19960  -2.19650  -1.15080
 Alpha  occ. eigenvalues --   -1.15079  -1.15044  -1.14136  -1.14053  -1.14040
 Alpha  occ. eigenvalues --   -1.14037  -1.14033  -1.14025  -1.13926  -1.13912
 Alpha  occ. eigenvalues --   -1.13878  -1.13833  -1.13825  -1.13799  -1.13645
 Alpha  occ. eigenvalues --   -1.13609  -1.13608  -1.13319  -1.13309  -1.13284
 Alpha  occ. eigenvalues --   -0.15075  -0.14186  -0.12630  -0.11681
 Alpha virt. eigenvalues --   -0.07311  -0.05474  -0.03966  -0.03371  -0.03333
 Alpha virt. eigenvalues --   -0.02691  -0.02370  -0.01913  -0.01563  -0.01107
 Alpha virt. eigenvalues --   -0.00916  -0.00702  -0.00331   0.00388   0.00419

  Beta  occ. eigenvalues --  -38.45549 -38.44550 -38.44516 -38.44503 -38.44393
  Beta  occ. eigenvalues --  -38.44151 -38.43864  -2.21216  -2.20343  -2.20289
  Beta  occ. eigenvalues --   -2.20247  -2.20197  -2.19924  -2.19662  -1.14925
  Beta  occ. eigenvalues --   -1.14924  -1.14893  -1.14103  -1.14008  -1.13994
  Beta  occ. eigenvalues --   -1.13987  -1.13966  -1.13943  -1.13936  -1.13927
  Beta  occ. eigenvalues --   -1.13855  -1.13852  -1.13845  -1.13788  -1.13624
  Beta  occ. eigenvalues --   -1.13585  -1.13584  -1.13327  -1.13317  -1.13279
  Beta  occ. eigenvalues --   -0.14682  -0.13474  -0.12140
  Beta virt. eigenvalues --   -0.08398  -0.06844  -0.05071  -0.03663  -0.03220
  Beta virt. eigenvalues --   -0.03124  -0.02428  -0.02181  -0.01562  -0.01225
  Beta virt. eigenvalues --   -0.00845  -0.00708  -0.00336  -0.00077   0.00435

 Mulliken charges and spin densities:
               1          2
     1  Na  -0.001620   0.151288
     2  Na   0.024836   0.090893
     3  Na   0.082425  -0.071122
     4  Na  -0.227424   0.345149
     5  Na   0.086471   0.621560
     6  Na   0.299632  -0.113958
     7  Na  -0.264320  -0.023810
 Sum of Mulliken charges =  -0.00000   1.00000

 Dipole moment (field-independent basis, Debye):
    X=             -0.6206    Y=              0.5222    Z=             -0.2600  Tot=              0.8517
 Quadrupole moment (field-independent basis, Debye-Ang):
   XX=            -58.3961   YY=            -68.6193   ZZ=            -71.4517
   XY=             -8.1397   XZ=              2.7414   YZ=             -2.6798

 Normal termination of Gaussian 16 at Sun Dec  3 15:52:09 2023.
