 Gaussian 16, Revision B.01,
 Gaussian 16:  ES64L-G16RevB.01 20-Dec-2017

 -------------------------
 #P B3LYP/6-311+g(d) force
 -------------------------

 -----
 DPGEN
 -----
 Symbolic Z-matrix:
 Charge =  0 Multiplicity = 2

                         Standard orientation:
 ---------------------------------------------------------------------
 Center     Atomic      Atomic             Coordinates (Angstroms)
 Number     Number       Type             X           Y           Z
 ---------------------------------------------------------------------
      1         11           0       -3.045372    0.468511   -0.061081
      2         11           0       -1.452925   -2.754552   -0.389691
      3         11           0        2.492267    1.648571   -0.348134
      4         11           0        2.641479   -1.758881    0.315044
      5         11           0       -0.706073    2.840085    0.007802
      6         11           0        0.228110   -0.266012   -1.650082
      7         11           0       -0.157486   -0.177721    2.126143
 ---------------------------------------------------------------------

 SCF Done:  E(UB3LYP) =  -1136.13843383     A.U. after   18 cycles

 The electronic state is 2-A.
 Alpha  occ. eigenvalues --  -38.44041 -38.43956 -38.43836 -38.43658 -38.43613
 Alpha  occ. eigenvalues --  -38.43244 -38.43132  -2.19857  -2.19790  -2.19696
 Alpha  occ. eigenvalues --   -2.19481  -2.19473  -2.19207  -2.18986  -1.13527
 Alpha  occ. eigenvalues --   -1.13524  -1.13498  -1.13467  -1.13460  -1.13429
 Alpha  occ. eigenvalues --   -1.13358  -1.13325  -1.13312  -1.13190  -1.13174
 Alpha  occ. eigenvalues --   -1.13132  -1.13129  -1.13110  -1.13102  -1.12883
 Alpha  occ. eigenvalues --   -1.12838  -1.12830  -1.12655  -1.12651  -1.12630
 Alpha  occ. eigenvalues --   -0.18480  -0.13002  -0.12392  -0.10839
 Alpha virt. eigenvalues --   -0.05674  -0.05148  -0.04728  -0.03240  -0.02910
 Alpha virt. eigenvalues --   -0.02678  -0.01477  -0.01200  -0.00458  -0.00290
 Alpha virt. eigenvalues --   -0.00026   0.00360   0.00799   0.00844   0.00884

  Beta  occ. eigenvalues --  -38.44034 -38.43954 -38.43739 -38.43648 -38.43605
  Beta  occ. eigenvalues --  -38.43183 -38.43130  -2.19847  -2.19788  -2.19518
  Beta  occ. eigenvalues --   -2.19467  -2.19462  -2.19097  -2.18985  -1.13520
  Beta  occ. eigenvalues --   -1.13500  -1.13492  -1.13466  -1.13445  -1.13424
  Beta  occ. eigenvalues --   -1.13240  -1.13204  -1.13181  -1.13169  -1.13156
  Beta  occ. eigenvalues --   -1.13114  -1.13112  -1.13101  -1.13094  -1.12808
  Beta  occ. eigenvalues --   -1.12758  -1.12752  -1.12654  -1.12646  -1.12616
  Beta  occ. eigenvalues --   -0.17764  -0.12782  -0.12145
  Beta virt. eigenvalues --   -0.06937  -0.05635  -0.05101  -0.04674  -0.02477
  Beta virt. eigenvalues --   -0.02167  -0.01622  -0.01373  -0.01107  -0.00513
  Beta virt. eigenvalues --   -0.00332   0.00119   0.00391   0.00832   0.00874

 Mulliken charges and spin densities:
               1          2
     1  Na   0.121703  -0.027829
     2  Na   0.153780  -0.059618
     3  Na   0.241639   0.010616
     4  Na   0.096837  -0.008227
     5  Na   0.011815  -0.029417
     6  Na  -0.145796   0.380571
     7  Na  -0.479978   0.733904
 Sum of Mulliken charges =  -0.00000   1.00000

 Dipole moment (field-independent basis, Debye):
    X=              0.0551    Y=             -0.3124    Z=              0.1781  Tot=              0.3638
 Quadrupole moment (field-independent basis, Debye-Ang):
   XX=            -57.4885   YY=            -62.4290   ZZ=            -74.0021
   XY=             -0.3698   XZ=              0.6612   YZ=             -0.3944

 Normal termination of Gaussian 16 at Fri Dec  8 00:44:50 2023.
