 Gaussian 16, Revision B.01,
 Gaussian 16:  ES64L-G16RevB.01 20-Dec-2017

 -------------------------
 #P B3LYP/6-311+g(d) force
 -------------------------

 -----
 DPGEN
 -----
 Symbolic Z-matrix:
 Charge =  0 Multiplicity = 2

                         Standard orientation:
 ---------------------------------------------------------------------
 Center     Atomic      Atomic             Coordinates (Angstroms)
 Number     Number       Type             X           Y           Z
 ---------------------------------------------------------------------
      1         11           0       -0.945728    2.015402    0.880358
      2         11           0        2.682167    1.937946   -0.112691
      3         11           0       -2.247818   -1.453994    1.280580
      4         11           0       -4.085867    0.307908   -1.332587
      5         11           0        3.452836   -1.237176   -0.927991
      6         11           0        1.213333   -0.887938    1.393955
      7         11           0       -0.068924   -0.682148   -1.181624
 ---------------------------------------------------------------------

 SCF Done:  E(UB3LYP) =  -1136.11962886     A.U. after   25 cycles

 The electronic state is 2-A.
 Alpha  occ. eigenvalues --  -38.44978 -38.44897 -38.44187 -38.43958 -38.43711
 Alpha  occ. eigenvalues --  -38.43449 -38.42578  -2.20897  -2.20689  -2.20042
 Alpha  occ. eigenvalues --   -2.19955  -2.19582  -2.19283  -2.18414  -1.14714
 Alpha  occ. eigenvalues --   -1.14528  -1.14496  -1.14345  -1.14326  -1.14291
 Alpha  occ. eigenvalues --   -1.13725  -1.13704  -1.13688  -1.13672  -1.13584
 Alpha  occ. eigenvalues --   -1.13538  -1.13249  -1.13233  -1.13209  -1.12973
 Alpha  occ. eigenvalues --   -1.12941  -1.12905  -1.12112  -1.12095  -1.12016
 Alpha  occ. eigenvalues --   -0.18531  -0.14415  -0.11348  -0.10654
 Alpha virt. eigenvalues --   -0.06703  -0.05326  -0.04940  -0.02956  -0.02837
 Alpha virt. eigenvalues --   -0.02409  -0.02000  -0.01245  -0.00940  -0.00285
 Alpha virt. eigenvalues --    0.00001   0.00300   0.00337   0.00455   0.00589

  Beta  occ. eigenvalues --  -38.44980 -38.44805 -38.44161 -38.43912 -38.43688
  Beta  occ. eigenvalues --  -38.43445 -38.42567  -2.20903  -2.20517  -2.19999
  Beta  occ. eigenvalues --   -2.19876  -2.19538  -2.19277  -2.18396  -1.14688
  Beta  occ. eigenvalues --   -1.14532  -1.14508  -1.14226  -1.14207  -1.14180
  Beta  occ. eigenvalues --   -1.13691  -1.13668  -1.13645  -1.13617  -1.13499
  Beta  occ. eigenvalues --   -1.13483  -1.13219  -1.13199  -1.13182  -1.12969
  Beta  occ. eigenvalues --   -1.12938  -1.12889  -1.12104  -1.12062  -1.12009
  Beta  occ. eigenvalues --   -0.17943  -0.13825  -0.10557
  Beta virt. eigenvalues --   -0.07591  -0.06451  -0.05040  -0.04456  -0.02813
  Beta virt. eigenvalues --   -0.02585  -0.01721  -0.01483  -0.00985  -0.00769
  Beta virt. eigenvalues --   -0.00096   0.00112   0.00401   0.00426   0.00572

 Mulliken charges and spin densities:
               1          2
     1  Na  -0.546841  -0.030395
     2  Na  -0.240399   0.028990
     3  Na   0.308270   0.068509
     4  Na   0.372016   0.464579
     5  Na   1.067397   0.271038
     6  Na   0.151555   0.208715
     7  Na  -1.111998  -0.011434
 Sum of Mulliken charges =  -0.00000   1.00000

 Dipole moment (field-independent basis, Debye):
    X=             -0.2044    Y=             -0.3233    Z=              0.0269  Tot=              0.3834
 Quadrupole moment (field-independent basis, Debye-Ang):
   XX=            -52.8860   YY=            -78.9646   ZZ=            -64.7475
   XY=              0.2524   XZ=             -1.8969   YZ=             -3.3199

 Normal termination of Gaussian 16 at Thu Dec  7 05:59:50 2023.
