 Gaussian 16, Revision B.01,
 Gaussian 16:  ES64L-G16RevB.01 20-Dec-2017

 -------------------------
 #P B3LYP/6-311+g(d) force
 -------------------------

 -----
 DPGEN
 -----
 Symbolic Z-matrix:
 Charge =  0 Multiplicity = 2

                         Standard orientation:
 ---------------------------------------------------------------------
 Center     Atomic      Atomic             Coordinates (Angstroms)
 Number     Number       Type             X           Y           Z
 ---------------------------------------------------------------------
      1         11           0       -0.142534   -1.732127   -0.031088
      2         11           0       -3.178996    0.642624    0.425946
      3         11           0        1.229957    1.291338   -0.904796
      4         11           0        2.901463   -0.489526    2.001455
      5         11           0        3.334142   -1.054909   -1.249772
      6         11           0       -0.687460    3.534013   -0.004816
      7         11           0       -3.456572   -2.191413   -0.236930
 ---------------------------------------------------------------------

 SCF Done:  E(UB3LYP) =  -1136.11878569     A.U. after   24 cycles

 The electronic state is 2-A.
 Alpha  occ. eigenvalues --  -38.45133 -38.45113 -38.44713 -38.44337 -38.43545
 Alpha  occ. eigenvalues --  -38.43388 -38.42870  -2.20956  -2.20943  -2.20580
 Alpha  occ. eigenvalues --   -2.20204  -2.19404  -2.19315  -2.18687  -1.14675
 Alpha  occ. eigenvalues --   -1.14656  -1.14653  -1.14615  -1.14582  -1.14543
 Alpha  occ. eigenvalues --   -1.14270  -1.14232  -1.14204  -1.13878  -1.13837
 Alpha  occ. eigenvalues --   -1.13832  -1.13055  -1.13039  -1.13013  -1.13009
 Alpha  occ. eigenvalues --   -1.12983  -1.12955  -1.12366  -1.12337  -1.12317
 Alpha  occ. eigenvalues --   -0.17682  -0.14625  -0.12154  -0.10143
 Alpha virt. eigenvalues --   -0.06923  -0.05654  -0.04869  -0.03570  -0.02826
 Alpha virt. eigenvalues --   -0.02239  -0.01947  -0.01332  -0.01072  -0.00552
 Alpha virt. eigenvalues --   -0.00369   0.00120   0.00328   0.00597   0.00611

  Beta  occ. eigenvalues --  -38.45122 -38.45109 -38.44684 -38.44338 -38.43437
  Beta  occ. eigenvalues --  -38.43360 -38.42871  -2.20940  -2.20934  -2.20534
  Beta  occ. eigenvalues --   -2.20206  -2.19268  -2.19204  -2.18690  -1.14666
  Beta  occ. eigenvalues --   -1.14650  -1.14612  -1.14609  -1.14576  -1.14537
  Beta  occ. eigenvalues --   -1.14240  -1.14181  -1.14155  -1.13879  -1.13836
  Beta  occ. eigenvalues --   -1.13833  -1.12981  -1.12938  -1.12919  -1.12917
  Beta  occ. eigenvalues --   -1.12898  -1.12876  -1.12366  -1.12338  -1.12319
  Beta  occ. eigenvalues --   -0.17181  -0.14324  -0.12074
  Beta virt. eigenvalues --   -0.06766  -0.06183  -0.05413  -0.04747  -0.03255
  Beta virt. eigenvalues --   -0.02670  -0.01781  -0.01272  -0.01190  -0.01012
  Beta virt. eigenvalues --   -0.00276  -0.00013   0.00251   0.00616   0.00681

 Mulliken charges and spin densities:
               1          2
     1  Na  -1.035795   0.163406
     2  Na  -0.519832   0.018934
     3  Na  -1.232048   0.148471
     4  Na  -0.062540   0.511437
     5  Na   1.674292   0.117460
     6  Na   0.571680   0.082816
     7  Na   0.604243  -0.042524
 Sum of Mulliken charges =  -0.00000   1.00000

 Dipole moment (field-independent basis, Debye):
    X=             -0.9477    Y=             -1.1561    Z=             -0.5986  Tot=              1.6102
 Quadrupole moment (field-independent basis, Debye-Ang):
   XX=            -53.2576   YY=            -67.0019   ZZ=            -76.7344
   XY=              0.6343   XZ=             -5.5372   YZ=              3.3176

 Normal termination of Gaussian 16 at Tue Nov 28 23:51:22 2023.
