 Gaussian 16, Revision B.01,
 Gaussian 16:  ES64L-G16RevB.01 20-Dec-2017

 -------------------------
 #P B3LYP/6-311+g(d) force
 -------------------------

 -----
 DPGEN
 -----
 Symbolic Z-matrix:
 Charge =  0 Multiplicity = 2

                         Standard orientation:
 ---------------------------------------------------------------------
 Center     Atomic      Atomic             Coordinates (Angstroms)
 Number     Number       Type             X           Y           Z
 ---------------------------------------------------------------------
      1         11           0        3.182662   -0.851417    0.054732
      2         11           0       -1.265248    2.812334    0.226260
      3         11           0       -0.134412   -0.122390   -1.712637
      4         11           0       -0.409784   -3.083554   -0.217985
      5         11           0       -0.120025   -0.580901    1.944195
      6         11           0        1.936964    2.095387   -0.178229
      7         11           0       -3.190157   -0.269459   -0.116336
 ---------------------------------------------------------------------

 SCF Done:  E(UB3LYP) =  -1136.13617993     A.U. after   19 cycles

 The electronic state is 2-A.
 Alpha  occ. eigenvalues --  -38.44430 -38.44187 -38.43892 -38.43484 -38.43429
 Alpha  occ. eigenvalues --  -38.43331 -38.43205  -2.20234  -2.19995  -2.19721
 Alpha  occ. eigenvalues --   -2.19315  -2.19309  -2.19211  -2.19147  -1.13916
 Alpha  occ. eigenvalues --   -1.13896  -1.13863  -1.13680  -1.13659  -1.13630
 Alpha  occ. eigenvalues --   -1.13407  -1.13402  -1.13342  -1.13008  -1.12984
 Alpha  occ. eigenvalues --   -1.12974  -1.12956  -1.12943  -1.12928  -1.12902
 Alpha  occ. eigenvalues --   -1.12864  -1.12841  -1.12822  -1.12774  -1.12765
 Alpha  occ. eigenvalues --   -0.18396  -0.12945  -0.12513  -0.10495
 Alpha virt. eigenvalues --   -0.06050  -0.05068  -0.04837  -0.03088  -0.02916
 Alpha virt. eigenvalues --   -0.02407  -0.01705  -0.01252  -0.00585  -0.00352
 Alpha virt. eigenvalues --   -0.00007   0.00356   0.00765   0.00849   0.00892

  Beta  occ. eigenvalues --  -38.44425 -38.44187 -38.43885 -38.43481 -38.43344
  Beta  occ. eigenvalues --  -38.43327 -38.43133  -2.20228  -2.19997  -2.19712
  Beta  occ. eigenvalues --   -2.19307  -2.19206  -2.19157  -2.19016  -1.13901
  Beta  occ. eigenvalues --   -1.13882  -1.13863  -1.13684  -1.13642  -1.13633
  Beta  occ. eigenvalues --   -1.13402  -1.13366  -1.13339  -1.13007  -1.12957
  Beta  occ. eigenvalues --   -1.12952  -1.12890  -1.12877  -1.12847  -1.12840
  Beta  occ. eigenvalues --   -1.12832  -1.12815  -1.12734  -1.12681  -1.12672
  Beta  occ. eigenvalues --   -0.17682  -0.12725  -0.12295
  Beta virt. eigenvalues --   -0.06619  -0.06051  -0.04955  -0.04843  -0.02321
  Beta virt. eigenvalues --   -0.02170  -0.01624  -0.01366  -0.01176  -0.00653
  Beta virt. eigenvalues --   -0.00385   0.00136   0.00383   0.00766   0.00870

 Mulliken charges and spin densities:
               1          2
     1  Na   0.126446  -0.088174
     2  Na  -0.040286  -0.025486
     3  Na  -0.068455   0.590763
     4  Na   0.142398  -0.184221
     5  Na  -0.406227   0.796063
     6  Na   0.065622  -0.010586
     7  Na   0.180502  -0.078360
 Sum of Mulliken charges =  -0.00000   1.00000

 Dipole moment (field-independent basis, Debye):
    X=             -0.2359    Y=             -0.4471    Z=              0.0498  Tot=              0.5080
 Quadrupole moment (field-independent basis, Debye-Ang):
   XX=            -56.1036   YY=            -61.0903   ZZ=            -75.7873
   XY=             -0.9131   XZ=              0.0138   YZ=              1.0405

 Normal termination of Gaussian 16 at Thu Dec  7 03:11:21 2023.
