 Gaussian 16, Revision B.01,
 Gaussian 16:  ES64L-G16RevB.01 20-Dec-2017

 -------------------------
 #P B3LYP/6-311+g(d) force
 -------------------------

 -----
 DPGEN
 -----
 Symbolic Z-matrix:
 Charge =  0 Multiplicity = 2

                         Standard orientation:
 ---------------------------------------------------------------------
 Center     Atomic      Atomic             Coordinates (Angstroms)
 Number     Number       Type             X           Y           Z
 ---------------------------------------------------------------------
      1         11           0        0.182991   -1.157253   -1.549859
      2         11           0       -0.146561   -0.241004    1.744312
      3         11           0       -3.357191    0.955685    0.237315
      4         11           0       -0.395284    2.677413   -0.110330
      5         11           0        3.649867   -1.134954    0.783188
      6         11           0        2.571742    1.148206   -0.853580
      7         11           0       -2.505564   -2.248093   -0.251047
 ---------------------------------------------------------------------

 SCF Done:  E(UB3LYP) =  -1136.12308332     A.U. after   22 cycles

 The electronic state is 2-A.
 Alpha  occ. eigenvalues --  -38.45044 -38.44992 -38.44629 -38.43974 -38.43582
 Alpha  occ. eigenvalues --  -38.43374 -38.42478  -2.20856  -2.20837  -2.20459
 Alpha  occ. eigenvalues --   -2.19881  -2.19477  -2.19234  -2.18328  -1.14550
 Alpha  occ. eigenvalues --   -1.14534  -1.14507  -1.14497  -1.14483  -1.14438
 Alpha  occ. eigenvalues --   -1.14179  -1.14092  -1.14076  -1.13557  -1.13529
 Alpha  occ. eigenvalues --   -1.13520  -1.13172  -1.13124  -1.13106  -1.12896
 Alpha  occ. eigenvalues --   -1.12886  -1.12875  -1.12013  -1.11995  -1.11969
 Alpha  occ. eigenvalues --   -0.18319  -0.14144  -0.11681  -0.10599
 Alpha virt. eigenvalues --   -0.07165  -0.05291  -0.04447  -0.03338  -0.02784
 Alpha virt. eigenvalues --   -0.02463  -0.02200  -0.01355  -0.00529  -0.00291
 Alpha virt. eigenvalues --   -0.00039   0.00139   0.00411   0.00597   0.00763

  Beta  occ. eigenvalues --  -38.45039 -38.44949 -38.44588 -38.43951 -38.43517
  Beta  occ. eigenvalues --  -38.43372 -38.42473  -2.20848  -2.20758  -2.20383
  Beta  occ. eigenvalues --   -2.19845  -2.19359  -2.19233  -2.18322  -1.14520
  Beta  occ. eigenvalues --   -1.14504  -1.14495  -1.14485  -1.14433  -1.14377
  Beta  occ. eigenvalues --   -1.14132  -1.14032  -1.14025  -1.13519  -1.13499
  Beta  occ. eigenvalues --   -1.13480  -1.13095  -1.13044  -1.13020  -1.12899
  Beta  occ. eigenvalues --   -1.12873  -1.12857  -1.12011  -1.11994  -1.11942
  Beta  occ. eigenvalues --   -0.17703  -0.13846  -0.11430
  Beta virt. eigenvalues --   -0.07089  -0.06829  -0.05157  -0.03956  -0.03059
  Beta virt. eigenvalues --   -0.02553  -0.01878  -0.01464  -0.01214  -0.00446
  Beta virt. eigenvalues --   -0.00119   0.00028   0.00193   0.00581   0.00730

 Mulliken charges and spin densities:
               1          2
     1  Na  -0.408914   0.287539
     2  Na  -0.398622   0.404988
     3  Na   0.044297   0.043952
     4  Na  -0.180499  -0.028889
     5  Na   0.019762   0.180079
     6  Na   0.518783   0.160979
     7  Na   0.405193  -0.048648
 Sum of Mulliken charges =  -0.00000   1.00000

 Dipole moment (field-independent basis, Debye):
    X=             -0.3187    Y=             -0.2406    Z=              0.1491  Tot=              0.4263
 Quadrupole moment (field-independent basis, Debye-Ang):
   XX=            -49.8703   YY=            -72.7254   ZZ=            -73.0727
   XY=             -0.2406   XZ=             -0.3371   YZ=             -2.6162

 Normal termination of Gaussian 16 at Tue Dec  5 20:19:08 2023.
