 Gaussian 16, Revision B.01,
 Gaussian 16:  ES64L-G16RevB.01 20-Dec-2017

 -------------------------
 #P B3LYP/6-311+g(d) force
 -------------------------

 -----
 DPGEN
 -----
 Symbolic Z-matrix:
 Charge =  0 Multiplicity = 2

                         Standard orientation:
 ---------------------------------------------------------------------
 Center     Atomic      Atomic             Coordinates (Angstroms)
 Number     Number       Type             X           Y           Z
 ---------------------------------------------------------------------
      1         11           0        2.644263    1.275401   -0.215412
      2         11           0       -0.351932    3.067613   -0.291817
      3         11           0       -3.097733   -1.006313   -0.368131
      4         11           0        5.309577   -0.913442   -0.437654
      5         11           0       -6.435526   -0.612253   -0.308878
      6         11           0       -0.283208    0.196095    1.573117
      7         11           0        2.214559   -2.007100    0.048776
 ---------------------------------------------------------------------

 SCF Done:  E(UB3LYP) =  -1136.12044630     A.U. after   20 cycles

 The electronic state is 2-A.
 Alpha  occ. eigenvalues --  -38.44668 -38.44368 -38.44314 -38.44169 -38.44157
 Alpha  occ. eigenvalues --  -38.43721 -38.43560  -2.20521  -2.20191  -2.20188
 Alpha  occ. eigenvalues --   -2.20026  -2.19970  -2.19494  -2.19331  -1.14215
 Alpha  occ. eigenvalues --   -1.14194  -1.14130  -1.13896  -1.13892  -1.13859
 Alpha  occ. eigenvalues --   -1.13845  -1.13820  -1.13757  -1.13703  -1.13690
 Alpha  occ. eigenvalues --   -1.13663  -1.13629  -1.13610  -1.13575  -1.13149
 Alpha  occ. eigenvalues --   -1.13148  -1.13132  -1.13020  -1.13011  -1.12950
 Alpha  occ. eigenvalues --   -0.17253  -0.13687  -0.12157  -0.10972
 Alpha virt. eigenvalues --   -0.06258  -0.05587  -0.05168  -0.03302  -0.02837
 Alpha virt. eigenvalues --   -0.02337  -0.02150  -0.01471  -0.01124  -0.00971
 Alpha virt. eigenvalues --   -0.00409  -0.00041   0.00075   0.00368   0.00556

  Beta  occ. eigenvalues --  -38.44628 -38.44352 -38.44288 -38.44130 -38.44120
  Beta  occ. eigenvalues --  -38.43684 -38.43569  -2.20448  -2.20158  -2.20145
  Beta  occ. eigenvalues --   -2.19957  -2.19901  -2.19425  -2.19352  -1.14171
  Beta  occ. eigenvalues --   -1.14146  -1.14057  -1.13867  -1.13846  -1.13830
  Beta  occ. eigenvalues --   -1.13823  -1.13799  -1.13723  -1.13662  -1.13640
  Beta  occ. eigenvalues --   -1.13603  -1.13580  -1.13555  -1.13528  -1.13102
  Beta  occ. eigenvalues --   -1.13101  -1.13091  -1.13036  -1.13028  -1.12938
  Beta  occ. eigenvalues --   -0.16607  -0.13531  -0.11645
  Beta virt. eigenvalues --   -0.07549  -0.05951  -0.05130  -0.04851  -0.03025
  Beta virt. eigenvalues --   -0.02543  -0.02193  -0.01750  -0.01322  -0.00889
  Beta virt. eigenvalues --   -0.00540  -0.00160   0.00092   0.00248   0.00444

 Mulliken charges and spin densities:
               1          2
     1  Na  -0.805770   0.263055
     2  Na   0.343809   0.080558
     3  Na  -0.515189  -0.098102
     4  Na   0.906594   0.141009
     5  Na   0.502749   0.213513
     6  Na  -0.205886   0.390530
     7  Na  -0.226306   0.009437
 Sum of Mulliken charges =  -0.00000   1.00000

 Dipole moment (field-independent basis, Debye):
    X=              2.0696    Y=              0.3013    Z=              0.0508  Tot=              2.0920
 Quadrupole moment (field-independent basis, Debye-Ang):
   XX=            -58.6464   YY=            -68.1813   ZZ=            -70.6046
   XY=             -7.7792   XZ=             -1.2272   YZ=              0.1167

 Normal termination of Gaussian 16 at Tue Nov 28 19:18:00 2023.
