 Gaussian 16, Revision B.01,
 Gaussian 16:  ES64L-G16RevB.01 20-Dec-2017

 -------------------------
 #P B3LYP/6-311+g(d) force
 -------------------------

 -----
 DPGEN
 -----
 Symbolic Z-matrix:
 Charge =  0 Multiplicity = 2

                         Standard orientation:
 ---------------------------------------------------------------------
 Center     Atomic      Atomic             Coordinates (Angstroms)
 Number     Number       Type             X           Y           Z
 ---------------------------------------------------------------------
      1         11           0       -0.034493    3.003569    0.028014
      2         11           0       -3.007235    0.656408   -0.315503
      3         11           0       -1.984171   -2.188502    0.316705
      4         11           0        0.067499    0.419836    1.629041
      5         11           0        2.032842   -2.293186    0.136879
      6         11           0        0.007761   -0.410981   -1.556753
      7         11           0        2.917797    0.812856   -0.238384
 ---------------------------------------------------------------------

 SCF Done:  E(UB3LYP) =  -1136.13490288     A.U. after   20 cycles

 The electronic state is 2-A.
 Alpha  occ. eigenvalues --  -38.44101 -38.44097 -38.43645 -38.43644 -38.43279
 Alpha  occ. eigenvalues --  -38.42955 -38.42806  -2.19975  -2.19970  -2.19533
 Alpha  occ. eigenvalues --   -2.19509  -2.19140  -2.18968  -2.18814  -1.13673
 Alpha  occ. eigenvalues --   -1.13658  -1.13647  -1.13634  -1.13606  -1.13602
 Alpha  occ. eigenvalues --   -1.13214  -1.13195  -1.13185  -1.13166  -1.13165
 Alpha  occ. eigenvalues --   -1.13143  -1.12885  -1.12790  -1.12763  -1.12684
 Alpha  occ. eigenvalues --   -1.12594  -1.12583  -1.12489  -1.12426  -1.12423
 Alpha  occ. eigenvalues --   -0.19041  -0.13520  -0.12472  -0.10239
 Alpha virt. eigenvalues --   -0.05752  -0.05260  -0.04749  -0.03195  -0.02636
 Alpha virt. eigenvalues --   -0.01901  -0.01676  -0.01187  -0.00416  -0.00351
 Alpha virt. eigenvalues --    0.00053   0.00358   0.00800   0.00870   0.00887

  Beta  occ. eigenvalues --  -38.44092 -38.44088 -38.43639 -38.43635 -38.43275
  Beta  occ. eigenvalues --  -38.42892 -38.42732  -2.19963  -2.19956  -2.19520
  Beta  occ. eigenvalues --   -2.19504  -2.19135  -2.18853  -2.18680  -1.13668
  Beta  occ. eigenvalues --   -1.13653  -1.13618  -1.13608  -1.13595  -1.13585
  Beta  occ. eigenvalues --   -1.13207  -1.13189  -1.13169  -1.13156  -1.13139
  Beta  occ. eigenvalues --   -1.13125  -1.12870  -1.12769  -1.12763  -1.12601
  Beta  occ. eigenvalues --   -1.12512  -1.12496  -1.12397  -1.12330  -1.12327
  Beta  occ. eigenvalues --   -0.18333  -0.13255  -0.12227
  Beta virt. eigenvalues --   -0.06376  -0.05707  -0.05245  -0.04717  -0.02392
  Beta virt. eigenvalues --   -0.01910  -0.01576  -0.01113  -0.00955  -0.00451
  Beta virt. eigenvalues --   -0.00371   0.00188   0.00397   0.00843   0.00874

 Mulliken charges and spin densities:
               1          2
     1  Na   0.133751  -0.088119
     2  Na   0.152959   0.007126
     3  Na   0.120026   0.011443
     4  Na  -0.394013   0.644942
     5  Na   0.144877  -0.020562
     6  Na  -0.314756   0.487304
     7  Na   0.157156  -0.042134
 Sum of Mulliken charges =  -0.00000   1.00000

 Dipole moment (field-independent basis, Debye):
    X=              0.0504    Y=             -0.0238    Z=             -0.0197  Tot=              0.0592
 Quadrupole moment (field-independent basis, Debye-Ang):
   XX=            -54.1299   YY=            -60.7410   ZZ=            -76.8661
   XY=             -0.3235   XZ=             -0.0170   YZ=             -2.2451

 Normal termination of Gaussian 16 at Wed Nov 29 00:04:05 2023.
