 Gaussian 16, Revision B.01,
 Gaussian 16:  ES64L-G16RevB.01 20-Dec-2017

 -------------------------
 #P B3LYP/6-311+g(d) force
 -------------------------

 -----
 DPGEN
 -----
 Symbolic Z-matrix:
 Charge =  0 Multiplicity = 2

                         Standard orientation:
 ---------------------------------------------------------------------
 Center     Atomic      Atomic             Coordinates (Angstroms)
 Number     Number       Type             X           Y           Z
 ---------------------------------------------------------------------
      1         11           0       -2.222572   -0.135352    1.573244
      2         11           0       -0.025871   -1.598007   -0.499341
      3         11           0        2.496774    1.538512   -0.994178
      4         11           0       -0.844363    2.044680   -0.749477
      5         11           0       -4.296482   -0.677841   -0.929641
      6         11           0        3.521705   -1.749407   -0.396817
      7         11           0        1.370808    0.577416    1.996212
 ---------------------------------------------------------------------

 SCF Done:  E(UB3LYP) =  -1136.12307184     A.U. after   25 cycles

 The electronic state is 2-A.
 Alpha  occ. eigenvalues --  -38.44797 -38.44740 -38.44366 -38.44015 -38.43872
 Alpha  occ. eigenvalues --  -38.43217 -38.43146  -2.20613  -2.20532  -2.20230
 Alpha  occ. eigenvalues --   -2.19913  -2.19744  -2.19069  -2.18958  -1.14334
 Alpha  occ. eigenvalues --   -1.14308  -1.14210  -1.14203  -1.14178  -1.14151
 Alpha  occ. eigenvalues --   -1.13908  -1.13894  -1.13838  -1.13606  -1.13573
 Alpha  occ. eigenvalues --   -1.13526  -1.13432  -1.13404  -1.13349  -1.12771
 Alpha  occ. eigenvalues --   -1.12726  -1.12672  -1.12627  -1.12620  -1.12597
 Alpha  occ. eigenvalues --   -0.18227  -0.14114  -0.11154  -0.11007
 Alpha virt. eigenvalues --   -0.06992  -0.05177  -0.04865  -0.03159  -0.02753
 Alpha virt. eigenvalues --   -0.02391  -0.02145  -0.01441  -0.01014  -0.00311
 Alpha virt. eigenvalues --   -0.00019   0.00194   0.00294   0.00554   0.00652

  Beta  occ. eigenvalues --  -38.44802 -38.44697 -38.44318 -38.43982 -38.43837
  Beta  occ. eigenvalues --  -38.43189 -38.43140  -2.20626  -2.20450  -2.20145
  Beta  occ. eigenvalues --   -2.19858  -2.19679  -2.19019  -2.18947  -1.14322
  Beta  occ. eigenvalues --   -1.14308  -1.14228  -1.14147  -1.14120  -1.14098
  Beta  occ. eigenvalues --   -1.13847  -1.13816  -1.13782  -1.13570  -1.13540
  Beta  occ. eigenvalues --   -1.13451  -1.13383  -1.13365  -1.13295  -1.12737
  Beta  occ. eigenvalues --   -1.12679  -1.12640  -1.12617  -1.12609  -1.12591
  Beta  occ. eigenvalues --   -0.17581  -0.13768  -0.10853
  Beta virt. eigenvalues --   -0.07347  -0.06746  -0.05066  -0.04276  -0.02910
  Beta virt. eigenvalues --   -0.02639  -0.01858  -0.01606  -0.01222  -0.00571
  Beta virt. eigenvalues --   -0.00141   0.00048   0.00239   0.00400   0.00652

 Mulliken charges and spin densities:
               1          2
     1  Na   0.403429   0.162793
     2  Na  -0.934489  -0.051296
     3  Na   0.175158   0.244824
     4  Na  -0.420853   0.175379
     5  Na   0.433850   0.292157
     6  Na   0.322689   0.015800
     7  Na   0.020216   0.160343
 Sum of Mulliken charges =  -0.00000   1.00000

 Dipole moment (field-independent basis, Debye):
    X=             -0.5581    Y=              0.3033    Z=              0.3575  Tot=              0.7288
 Quadrupole moment (field-independent basis, Debye-Ang):
   XX=            -53.6242   YY=            -77.1869   ZZ=            -66.3533
   XY=              1.7948   XZ=              2.7949   YZ=              0.6958

 Normal termination of Gaussian 16 at Thu Dec  7 07:06:06 2023.
