 Gaussian 16, Revision B.01,
 Gaussian 16:  ES64L-G16RevB.01 20-Dec-2017

 -------------------------
 #P B3LYP/6-311+g(d) force
 -------------------------

 -----
 DPGEN
 -----
 Symbolic Z-matrix:
 Charge =  0 Multiplicity = 2

                         Standard orientation:
 ---------------------------------------------------------------------
 Center     Atomic      Atomic             Coordinates (Angstroms)
 Number     Number       Type             X           Y           Z
 ---------------------------------------------------------------------
      1         11           0        3.494784   -0.734684   -1.036829
      2         11           0        0.564119    2.723428   -0.460520
      3         11           0       -2.328396    1.591408   -1.306045
      4         11           0       -2.388165   -2.571801   -0.160517
      5         11           0       -1.806838    0.369694    1.654498
      6         11           0        1.832240    0.111684    2.183757
      7         11           0        0.632255   -1.489730   -0.874343
 ---------------------------------------------------------------------

 SCF Done:  E(UB3LYP) =  -1136.12741491     A.U. after   21 cycles

 The electronic state is 2-A.
 Alpha  occ. eigenvalues --  -38.44449 -38.44268 -38.44245 -38.43985 -38.43668
 Alpha  occ. eigenvalues --  -38.43258 -38.43238  -2.20274  -2.20107  -2.20106
 Alpha  occ. eigenvalues --   -2.19835  -2.19475  -2.19168  -2.19052  -1.13946
 Alpha  occ. eigenvalues --   -1.13918  -1.13882  -1.13839  -1.13796  -1.13785
 Alpha  occ. eigenvalues --   -1.13740  -1.13716  -1.13715  -1.13511  -1.13495
 Alpha  occ. eigenvalues --   -1.13449  -1.13158  -1.13130  -1.13101  -1.12854
 Alpha  occ. eigenvalues --   -1.12828  -1.12824  -1.12714  -1.12702  -1.12686
 Alpha  occ. eigenvalues --   -0.17862  -0.13340  -0.11885  -0.11361
 Alpha virt. eigenvalues --   -0.05832  -0.05020  -0.04855  -0.03653  -0.02917
 Alpha virt. eigenvalues --   -0.02670  -0.01618  -0.01059  -0.00693  -0.00116
 Alpha virt. eigenvalues --    0.00190   0.00287   0.00344   0.00511   0.00716

  Beta  occ. eigenvalues --  -38.44371 -38.44245 -38.44207 -38.43957 -38.43659
  Beta  occ. eigenvalues --  -38.43241 -38.43237  -2.20131  -2.20065  -2.20040
  Beta  occ. eigenvalues --   -2.19783  -2.19461  -2.19132  -2.19058  -1.13846
  Beta  occ. eigenvalues --   -1.13823  -1.13805  -1.13774  -1.13747  -1.13724
  Beta  occ. eigenvalues --   -1.13710  -1.13686  -1.13671  -1.13470  -1.13463
  Beta  occ. eigenvalues --   -1.13411  -1.13141  -1.13112  -1.13091  -1.12823
  Beta  occ. eigenvalues --   -1.12802  -1.12799  -1.12711  -1.12703  -1.12688
  Beta  occ. eigenvalues --   -0.17200  -0.13118  -0.11676
  Beta virt. eigenvalues --   -0.07476  -0.05714  -0.04879  -0.04225  -0.03448
  Beta virt. eigenvalues --   -0.02287  -0.01934  -0.01544  -0.00945  -0.00312
  Beta virt. eigenvalues --   -0.00056   0.00307   0.00373   0.00437   0.00632

 Mulliken charges and spin densities:
               1          2
     1  Na   0.885746  -0.056576
     2  Na  -0.313619   0.151646
     3  Na   0.146732   0.069820
     4  Na   0.677498  -0.107773
     5  Na   0.163578   0.284604
     6  Na   0.099926   0.266292
     7  Na  -1.659863   0.391986
 Sum of Mulliken charges =  -0.00000   1.00000

 Dipole moment (field-independent basis, Debye):
    X=              0.3846    Y=              0.3182    Z=              0.0672  Tot=              0.5037
 Quadrupole moment (field-independent basis, Debye-Ang):
   XX=            -55.3085   YY=            -72.7613   ZZ=            -67.4245
   XY=              2.0406   XZ=              0.1874   YZ=             -0.2775

 Normal termination of Gaussian 16 at Sun Dec  3 17:49:08 2023.
