 Gaussian 16, Revision B.01,
 Gaussian 16:  ES64L-G16RevB.01 20-Dec-2017

 -------------------------
 #P B3LYP/6-311+g(d) force
 -------------------------

 -----
 DPGEN
 -----
 Symbolic Z-matrix:
 Charge =  0 Multiplicity = 2

                         Standard orientation:
 ---------------------------------------------------------------------
 Center     Atomic      Atomic             Coordinates (Angstroms)
 Number     Number       Type             X           Y           Z
 ---------------------------------------------------------------------
      1         11           0        0.410083    2.366038    0.633501
      2         11           0        2.208032   -2.447876    0.534438
      3         11           0       -2.748462    1.702765   -0.346797
      4         11           0       -2.590685   -1.632130   -1.172383
      5         11           0        0.476341   -0.624138   -1.128131
      6         11           0       -1.212232   -0.639805    2.143210
      7         11           0        3.456922    1.275146   -0.663838
 ---------------------------------------------------------------------

 SCF Done:  E(UB3LYP) =  -1136.12666409     A.U. after   22 cycles

 The electronic state is 2-A.
 Alpha  occ. eigenvalues --  -38.44344 -38.44333 -38.44279 -38.44156 -38.43930
 Alpha  occ. eigenvalues --  -38.43231 -38.42891  -2.20136  -2.20131  -2.20106
 Alpha  occ. eigenvalues --   -2.19995  -2.19783  -2.19201  -2.18744  -1.13858
 Alpha  occ. eigenvalues --   -1.13809  -1.13783  -1.13781  -1.13781  -1.13766
 Alpha  occ. eigenvalues --   -1.13764  -1.13755  -1.13748  -1.13664  -1.13630
 Alpha  occ. eigenvalues --   -1.13600  -1.13473  -1.13414  -1.13406  -1.12899
 Alpha  occ. eigenvalues --   -1.12869  -1.12820  -1.12442  -1.12416  -1.12363
 Alpha  occ. eigenvalues --   -0.18077  -0.13427  -0.11803  -0.10839
 Alpha virt. eigenvalues --   -0.06126  -0.05825  -0.04166  -0.03243  -0.02789
 Alpha virt. eigenvalues --   -0.02481  -0.01964  -0.01440  -0.00567  -0.00271
 Alpha virt. eigenvalues --    0.00061   0.00262   0.00433   0.00642   0.00669

  Beta  occ. eigenvalues --  -38.44331 -38.44328 -38.44272 -38.44068 -38.43886
  Beta  occ. eigenvalues --  -38.43212 -38.42884  -2.20126  -2.20108  -2.20095
  Beta  occ. eigenvalues --   -2.19832  -2.19704  -2.19169  -2.18733  -1.13855
  Beta  occ. eigenvalues --   -1.13789  -1.13777  -1.13772  -1.13766  -1.13754
  Beta  occ. eigenvalues --   -1.13751  -1.13737  -1.13728  -1.13551  -1.13520
  Beta  occ. eigenvalues --   -1.13481  -1.13414  -1.13361  -1.13344  -1.12858
  Beta  occ. eigenvalues --   -1.12846  -1.12797  -1.12438  -1.12402  -1.12342
  Beta  occ. eigenvalues --   -0.17434  -0.13141  -0.11588
  Beta virt. eigenvalues --   -0.07085  -0.05936  -0.05640  -0.03925  -0.02870
  Beta virt. eigenvalues --   -0.02194  -0.01866  -0.01474  -0.01350  -0.00441
  Beta virt. eigenvalues --   -0.00037   0.00071   0.00324   0.00554   0.00688

 Mulliken charges and spin densities:
               1          2
     1  Na  -0.498790   0.064464
     2  Na  -0.228656   0.119038
     3  Na   0.141244   0.041933
     4  Na   0.356331   0.347649
     5  Na  -0.195053  -0.087690
     6  Na  -0.129821   0.518221
     7  Na   0.554745  -0.003614
 Sum of Mulliken charges =  -0.00000   1.00000

 Dipole moment (field-independent basis, Debye):
    X=              0.1355    Y=             -0.2594    Z=              0.2735  Tot=              0.4005
 Quadrupole moment (field-independent basis, Debye-Ang):
   XX=            -52.0759   YY=            -68.7624   ZZ=            -71.9156
   XY=             -1.2138   XZ=              0.5305   YZ=             -1.9274

 Normal termination of Gaussian 16 at Thu Dec  7 04:46:13 2023.
