 Gaussian 16, Revision B.01,
 Gaussian 16:  ES64L-G16RevB.01 20-Dec-2017

 -------------------------
 #P B3LYP/6-311+g(d) force
 -------------------------

 -----
 DPGEN
 -----
 Symbolic Z-matrix:
 Charge =  0 Multiplicity = 2

                         Standard orientation:
 ---------------------------------------------------------------------
 Center     Atomic      Atomic             Coordinates (Angstroms)
 Number     Number       Type             X           Y           Z
 ---------------------------------------------------------------------
      1         11           0       -1.028686   -0.123207    2.099153
      2         11           0        2.125841   -0.724585    1.984286
      3         11           0        3.069256    0.976045   -1.332591
      4         11           0        0.066290    2.743500   -0.293143
      5         11           0       -2.882218    1.398038   -0.419427
      6         11           0        1.460820   -2.279478   -1.144281
      7         11           0       -2.811304   -1.990312   -0.893997
 ---------------------------------------------------------------------

 SCF Done:  E(UB3LYP) =  -1136.12323522     A.U. after   23 cycles

 The electronic state is 2-A.
 Alpha  occ. eigenvalues --  -38.44666 -38.44611 -38.44448 -38.44444 -38.44079
 Alpha  occ. eigenvalues --  -38.43886 -38.42972  -2.20519  -2.20451  -2.20237
 Alpha  occ. eigenvalues --   -2.20213  -2.19855  -2.19735  -2.18778  -1.14252
 Alpha  occ. eigenvalues --   -1.14158  -1.14145  -1.14097  -1.14088  -1.14058
 Alpha  occ. eigenvalues --   -1.13918  -1.13894  -1.13882  -1.13872  -1.13865
 Alpha  occ. eigenvalues --   -1.13829  -1.13535  -1.13504  -1.13497  -1.13414
 Alpha  occ. eigenvalues --   -1.13406  -1.13355  -1.12466  -1.12444  -1.12416
 Alpha  occ. eigenvalues --   -0.17383  -0.13547  -0.11858  -0.11541
 Alpha virt. eigenvalues --   -0.06053  -0.05395  -0.05072  -0.03567  -0.03087
 Alpha virt. eigenvalues --   -0.02877  -0.01467  -0.00883  -0.00755  -0.00466
 Alpha virt. eigenvalues --   -0.00203   0.00204   0.00385   0.00426   0.00502

  Beta  occ. eigenvalues --  -38.44591 -38.44551 -38.44425 -38.44415 -38.44056
  Beta  occ. eigenvalues --  -38.43882 -38.42974  -2.20386  -2.20345  -2.20179
  Beta  occ. eigenvalues --   -2.20173  -2.19813  -2.19727  -2.18783  -1.14149
  Beta  occ. eigenvalues --   -1.14067  -1.14054  -1.14024  -1.14011  -1.13960
  Beta  occ. eigenvalues --   -1.13874  -1.13861  -1.13847  -1.13842  -1.13828
  Beta  occ. eigenvalues --   -1.13798  -1.13503  -1.13477  -1.13469  -1.13408
  Beta  occ. eigenvalues --   -1.13397  -1.13348  -1.12468  -1.12443  -1.12418
  Beta  occ. eigenvalues --   -0.16705  -0.13305  -0.11383
  Beta virt. eigenvalues --   -0.07911  -0.05828  -0.05231  -0.04541  -0.03370
  Beta virt. eigenvalues --   -0.02528  -0.02122  -0.01354  -0.00776  -0.00590
  Beta virt. eigenvalues --   -0.00207  -0.00139   0.00435   0.00458   0.00506

 Mulliken charges and spin densities:
               1          2
     1  Na  -0.240533   0.282604
     2  Na   0.261186   0.146314
     3  Na   0.146807   0.131030
     4  Na  -0.432717   0.031983
     5  Na   0.668138   0.051553
     6  Na  -0.309610   0.252185
     7  Na  -0.093270   0.104331
 Sum of Mulliken charges =  -0.00000   1.00000

 Dipole moment (field-independent basis, Debye):
    X=              0.3514    Y=             -0.4154    Z=             -0.0782  Tot=              0.5497
 Quadrupole moment (field-independent basis, Debye-Ang):
   XX=            -58.4625   YY=            -73.0702   ZZ=            -67.2066
   XY=             -0.2759   XZ=              0.6286   YZ=              1.0613

 Normal termination of Gaussian 16 at Wed Nov 29 00:22:29 2023.
