 Gaussian 16, Revision B.01,
 Gaussian 16:  ES64L-G16RevB.01 20-Dec-2017

 -------------------------
 #P B3LYP/6-311+g(d) force
 -------------------------

 -----
 DPGEN
 -----
 Symbolic Z-matrix:
 Charge =  0 Multiplicity = 2

                         Standard orientation:
 ---------------------------------------------------------------------
 Center     Atomic      Atomic             Coordinates (Angstroms)
 Number     Number       Type             X           Y           Z
 ---------------------------------------------------------------------
      1         11           0       -2.726612    1.259660   -1.349211
      2         11           0       -1.620043    0.042076    1.974535
      3         11           0        0.159510   -0.783111   -0.428670
      4         11           0       -3.059831   -1.780983   -0.099534
      5         11           0        1.111940    2.444633   -0.558826
      6         11           0        2.565883    0.319343    1.736958
      7         11           0        3.569153   -1.501618   -1.275253
 ---------------------------------------------------------------------

 SCF Done:  E(UB3LYP) =  -1136.11829952     A.U. after   26 cycles

 The electronic state is 2-A.
 Alpha  occ. eigenvalues --  -38.44859 -38.44607 -38.44241 -38.43931 -38.43765
 Alpha  occ. eigenvalues --  -38.43725 -38.42949  -2.20683  -2.20520  -2.20080
 Alpha  occ. eigenvalues --   -2.19824  -2.19699  -2.19559  -2.18759  -1.14368
 Alpha  occ. eigenvalues --   -1.14344  -1.14299  -1.14245  -1.14150  -1.14125
 Alpha  occ. eigenvalues --   -1.13758  -1.13734  -1.13698  -1.13493  -1.13488
 Alpha  occ. eigenvalues --   -1.13458  -1.13446  -1.13347  -1.13310  -1.13220
 Alpha  occ. eigenvalues --   -1.13210  -1.13175  -1.12454  -1.12421  -1.12388
 Alpha  occ. eigenvalues --   -0.18346  -0.14321  -0.11096  -0.10771
 Alpha virt. eigenvalues --   -0.06309  -0.05728  -0.05177  -0.03098  -0.02535
 Alpha virt. eigenvalues --   -0.02383  -0.02005  -0.01184  -0.00916  -0.00152
 Alpha virt. eigenvalues --   -0.00113   0.00159   0.00248   0.00330   0.00614

  Beta  occ. eigenvalues --  -38.44842 -38.44537 -38.44197 -38.43929 -38.43721
  Beta  occ. eigenvalues --  -38.43710 -38.42955  -2.20652  -2.20392  -2.19998
  Beta  occ. eigenvalues --   -2.19824  -2.19677  -2.19478  -2.18772  -1.14342
  Beta  occ. eigenvalues --   -1.14327  -1.14263  -1.14160  -1.14050  -1.14034
  Beta  occ. eigenvalues --   -1.13696  -1.13683  -1.13645  -1.13495  -1.13476
  Beta  occ. eigenvalues --   -1.13440  -1.13378  -1.13339  -1.13302  -1.13163
  Beta  occ. eigenvalues --   -1.13155  -1.13125  -1.12462  -1.12417  -1.12400
  Beta  occ. eigenvalues --   -0.17709  -0.14038  -0.10500
  Beta virt. eigenvalues --   -0.07464  -0.06075  -0.05376  -0.04706  -0.02801
  Beta virt. eigenvalues --   -0.02354  -0.01886  -0.01544  -0.00916  -0.00577
  Beta virt. eigenvalues --   -0.00098   0.00161   0.00216   0.00362   0.00429

 Mulliken charges and spin densities:
               1          2
     1  Na   0.014275   0.135517
     2  Na   0.315692   0.319789
     3  Na  -2.904769   0.335005
     4  Na   1.970259   0.081092
     5  Na  -0.208338  -0.072800
     6  Na   0.562346   0.081905
     7  Na   0.250535   0.119493
 Sum of Mulliken charges =  -0.00000   1.00000

 Dipole moment (field-independent basis, Debye):
    X=             -0.4825    Y=              0.3147    Z=              0.5878  Tot=              0.8230
 Quadrupole moment (field-independent basis, Debye-Ang):
   XX=            -53.0077   YY=            -75.9764   ZZ=            -66.1508
   XY=              3.1855   XZ=              2.7917   YZ=              2.6636

 Normal termination of Gaussian 16 at Tue Dec  5 23:30:01 2023.
