 Gaussian 16, Revision B.01,
 Gaussian 16:  ES64L-G16RevB.01 20-Dec-2017

 -------------------------
 #P B3LYP/6-311+g(d) force
 -------------------------

 -----
 DPGEN
 -----
 Symbolic Z-matrix:
 Charge =  0 Multiplicity = 2

                         Standard orientation:
 ---------------------------------------------------------------------
 Center     Atomic      Atomic             Coordinates (Angstroms)
 Number     Number       Type             X           Y           Z
 ---------------------------------------------------------------------
      1         11           0       -2.875494   -3.210200   -0.406456
      2         11           0        3.307446    1.833868   -0.244411
      3         11           0        1.253818   -3.688733    0.020831
      4         11           0        4.005225   -1.941386    0.446892
      5         11           0       -2.468863    2.909217    0.821558
      6         11           0        0.926956    4.193542   -0.551006
      7         11           0       -4.149087   -0.096308   -0.087408
 ---------------------------------------------------------------------

 SCF Done:  E(UB3LYP) =  -1136.10645878     A.U. after   22 cycles

 The electronic state is 2-A.
 Alpha  occ. eigenvalues --  -38.45533 -38.45088 -38.44680 -38.44589 -38.44569
 Alpha  occ. eigenvalues --  -38.44317 -38.44009  -2.21281  -2.20854  -2.20445
 Alpha  occ. eigenvalues --   -2.20354  -2.20348  -2.20105  -2.19799  -1.14961
 Alpha  occ. eigenvalues --   -1.14950  -1.14918  -1.14527  -1.14517  -1.14478
 Alpha  occ. eigenvalues --   -1.14131  -1.14124  -1.14100  -1.14029  -1.14017
 Alpha  occ. eigenvalues --   -1.14007  -1.14000  -1.13993  -1.13958  -1.13766
 Alpha  occ. eigenvalues --   -1.13757  -1.13750  -1.13451  -1.13440  -1.13430
 Alpha  occ. eigenvalues --   -0.15224  -0.13811  -0.13556  -0.11011
 Alpha virt. eigenvalues --   -0.07880  -0.04877  -0.04738  -0.03511  -0.03392
 Alpha virt. eigenvalues --   -0.02322  -0.02274  -0.01922  -0.01837  -0.00919
 Alpha virt. eigenvalues --   -0.00654  -0.00206  -0.00105   0.00276   0.00419

  Beta  occ. eigenvalues --  -38.45521 -38.45048 -38.44684 -38.44587 -38.44492
  Beta  occ. eigenvalues --  -38.44293 -38.43942  -2.21262  -2.20782  -2.20458
  Beta  occ. eigenvalues --   -2.20354  -2.20206  -2.20063  -2.19675  -1.14951
  Beta  occ. eigenvalues --   -1.14941  -1.14878  -1.14479  -1.14470  -1.14417
  Beta  occ. eigenvalues --   -1.14146  -1.14138  -1.14062  -1.14032  -1.14020
  Beta  occ. eigenvalues --   -1.13974  -1.13909  -1.13900  -1.13863  -1.13738
  Beta  occ. eigenvalues --   -1.13729  -1.13715  -1.13366  -1.13359  -1.13348
  Beta  occ. eigenvalues --   -0.14683  -0.13110  -0.12854
  Beta virt. eigenvalues --   -0.08042  -0.07833  -0.04452  -0.04169  -0.03329
  Beta virt. eigenvalues --   -0.03086  -0.02128  -0.02106  -0.01790  -0.01680
  Beta virt. eigenvalues --   -0.00576  -0.00343   0.00057   0.00156   0.00274

 Mulliken charges and spin densities:
               1          2
     1  Na   0.240237   0.353438
     2  Na  -0.109218   0.210251
     3  Na  -0.218814   0.135647
     4  Na   0.426681   0.083971
     5  Na  -0.294501   0.330226
     6  Na   0.100225  -0.100015
     7  Na  -0.144610  -0.013518
 Sum of Mulliken charges =  -0.00000   1.00000

 Dipole moment (field-independent basis, Debye):
    X=              0.7740    Y=              0.0428    Z=              0.0063  Tot=              0.7752
 Quadrupole moment (field-independent basis, Debye-Ang):
   XX=            -63.8922   YY=            -62.2529   ZZ=            -74.0130
   XY=             -1.2535   XZ=              1.0615   YZ=             -0.1116

 Normal termination of Gaussian 16 at Mon Dec  4 01:39:45 2023.
