 Gaussian 16, Revision B.01,
 Gaussian 16:  ES64L-G16RevB.01 20-Dec-2017

 -------------------------
 #P B3LYP/6-311+g(d) force
 -------------------------

 -----
 DPGEN
 -----
 Symbolic Z-matrix:
 Charge =  0 Multiplicity = 2

                         Standard orientation:
 ---------------------------------------------------------------------
 Center     Atomic      Atomic             Coordinates (Angstroms)
 Number     Number       Type             X           Y           Z
 ---------------------------------------------------------------------
      1         11           0        3.002140    1.009661    0.140630
      2         11           0       -2.870230    1.061721   -0.068973
      3         11           0       -1.852448   -2.221893   -0.529224
      4         11           0        2.263258   -2.135377   -0.131133
      5         11           0       -0.067086   -0.228553   -1.411267
      6         11           0        0.135275    3.020667   -0.236688
      7         11           0       -0.610907   -0.506225    2.236656
 ---------------------------------------------------------------------

 SCF Done:  E(UB3LYP) =  -1136.13159134     A.U. after   19 cycles

 The electronic state is 2-A.
 Alpha  occ. eigenvalues --  -38.44113 -38.43990 -38.43864 -38.43836 -38.43818
 Alpha  occ. eigenvalues --  -38.43214 -38.43146  -2.19966  -2.19817  -2.19734
 Alpha  occ. eigenvalues --   -2.19722  -2.19674  -2.19200  -2.19032  -1.13652
 Alpha  occ. eigenvalues --   -1.13635  -1.13602  -1.13564  -1.13506  -1.13484
 Alpha  occ. eigenvalues --   -1.13468  -1.13392  -1.13363  -1.13360  -1.13340
 Alpha  occ. eigenvalues --   -1.13328  -1.13323  -1.13323  -1.13298  -1.12860
 Alpha  occ. eigenvalues --   -1.12837  -1.12808  -1.12706  -1.12694  -1.12669
 Alpha  occ. eigenvalues --   -0.18598  -0.13301  -0.12313  -0.10794
 Alpha virt. eigenvalues --   -0.05714  -0.05425  -0.04578  -0.03248  -0.02737
 Alpha virt. eigenvalues --   -0.02660  -0.01532  -0.01128  -0.00470  -0.00396
 Alpha virt. eigenvalues --   -0.00024   0.00338   0.00798   0.00840   0.00880

  Beta  occ. eigenvalues --  -38.44106 -38.43991 -38.43835 -38.43799 -38.43758
  Beta  occ. eigenvalues --  -38.43213 -38.43091  -2.19958  -2.19819  -2.19705
  Beta  occ. eigenvalues --   -2.19675  -2.19525  -2.19103  -2.19033  -1.13646
  Beta  occ. eigenvalues --   -1.13604  -1.13597  -1.13532  -1.13510  -1.13475
  Beta  occ. eigenvalues --   -1.13470  -1.13354  -1.13325  -1.13314  -1.13312
  Beta  occ. eigenvalues --   -1.13300  -1.13235  -1.13208  -1.13197  -1.12796
  Beta  occ. eigenvalues --   -1.12767  -1.12738  -1.12691  -1.12688  -1.12672
  Beta  occ. eigenvalues --   -0.17899  -0.13105  -0.12101
  Beta virt. eigenvalues --   -0.06776  -0.05662  -0.05388  -0.04533  -0.02512
  Beta virt. eigenvalues --   -0.01999  -0.01573  -0.01436  -0.01066  -0.00517
  Beta virt. eigenvalues --   -0.00418   0.00166   0.00388   0.00837   0.00870

 Mulliken charges and spin densities:
               1          2
     1  Na  -0.062310   0.021126
     2  Na   0.251628   0.095226
     3  Na   0.478116   0.050569
     4  Na   0.213307  -0.003636
     5  Na  -0.187306   0.110662
     6  Na  -0.033857  -0.011201
     7  Na  -0.659577   0.737255
 Sum of Mulliken charges =  -0.00000   1.00000

 Dipole moment (field-independent basis, Debye):
    X=             -0.0454    Y=             -0.1532    Z=              0.2992  Tot=              0.3392
 Quadrupole moment (field-independent basis, Debye-Ang):
   XX=            -56.1120   YY=            -63.3178   ZZ=            -74.7551
   XY=             -0.5093   XZ=              1.2409   YZ=              0.6228

 Normal termination of Gaussian 16 at Tue Dec  5 20:10:10 2023.
