 Gaussian 16, Revision B.01,
 Gaussian 16:  ES64L-G16RevB.01 20-Dec-2017

 -------------------------
 #P B3LYP/6-311+g(d) force
 -------------------------

 -----
 DPGEN
 -----
 Symbolic Z-matrix:
 Charge =  0 Multiplicity = 2

                         Standard orientation:
 ---------------------------------------------------------------------
 Center     Atomic      Atomic             Coordinates (Angstroms)
 Number     Number       Type             X           Y           Z
 ---------------------------------------------------------------------
      1         11           0        4.458717   -1.242729   -0.257349
      2         11           0        0.010778    3.115033    0.065060
      3         11           0       -1.765140   -2.804644    1.252480
      4         11           0        1.292470   -2.655716   -0.767032
      5         11           0        3.344040    2.363811    0.462595
      6         11           0       -3.828975   -1.210984   -0.466294
      7         11           0       -3.511890    2.435229   -0.289459
 ---------------------------------------------------------------------

 SCF Done:  E(UB3LYP) =  -1136.10939484     A.U. after   23 cycles

 The electronic state is 2-A.
 Alpha  occ. eigenvalues --  -38.45385 -38.45332 -38.44479 -38.44451 -38.44400
 Alpha  occ. eigenvalues --  -38.44057 -38.43666  -2.21173  -2.21082  -2.20254
 Alpha  occ. eigenvalues --   -2.20234  -2.20160  -2.19881  -2.19461  -1.14867
 Alpha  occ. eigenvalues --   -1.14838  -1.14809  -1.14771  -1.14761  -1.14696
 Alpha  occ. eigenvalues --   -1.13920  -1.13901  -1.13899  -1.13898  -1.13896
 Alpha  occ. eigenvalues --   -1.13857  -1.13850  -1.13842  -1.13777  -1.13546
 Alpha  occ. eigenvalues --   -1.13524  -1.13512  -1.13117  -1.13101  -1.13093
 Alpha  occ. eigenvalues --   -0.15650  -0.13930  -0.13232  -0.10719
 Alpha virt. eigenvalues --   -0.07561  -0.05081  -0.04311  -0.03621  -0.03310
 Alpha virt. eigenvalues --   -0.02691  -0.02245  -0.01906  -0.00991  -0.00695
 Alpha virt. eigenvalues --   -0.00620  -0.00224   0.00036   0.00437   0.00581

  Beta  occ. eigenvalues --  -38.45375 -38.45314 -38.44443 -38.44398 -38.44392
  Beta  occ. eigenvalues --  -38.44018 -38.43606  -2.21160  -2.21053  -2.20190
  Beta  occ. eigenvalues --   -2.20152  -2.20139  -2.19810  -2.19350  -1.14856
  Beta  occ. eigenvalues --   -1.14834  -1.14771  -1.14755  -1.14745  -1.14650
  Beta  occ. eigenvalues --   -1.13878  -1.13858  -1.13851  -1.13850  -1.13840
  Beta  occ. eigenvalues --   -1.13835  -1.13825  -1.13790  -1.13728  -1.13497
  Beta  occ. eigenvalues --   -1.13475  -1.13466  -1.13041  -1.13029  -1.13020
  Beta  occ. eigenvalues --   -0.15170  -0.13188  -0.12472
  Beta virt. eigenvalues --   -0.07747  -0.07576  -0.04747  -0.03749  -0.03425
  Beta virt. eigenvalues --   -0.02963  -0.02470  -0.02078  -0.01612  -0.00856
  Beta virt. eigenvalues --   -0.00410  -0.00350   0.00005   0.00138   0.00476

 Mulliken charges and spin densities:
               1          2
     1  Na   0.202861   0.143064
     2  Na  -0.253265   0.045677
     3  Na  -0.038584   0.176779
     4  Na  -0.249810   0.122630
     5  Na   0.118737   0.050940
     6  Na  -0.032965   0.023375
     7  Na   0.253027   0.437536
 Sum of Mulliken charges =  -0.00000   1.00000

 Dipole moment (field-independent basis, Debye):
    X=              0.1724    Y=             -0.9367    Z=             -0.0107  Tot=              0.9525
 Quadrupole moment (field-independent basis, Debye-Ang):
   XX=            -56.7440   YY=            -73.1955   ZZ=            -70.6801
   XY=              3.2302   XZ=              2.4016   YZ=              0.5752

 Normal termination of Gaussian 16 at Mon Dec  4 00:54:59 2023.
