 Gaussian 16, Revision B.01,
 Gaussian 16:  ES64L-G16RevB.01 20-Dec-2017

 -------------------------
 #P B3LYP/6-311+g(d) force
 -------------------------

 -----
 DPGEN
 -----
 Symbolic Z-matrix:
 Charge =  0 Multiplicity = 2

                         Standard orientation:
 ---------------------------------------------------------------------
 Center     Atomic      Atomic             Coordinates (Angstroms)
 Number     Number       Type             X           Y           Z
 ---------------------------------------------------------------------
      1         11           0        0.011884   -0.035728   -1.608263
      2         11           0        1.651712   -2.177269    0.927429
      3         11           0       -3.428444   -1.055315   -1.256539
      4         11           0       -1.252571   -0.892352    1.966681
      5         11           0        3.390924    0.204429   -1.688330
      6         11           0       -1.824424    2.311988    0.012030
      7         11           0        1.450919    1.644247    1.646991
 ---------------------------------------------------------------------

 SCF Done:  E(UB3LYP) =  -1136.12706797     A.U. after   25 cycles

 The electronic state is 2-A.
 Alpha  occ. eigenvalues --  -38.44904 -38.44500 -38.44417 -38.44360 -38.43224
 Alpha  occ. eigenvalues --  -38.43070 -38.43011  -2.20726  -2.20300  -2.20241
 Alpha  occ. eigenvalues --   -2.20140  -2.19013  -2.18916  -2.18886  -1.14420
 Alpha  occ. eigenvalues --   -1.14367  -1.14324  -1.13980  -1.13939  -1.13934
 Alpha  occ. eigenvalues --   -1.13928  -1.13874  -1.13848  -1.13809  -1.13799
 Alpha  occ. eigenvalues --   -1.13756  -1.12686  -1.12681  -1.12655  -1.12618
 Alpha  occ. eigenvalues --   -1.12614  -1.12579  -1.12569  -1.12533  -1.12470
 Alpha  occ. eigenvalues --   -0.17919  -0.13022  -0.11977  -0.11072
 Alpha virt. eigenvalues --   -0.05972  -0.05171  -0.04909  -0.03353  -0.02939
 Alpha virt. eigenvalues --   -0.02624  -0.01839  -0.01161  -0.00891  -0.00172
 Alpha virt. eigenvalues --    0.00227   0.00308   0.00345   0.00514   0.00585

  Beta  occ. eigenvalues --  -38.44846 -38.44461 -38.44366 -38.44336 -38.43227
  Beta  occ. eigenvalues --  -38.43052 -38.43003  -2.20620  -2.20229  -2.20148
  Beta  occ. eigenvalues --   -2.20094  -2.19018  -2.18885  -2.18874  -1.14344
  Beta  occ. eigenvalues --   -1.14299  -1.14236  -1.13926  -1.13884  -1.13878
  Beta  occ. eigenvalues --   -1.13864  -1.13817  -1.13777  -1.13775  -1.13764
  Beta  occ. eigenvalues --   -1.13730  -1.12690  -1.12680  -1.12660  -1.12594
  Beta  occ. eigenvalues --   -1.12576  -1.12566  -1.12536  -1.12515  -1.12466
  Beta  occ. eigenvalues --   -0.17149  -0.12834  -0.10874
  Beta virt. eigenvalues --   -0.08093  -0.05559  -0.04905  -0.04599  -0.02894
  Beta virt. eigenvalues --   -0.02384  -0.02177  -0.01737  -0.00917  -0.00546
  Beta virt. eigenvalues --   -0.00024   0.00283   0.00377   0.00512   0.00570

 Mulliken charges and spin densities:
               1          2
     1  Na  -0.671894   0.482282
     2  Na   0.021554  -0.006447
     3  Na   0.167727  -0.014001
     4  Na   0.061620   0.366873
     5  Na   0.330704  -0.189244
     6  Na   0.186292   0.069454
     7  Na  -0.096002   0.291083
 Sum of Mulliken charges =  -0.00000   1.00000

 Dipole moment (field-independent basis, Debye):
    X=             -0.4125    Y=              0.2255    Z=              0.5319  Tot=              0.7099
 Quadrupole moment (field-independent basis, Debye-Ang):
   XX=            -55.2785   YY=            -61.3684   ZZ=            -77.8858
   XY=              1.0080   XZ=              2.2766   YZ=              1.8131

 Normal termination of Gaussian 16 at Tue Dec  5 19:36:06 2023.
