 Gaussian 16, Revision B.01,
 Gaussian 16:  ES64L-G16RevB.01 20-Dec-2017

 -------------------------
 #P B3LYP/6-311+g(d) force
 -------------------------

 -----
 DPGEN
 -----
 Symbolic Z-matrix:
 Charge =  0 Multiplicity = 2

                         Standard orientation:
 ---------------------------------------------------------------------
 Center     Atomic      Atomic             Coordinates (Angstroms)
 Number     Number       Type             X           Y           Z
 ---------------------------------------------------------------------
      1         11           0        3.934953    0.360080    1.223844
      2         11           0       -3.622634   -1.285731    0.949390
      3         11           0        0.447250    1.789626   -1.352860
      4         11           0       -0.876040   -1.353362   -1.281467
      5         11           0        0.318125    0.051633    1.538037
      6         11           0       -2.584034    1.836328   -0.036722
      7         11           0        2.382380   -1.398572   -1.040221
 ---------------------------------------------------------------------

 SCF Done:  E(UB3LYP) =  -1136.12235206     A.U. after   30 cycles

 The electronic state is 2-A.
 Alpha  occ. eigenvalues --  -38.45407 -38.44595 -38.44360 -38.44220 -38.44085
 Alpha  occ. eigenvalues --  -38.42929 -38.41937  -2.21263  -2.20414  -2.20252
 Alpha  occ. eigenvalues --   -2.20079  -2.20024  -2.18740  -2.17840  -1.14994
 Alpha  occ. eigenvalues --   -1.14921  -1.14859  -1.14091  -1.14055  -1.14048
 Alpha  occ. eigenvalues --   -1.13956  -1.13892  -1.13870  -1.13766  -1.13734
 Alpha  occ. eigenvalues --   -1.13727  -1.13693  -1.13648  -1.13622  -1.12414
 Alpha  occ. eigenvalues --   -1.12409  -1.12377  -1.11528  -1.11507  -1.11472
 Alpha  occ. eigenvalues --   -0.18646  -0.14138  -0.11818  -0.10750
 Alpha virt. eigenvalues --   -0.06891  -0.05205  -0.04560  -0.03214  -0.02790
 Alpha virt. eigenvalues --   -0.02611  -0.02110  -0.01318  -0.00885  -0.00159
 Alpha virt. eigenvalues --    0.00023   0.00256   0.00433   0.00517   0.00680

  Beta  occ. eigenvalues --  -38.45383 -38.44553 -38.44321 -38.44197 -38.44006
  Beta  occ. eigenvalues --  -38.42931 -38.41933  -2.21222  -2.20334  -2.20186
  Beta  occ. eigenvalues --   -2.20037  -2.19884  -2.18744  -2.17837  -1.14950
  Beta  occ. eigenvalues --   -1.14889  -1.14828  -1.14039  -1.14001  -1.13990
  Beta  occ. eigenvalues --   -1.13895  -1.13852  -1.13800  -1.13732  -1.13708
  Beta  occ. eigenvalues --   -1.13664  -1.13639  -1.13551  -1.13501  -1.12418
  Beta  occ. eigenvalues --   -1.12406  -1.12381  -1.11530  -1.11494  -1.11458
  Beta  occ. eigenvalues --   -0.17894  -0.13846  -0.10593
  Beta virt. eigenvalues --   -0.07861  -0.06682  -0.04709  -0.04309  -0.02809
  Beta virt. eigenvalues --   -0.02592  -0.01988  -0.01692  -0.00875  -0.00802
  Beta virt. eigenvalues --   -0.00037   0.00062   0.00385   0.00479   0.00624

 Mulliken charges and spin densities:
               1          2
     1  Na   0.382684   0.205563
     2  Na   0.454535  -0.029621
     3  Na  -0.233630   0.013327
     4  Na  -0.190230   0.316469
     5  Na  -0.735070   0.345443
     6  Na   0.161758   0.090249
     7  Na   0.159953   0.058568
 Sum of Mulliken charges =  -0.00000   1.00000

 Dipole moment (field-independent basis, Debye):
    X=              0.8980    Y=              0.5879    Z=             -0.0060  Tot=              1.0733
 Quadrupole moment (field-independent basis, Debye-Ang):
   XX=            -55.4935   YY=            -73.6233   ZZ=            -69.1131
   XY=             -2.3012   XZ=             -0.6656   YZ=              5.1908

 Normal termination of Gaussian 16 at Fri Dec  8 03:12:53 2023.
