 Gaussian 16, Revision B.01,
 Gaussian 16:  ES64L-G16RevB.01 20-Dec-2017

 -------------------------
 #P B3LYP/6-311+g(d) force
 -------------------------

 -----
 DPGEN
 -----
 Symbolic Z-matrix:
 Charge =  0 Multiplicity = 2

                         Standard orientation:
 ---------------------------------------------------------------------
 Center     Atomic      Atomic             Coordinates (Angstroms)
 Number     Number       Type             X           Y           Z
 ---------------------------------------------------------------------
      1         11           0        0.670843    2.906794   -0.198436
      2         11           0       -2.244115   -1.983671    0.420622
      3         11           0        1.543946   -2.714257   -0.513120
      4         11           0       -2.688293    1.527390   -0.569587
      5         11           0        0.108567   -0.390314   -1.585836
      6         11           0        2.959696    0.654576    0.413258
      7         11           0       -0.350643   -0.000518    2.033100
 ---------------------------------------------------------------------

 SCF Done:  E(UB3LYP) =  -1136.13618555     A.U. after   19 cycles

 The electronic state is 2-A.
 Alpha  occ. eigenvalues --  -38.43835 -38.43830 -38.43746 -38.43720 -38.43645
 Alpha  occ. eigenvalues --  -38.43440 -38.43234  -2.19725  -2.19689  -2.19566
 Alpha  occ. eigenvalues --   -2.19558  -2.19497  -2.19281  -2.19223  -1.13465
 Alpha  occ. eigenvalues --   -1.13379  -1.13349  -1.13344  -1.13309  -1.13299
 Alpha  occ. eigenvalues --   -1.13294  -1.13244  -1.13241  -1.13225  -1.13220
 Alpha  occ. eigenvalues --   -1.13198  -1.13195  -1.13130  -1.13106  -1.12959
 Alpha  occ. eigenvalues --   -1.12943  -1.12916  -1.12887  -1.12837  -1.12832
 Alpha  occ. eigenvalues --   -0.18534  -0.12872  -0.12576  -0.10936
 Alpha virt. eigenvalues --   -0.05338  -0.05152  -0.04866  -0.03273  -0.03005
 Alpha virt. eigenvalues --   -0.02590  -0.01364  -0.01241  -0.00424  -0.00253
 Alpha virt. eigenvalues --    0.00003   0.00341   0.00838   0.00858   0.00896

  Beta  occ. eigenvalues --  -38.43821 -38.43740 -38.43730 -38.43713 -38.43632
  Beta  occ. eigenvalues --  -38.43439 -38.43176  -2.19667  -2.19561  -2.19547
  Beta  occ. eigenvalues --   -2.19539  -2.19477  -2.19281  -2.19119  -1.13405
  Beta  occ. eigenvalues --   -1.13321  -1.13298  -1.13272  -1.13262  -1.13237
  Beta  occ. eigenvalues --   -1.13235  -1.13215  -1.13213  -1.13203  -1.13194
  Beta  occ. eigenvalues --   -1.13182  -1.13175  -1.13107  -1.13095  -1.12955
  Beta  occ. eigenvalues --   -1.12938  -1.12905  -1.12816  -1.12768  -1.12758
  Beta  occ. eigenvalues --   -0.17847  -0.12626  -0.12269
  Beta virt. eigenvalues --   -0.07088  -0.05258  -0.05096  -0.04790  -0.02521
  Beta virt. eigenvalues --   -0.02313  -0.01595  -0.01249  -0.01132  -0.00411
  Beta virt. eigenvalues --   -0.00283   0.00124   0.00384   0.00860   0.00891

 Mulliken charges and spin densities:
               1          2
     1  Na  -0.063245  -0.039408
     2  Na   0.223425   0.024610
     3  Na   0.194415  -0.017885
     4  Na   0.015120  -0.005046
     5  Na  -0.182770   0.409978
     6  Na   0.058148   0.046122
     7  Na  -0.245092   0.581629
 Sum of Mulliken charges =  -0.00000   1.00000

 Dipole moment (field-independent basis, Debye):
    X=             -0.1307    Y=             -0.0938    Z=              0.2173  Tot=              0.2704
 Quadrupole moment (field-independent basis, Debye-Ang):
   XX=            -59.0250   YY=            -61.4071   ZZ=            -73.5821
   XY=             -0.1489   XZ=              1.4992   YZ=             -0.9830

 Normal termination of Gaussian 16 at Thu Dec  7 22:01:39 2023.
