 Gaussian 16, Revision B.01,
 Gaussian 16:  ES64L-G16RevB.01 20-Dec-2017

 -------------------------
 #P B3LYP/6-311+g(d) force
 -------------------------

 -----
 DPGEN
 -----
 Symbolic Z-matrix:
 Charge =  0 Multiplicity = 2

                         Standard orientation:
 ---------------------------------------------------------------------
 Center     Atomic      Atomic             Coordinates (Angstroms)
 Number     Number       Type             X           Y           Z
 ---------------------------------------------------------------------
      1         11           0       -1.410194   -0.563159    1.900455
      2         11           0       -0.112793    0.642669   -0.723325
      3         11           0        3.002927    1.043802   -1.413307
      4         11           0       -2.768156   -1.981602   -1.159768
      5         11           0       -2.127550    3.259973    0.144748
      6         11           0        2.644578   -0.295514    1.588091
      7         11           0        0.771188   -2.106169   -0.336894
 ---------------------------------------------------------------------

 SCF Done:  E(UB3LYP) =  -1136.12027543     A.U. after   21 cycles

 The electronic state is 2-A.
 Alpha  occ. eigenvalues --  -38.44458 -38.44355 -38.44328 -38.44317 -38.43756
 Alpha  occ. eigenvalues --  -38.42970 -38.42751  -2.20256  -2.20216  -2.20187
 Alpha  occ. eigenvalues --   -2.20176  -2.19698  -2.18791  -2.18726  -1.13943
 Alpha  occ. eigenvalues --   -1.13926  -1.13905  -1.13878  -1.13871  -1.13868
 Alpha  occ. eigenvalues --   -1.13855  -1.13840  -1.13832  -1.13812  -1.13807
 Alpha  occ. eigenvalues --   -1.13753  -1.13496  -1.13361  -1.13256  -1.12508
 Alpha  occ. eigenvalues --   -1.12460  -1.12407  -1.12395  -1.12388  -1.12355
 Alpha  occ. eigenvalues --   -0.18491  -0.13373  -0.11306  -0.11073
 Alpha virt. eigenvalues --   -0.06093  -0.05521  -0.04463  -0.03194  -0.02534
 Alpha virt. eigenvalues --   -0.02287  -0.02042  -0.01072  -0.00964   0.00073
 Alpha virt. eigenvalues --    0.00203   0.00265   0.00378   0.00467   0.00743

  Beta  occ. eigenvalues --  -38.44426 -38.44306 -38.44290 -38.44278 -38.43739
  Beta  occ. eigenvalues --  -38.42984 -38.42726  -2.20196  -2.20128  -2.20118
  Beta  occ. eigenvalues --   -2.20106  -2.19674  -2.18751  -2.18749  -1.13886
  Beta  occ. eigenvalues --   -1.13879  -1.13863  -1.13837  -1.13831  -1.13816
  Beta  occ. eigenvalues --   -1.13798  -1.13780  -1.13764  -1.13756  -1.13752
  Beta  occ. eigenvalues --   -1.13702  -1.13484  -1.13294  -1.13246  -1.12473
  Beta  occ. eigenvalues --   -1.12425  -1.12414  -1.12398  -1.12377  -1.12353
  Beta  occ. eigenvalues --   -0.17720  -0.13130  -0.11106
  Beta virt. eigenvalues --   -0.07328  -0.05866  -0.05180  -0.04036  -0.02967
  Beta virt. eigenvalues --   -0.02079  -0.01833  -0.01632  -0.00933  -0.00521
  Beta virt. eigenvalues --    0.00119   0.00244   0.00346   0.00442   0.00664

 Mulliken charges and spin densities:
               1          2
     1  Na   0.215350   0.309208
     2  Na  -1.594731   0.124112
     3  Na   0.606850   0.030196
     4  Na  -0.033168   0.139327
     5  Na  -0.072608  -0.072600
     6  Na   0.134010   0.277962
     7  Na   0.744297   0.191795
 Sum of Mulliken charges =  -0.00000   1.00000

 Dipole moment (field-independent basis, Debye):
    X=              0.4379    Y=             -0.8959    Z=              0.2636  Tot=              1.0315
 Quadrupole moment (field-independent basis, Debye-Ang):
   XX=            -53.6365   YY=            -71.2883   ZZ=            -66.3294
   XY=              4.6613   XZ=              0.6527   YZ=              0.2985

 Normal termination of Gaussian 16 at Tue Dec  5 17:27:56 2023.
