 Gaussian 16, Revision B.01,
 Gaussian 16:  ES64L-G16RevB.01 20-Dec-2017

 -------------------------
 #P B3LYP/6-311+g(d) force
 -------------------------

 -----
 DPGEN
 -----
 Symbolic Z-matrix:
 Charge =  0 Multiplicity = 2

                         Standard orientation:
 ---------------------------------------------------------------------
 Center     Atomic      Atomic             Coordinates (Angstroms)
 Number     Number       Type             X           Y           Z
 ---------------------------------------------------------------------
      1         11           0       -3.670919    0.229197    0.510075
      2         11           0        3.943664   -0.077641    0.214602
      3         11           0        1.698638   -2.596052   -0.135735
      4         11           0       -1.966218   -2.838798   -0.546207
      5         11           0        1.873120    2.600678   -0.250751
      6         11           0       -1.725247    2.852822   -0.435215
      7         11           0       -0.153039   -0.170207    0.643230
 ---------------------------------------------------------------------

 SCF Done:  E(UB3LYP) =  -1136.12789031     A.U. after   23 cycles

 The electronic state is 2-A.
 Alpha  occ. eigenvalues --  -38.44481 -38.44301 -38.44163 -38.44043 -38.44033
 Alpha  occ. eigenvalues --  -38.43263 -38.43129  -2.20286  -2.20148  -2.19980
 Alpha  occ. eigenvalues --   -2.19964  -2.19857  -2.19113  -2.18989  -1.13965
 Alpha  occ. eigenvalues --   -1.13949  -1.13920  -1.13886  -1.13824  -1.13755
 Alpha  occ. eigenvalues --   -1.13685  -1.13662  -1.13656  -1.13622  -1.13603
 Alpha  occ. eigenvalues --   -1.13580  -1.13533  -1.13513  -1.13485  -1.12768
 Alpha  occ. eigenvalues --   -1.12764  -1.12732  -1.12645  -1.12626  -1.12617
 Alpha  occ. eigenvalues --   -0.17443  -0.13956  -0.13233  -0.09642
 Alpha virt. eigenvalues --   -0.06703  -0.05830  -0.04197  -0.03297  -0.02538
 Alpha virt. eigenvalues --   -0.02529  -0.02218  -0.01487  -0.01088  -0.00301
 Alpha virt. eigenvalues --   -0.00032   0.00260   0.00556   0.00702   0.00721

  Beta  occ. eigenvalues --  -38.44468 -38.44289 -38.44154 -38.44042 -38.44009
  Beta  occ. eigenvalues --  -38.43198 -38.43058  -2.20266  -2.20132  -2.19969
  Beta  occ. eigenvalues --   -2.19962  -2.19817  -2.18991  -2.18857  -1.13953
  Beta  occ. eigenvalues --   -1.13939  -1.13888  -1.13874  -1.13819  -1.13701
  Beta  occ. eigenvalues --   -1.13679  -1.13660  -1.13655  -1.13613  -1.13579
  Beta  occ. eigenvalues --   -1.13561  -1.13509  -1.13493  -1.13428  -1.12682
  Beta  occ. eigenvalues --   -1.12680  -1.12653  -1.12554  -1.12541  -1.12528
  Beta  occ. eigenvalues --   -0.17107  -0.13280  -0.12611
  Beta virt. eigenvalues --   -0.06746  -0.06357  -0.05645  -0.04042  -0.02604
  Beta virt. eigenvalues --   -0.02259  -0.02135  -0.01818  -0.01391  -0.00946
  Beta virt. eigenvalues --   -0.00191   0.00287   0.00484   0.00571   0.00787

 Mulliken charges and spin densities:
               1          2
     1  Na   0.637920   0.493328
     2  Na   0.464807   0.476914
     3  Na   0.432932   0.139193
     4  Na   0.462017   0.028441
     5  Na   0.150033   0.094701
     6  Na   0.367432   0.001805
     7  Na  -2.515140  -0.234381
 Sum of Mulliken charges =  -0.00000   1.00000

 Dipole moment (field-independent basis, Debye):
    X=             -0.2722    Y=             -0.3679    Z=             -0.6687  Tot=              0.8103
 Quadrupole moment (field-independent basis, Debye-Ang):
   XX=            -70.0759   YY=            -59.2881   ZZ=            -70.4971
   XY=              3.6992   XZ=              1.5426   YZ=              0.3113

 Normal termination of Gaussian 16 at Wed Nov 29 16:15:58 2023.
