 Gaussian 16, Revision B.01,
 Gaussian 16:  ES64L-G16RevB.01 20-Dec-2017

 -------------------------
 #P B3LYP/6-311+g(d) force
 -------------------------

 -----
 DPGEN
 -----
 Symbolic Z-matrix:
 Charge =  0 Multiplicity = 2

                         Standard orientation:
 ---------------------------------------------------------------------
 Center     Atomic      Atomic             Coordinates (Angstroms)
 Number     Number       Type             X           Y           Z
 ---------------------------------------------------------------------
      1         11           0        4.235426   -0.210827   -0.390731
      2         11           0        2.327278   -1.979171    1.818936
      3         11           0        1.566861    2.478011   -1.477425
      4         11           0       -0.454187   -3.377168   -0.727971
      5         11           0       -0.288419    3.411662    0.697625
      6         11           0       -3.744675    1.056879    1.005594
      7         11           0       -3.642283   -1.379386   -0.926028
 ---------------------------------------------------------------------

 SCF Done:  E(UB3LYP) =  -1136.10206725     A.U. after   22 cycles

 The electronic state is 2-A.
 Alpha  occ. eigenvalues --  -38.45154 -38.44825 -38.44392 -38.44328 -38.44264
 Alpha  occ. eigenvalues --  -38.44240 -38.43961  -2.20895  -2.20601  -2.20190
 Alpha  occ. eigenvalues --   -2.20114  -2.20073  -2.20015  -2.19774  -1.14576
 Alpha  occ. eigenvalues --   -1.14554  -1.14548  -1.14262  -1.14243  -1.14227
 Alpha  occ. eigenvalues --   -1.13958  -1.13846  -1.13827  -1.13824  -1.13788
 Alpha  occ. eigenvalues --   -1.13763  -1.13720  -1.13704  -1.13676  -1.13670
 Alpha  occ. eigenvalues --   -1.13652  -1.13626  -1.13418  -1.13411  -1.13397
 Alpha  occ. eigenvalues --   -0.15425  -0.13619  -0.13018  -0.10547
 Alpha virt. eigenvalues --   -0.07509  -0.05029  -0.04624  -0.03561  -0.03499
 Alpha virt. eigenvalues --   -0.02228  -0.02006  -0.01460  -0.01310  -0.01046
 Alpha virt. eigenvalues --   -0.00841  -0.00044   0.00097   0.00314   0.00572

  Beta  occ. eigenvalues --  -38.45163 -38.44779 -38.44381 -38.44333 -38.44246
  Beta  occ. eigenvalues --  -38.44145 -38.43897  -2.20914  -2.20516  -2.20173
  Beta  occ. eigenvalues --   -2.20129  -2.20041  -2.19840  -2.19656  -1.14592
  Beta  occ. eigenvalues --   -1.14570  -1.14539  -1.14203  -1.14187  -1.14170
  Beta  occ. eigenvalues --   -1.13933  -1.13836  -1.13820  -1.13813  -1.13805
  Beta  occ. eigenvalues --   -1.13744  -1.13701  -1.13684  -1.13647  -1.13551
  Beta  occ. eigenvalues --   -1.13535  -1.13509  -1.13339  -1.13336  -1.13316
  Beta  occ. eigenvalues --   -0.14981  -0.12951  -0.12376
  Beta virt. eigenvalues --   -0.07574  -0.07334  -0.04598  -0.04236  -0.03426
  Beta virt. eigenvalues --   -0.03241  -0.01991  -0.01638  -0.01233  -0.01031
  Beta virt. eigenvalues --   -0.00848  -0.00614   0.00065   0.00172   0.00415

 Mulliken charges and spin densities:
               1          2
     1  Na   0.145272   0.205716
     2  Na  -0.001671  -0.042103
     3  Na  -0.184032   0.067504
     4  Na  -0.163399   0.481218
     5  Na   0.132008   0.033533
     6  Na  -0.176638   0.273104
     7  Na   0.248459  -0.018973
 Sum of Mulliken charges =  -0.00000   1.00000

 Dipole moment (field-independent basis, Debye):
    X=              1.0209    Y=              0.2254    Z=              0.2670  Tot=              1.0790
 Quadrupole moment (field-independent basis, Debye-Ang):
   XX=            -69.6022   YY=            -73.8851   ZZ=            -61.7294
   XY=             -0.3114   XZ=             -2.8896   YZ=              1.6063

 Normal termination of Gaussian 16 at Sun Dec  3 22:36:06 2023.
