 Gaussian 16, Revision B.01,
 Gaussian 16:  ES64L-G16RevB.01 20-Dec-2017

 -------------------------
 #P B3LYP/6-311+g(d) force
 -------------------------

 -----
 DPGEN
 -----
 Symbolic Z-matrix:
 Charge =  0 Multiplicity = 2

                         Standard orientation:
 ---------------------------------------------------------------------
 Center     Atomic      Atomic             Coordinates (Angstroms)
 Number     Number       Type             X           Y           Z
 ---------------------------------------------------------------------
      1         11           0        2.351686   -1.919905   -0.986765
      2         11           0       -3.620231   -0.136185    1.336026
      3         11           0       -2.401237   -1.976009   -1.168383
      4         11           0       -0.455746    0.163589    0.177706
      5         11           0        2.755313   -0.554936    1.993509
      6         11           0        2.445669    1.601170   -0.714018
      7         11           0       -1.075453    2.822276   -0.638074
 ---------------------------------------------------------------------

 SCF Done:  E(UB3LYP) =  -1136.11798814     A.U. after   23 cycles

 The electronic state is 2-A.
 Alpha  occ. eigenvalues --  -38.44505 -38.44407 -38.44212 -38.44166 -38.43909
 Alpha  occ. eigenvalues --  -38.43132 -38.42973  -2.20327  -2.20255  -2.20035
 Alpha  occ. eigenvalues --   -2.19995  -2.19769  -2.19031  -2.18971  -1.13996
 Alpha  occ. eigenvalues --   -1.13967  -1.13963  -1.13946  -1.13943  -1.13854
 Alpha  occ. eigenvalues --   -1.13732  -1.13688  -1.13674  -1.13658  -1.13648
 Alpha  occ. eigenvalues --   -1.13630  -1.13422  -1.13412  -1.13374  -1.12935
 Alpha  occ. eigenvalues --   -1.12731  -1.12653  -1.12613  -1.12564  -1.12528
 Alpha  occ. eigenvalues --   -0.17813  -0.14238  -0.11518  -0.10162
 Alpha virt. eigenvalues --   -0.06188  -0.05837  -0.04907  -0.03362  -0.02346
 Alpha virt. eigenvalues --   -0.02202  -0.02080  -0.01057  -0.00645  -0.00356
 Alpha virt. eigenvalues --   -0.00226   0.00225   0.00234   0.00415   0.00651

  Beta  occ. eigenvalues --  -38.44471 -38.44397 -38.44195 -38.44147 -38.43840
  Beta  occ. eigenvalues --  -38.43135 -38.42956  -2.20262  -2.20239  -2.20005
  Beta  occ. eigenvalues --   -2.19963  -2.19639  -2.19012  -2.18973  -1.13949
  Beta  occ. eigenvalues --   -1.13936  -1.13928  -1.13918  -1.13914  -1.13844
  Beta  occ. eigenvalues --   -1.13709  -1.13670  -1.13648  -1.13637  -1.13614
  Beta  occ. eigenvalues --   -1.13590  -1.13331  -1.13320  -1.13292  -1.12934
  Beta  occ. eigenvalues --   -1.12677  -1.12635  -1.12608  -1.12562  -1.12526
  Beta  occ. eigenvalues --   -0.17260  -0.13964  -0.11306
  Beta virt. eigenvalues --   -0.06762  -0.05885  -0.05391  -0.04479  -0.03198
  Beta virt. eigenvalues --   -0.02125  -0.01880  -0.01415  -0.00951  -0.00395
  Beta virt. eigenvalues --   -0.00108   0.00023   0.00315   0.00410   0.00540

 Mulliken charges and spin densities:
               1          2
     1  Na   0.283515   0.111623
     2  Na   1.084669   0.078456
     3  Na   0.883489  -0.000855
     4  Na  -4.125003   0.537374
     5  Na   0.533025   0.296920
     6  Na   0.744051   0.059434
     7  Na   0.596253  -0.082951
 Sum of Mulliken charges =  -0.00000   1.00000

 Dipole moment (field-independent basis, Debye):
    X=             -0.1673    Y=             -0.1158    Z=             -0.2859  Tot=              0.3509
 Quadrupole moment (field-independent basis, Debye-Ang):
   XX=            -54.2659   YY=            -70.2496   ZZ=            -68.7215
   XY=              0.2689   XZ=             -3.5309   YZ=              1.3584

 Normal termination of Gaussian 16 at Thu Dec  7 10:11:25 2023.
