 Gaussian 16, Revision B.01,
 Gaussian 16:  ES64L-G16RevB.01 20-Dec-2017

 -------------------------
 #P B3LYP/6-311+g(d) force
 -------------------------

 -----
 DPGEN
 -----
 Symbolic Z-matrix:
 Charge =  0 Multiplicity = 2

                         Standard orientation:
 ---------------------------------------------------------------------
 Center     Atomic      Atomic             Coordinates (Angstroms)
 Number     Number       Type             X           Y           Z
 ---------------------------------------------------------------------
      1         11           0        1.086769    2.224226    0.615039
      2         11           0       -0.713704   -0.312009    1.888190
      3         11           0       -3.196019   -1.339695   -0.496891
      4         11           0        3.432220    0.076827   -0.858490
      5         11           0       -0.230730   -0.372205   -1.511769
      6         11           0        1.655729   -2.123295    0.658309
      7         11           0       -2.034265    1.846151   -0.294389
 ---------------------------------------------------------------------

 SCF Done:  E(UB3LYP) =  -1136.12926454     A.U. after   21 cycles

 The electronic state is 2-A.
 Alpha  occ. eigenvalues --  -38.44530 -38.44144 -38.43871 -38.43562 -38.43405
 Alpha  occ. eigenvalues --  -38.43390 -38.42505  -2.20367  -2.19988  -2.19855
 Alpha  occ. eigenvalues --   -2.19539  -2.19334  -2.19293  -2.18398  -1.14033
 Alpha  occ. eigenvalues --   -1.14016  -1.14006  -1.13676  -1.13650  -1.13631
 Alpha  occ. eigenvalues --   -1.13566  -1.13533  -1.13447  -1.13238  -1.13189
 Alpha  occ. eigenvalues --   -1.13140  -1.13031  -1.12990  -1.12964  -1.12944
 Alpha  occ. eigenvalues --   -1.12935  -1.12920  -1.12085  -1.12061  -1.12028
 Alpha  occ. eigenvalues --   -0.19057  -0.13913  -0.11607  -0.11237
 Alpha virt. eigenvalues --   -0.06310  -0.05039  -0.04154  -0.03243  -0.02791
 Alpha virt. eigenvalues --   -0.02516  -0.02127  -0.00913  -0.00479   0.00010
 Alpha virt. eigenvalues --    0.00242   0.00281   0.00573   0.00805   0.00872

  Beta  occ. eigenvalues --  -38.44507 -38.44135 -38.43831 -38.43467 -38.43385
  Beta  occ. eigenvalues --  -38.43380 -38.42496  -2.20323  -2.19975  -2.19782
  Beta  occ. eigenvalues --   -2.19366  -2.19319  -2.19260  -2.18386  -1.14002
  Beta  occ. eigenvalues --   -1.13985  -1.13974  -1.13655  -1.13643  -1.13611
  Beta  occ. eigenvalues --   -1.13518  -1.13475  -1.13395  -1.13125  -1.13078
  Beta  occ. eigenvalues --   -1.13019  -1.13013  -1.12962  -1.12938  -1.12915
  Beta  occ. eigenvalues --   -1.12908  -1.12878  -1.12076  -1.12039  -1.12014
  Beta  occ. eigenvalues --   -0.18341  -0.13596  -0.11352
  Beta virt. eigenvalues --   -0.07362  -0.06103  -0.05012  -0.03751  -0.02960
  Beta virt. eigenvalues --   -0.02086  -0.01874  -0.01585  -0.00886  -0.00256
  Beta virt. eigenvalues --    0.00073   0.00285   0.00291   0.00721   0.00839

 Mulliken charges and spin densities:
               1          2
     1  Na  -0.442363  -0.043914
     2  Na   0.220554   0.484114
     3  Na   0.155246  -0.016847
     4  Na   0.382826   0.144349
     5  Na  -0.405049   0.366123
     6  Na  -0.185622  -0.002941
     7  Na   0.274408   0.069115
 Sum of Mulliken charges =  -0.00000   1.00000

 Dipole moment (field-independent basis, Debye):
    X=             -0.1270    Y=             -0.1690    Z=             -0.1578  Tot=              0.2638
 Quadrupole moment (field-independent basis, Debye-Ang):
   XX=            -50.9828   YY=            -72.0617   ZZ=            -70.6533
   XY=              1.1202   XZ=             -0.9566   YZ=             -0.8728

 Normal termination of Gaussian 16 at Tue Dec  5 14:25:04 2023.
