 Gaussian 16, Revision B.01,
 Gaussian 16:  ES64L-G16RevB.01 20-Dec-2017

 -------------------------
 #P B3LYP/6-311+g(d) force
 -------------------------

 -----
 DPGEN
 -----
 Symbolic Z-matrix:
 Charge =  0 Multiplicity = 2

                         Standard orientation:
 ---------------------------------------------------------------------
 Center     Atomic      Atomic             Coordinates (Angstroms)
 Number     Number       Type             X           Y           Z
 ---------------------------------------------------------------------
      1         11           0       -2.074077   -2.196625   -0.199837
      2         11           0       -3.309766    0.767213    0.192660
      3         11           0        2.513230   -1.915799   -0.237429
      4         11           0        2.949455    1.240223    0.233857
      5         11           0        0.168396   -0.498172   -1.438307
      6         11           0       -0.302023    2.574321   -0.821060
      7         11           0        0.054786    0.028839    2.270116
 ---------------------------------------------------------------------

 SCF Done:  E(UB3LYP) =  -1136.12600883     A.U. after   21 cycles

 The electronic state is 2-A.
 Alpha  occ. eigenvalues --  -38.44827 -38.44410 -38.44356 -38.43948 -38.43658
 Alpha  occ. eigenvalues --  -38.43276 -38.42736  -2.20632  -2.20248  -2.20184
 Alpha  occ. eigenvalues --   -2.19816  -2.19516  -2.19303  -2.18586  -1.14305
 Alpha  occ. eigenvalues --   -1.14298  -1.14272  -1.13928  -1.13915  -1.13890
 Alpha  occ. eigenvalues --   -1.13842  -1.13811  -1.13797  -1.13560  -1.13450
 Alpha  occ. eigenvalues --   -1.13443  -1.13260  -1.13160  -1.13149  -1.12963
 Alpha  occ. eigenvalues --   -1.12952  -1.12913  -1.12295  -1.12229  -1.12203
 Alpha  occ. eigenvalues --   -0.18518  -0.13666  -0.11674  -0.10980
 Alpha virt. eigenvalues --   -0.06399  -0.05499  -0.03804  -0.03613  -0.02839
 Alpha virt. eigenvalues --   -0.02554  -0.02058  -0.01204  -0.00387  -0.00186
 Alpha virt. eigenvalues --   -0.00010   0.00319   0.00673   0.00704   0.00800

  Beta  occ. eigenvalues --  -38.44828 -38.44407 -38.44254 -38.43942 -38.43655
  Beta  occ. eigenvalues --  -38.43219 -38.42715  -2.20636  -2.20244  -2.19993
  Beta  occ. eigenvalues --   -2.19810  -2.19514  -2.19202  -2.18552  -1.14310
  Beta  occ. eigenvalues --   -1.14287  -1.14274  -1.13930  -1.13896  -1.13881
  Beta  occ. eigenvalues --   -1.13715  -1.13680  -1.13660  -1.13545  -1.13443
  Beta  occ. eigenvalues --   -1.13430  -1.13247  -1.13151  -1.13143  -1.12892
  Beta  occ. eigenvalues --   -1.12875  -1.12847  -1.12263  -1.12196  -1.12182
  Beta  occ. eigenvalues --   -0.17805  -0.13496  -0.11425
  Beta virt. eigenvalues --   -0.07042  -0.06246  -0.05501  -0.03746  -0.02855
  Beta virt. eigenvalues --   -0.01990  -0.01919  -0.01652  -0.01140  -0.00436
  Beta virt. eigenvalues --   -0.00119   0.00109   0.00350   0.00741   0.00810

 Mulliken charges and spin densities:
               1          2
     1  Na   0.196872   0.125271
     2  Na   0.000709   0.022115
     3  Na   0.210733   0.120301
     4  Na   0.120458   0.118074
     5  Na  -0.054665  -0.187794
     6  Na   0.094437   0.156435
     7  Na  -0.568544   0.645598
 Sum of Mulliken charges =  -0.00000   1.00000

 Dipole moment (field-independent basis, Debye):
    X=             -0.0758    Y=              0.0092    Z=              0.5426  Tot=              0.5479
 Quadrupole moment (field-independent basis, Debye-Ang):
   XX=            -50.4228   YY=            -69.4668   ZZ=            -73.9191
   XY=             -0.2775   XZ=             -0.0623   YZ=             -0.3303

 Normal termination of Gaussian 16 at Thu Dec  7 21:48:58 2023.
