 Gaussian 16, Revision B.01,
 Gaussian 16:  ES64L-G16RevB.01 20-Dec-2017

 -------------------------
 #P B3LYP/6-311+g(d) force
 -------------------------

 -----
 DPGEN
 -----
 Symbolic Z-matrix:
 Charge =  0 Multiplicity = 2

                         Standard orientation:
 ---------------------------------------------------------------------
 Center     Atomic      Atomic             Coordinates (Angstroms)
 Number     Number       Type             X           Y           Z
 ---------------------------------------------------------------------
      1         11           0        0.225674   -1.748203    0.840097
      2         11           0        3.250953   -2.708231   -0.285483
      3         11           0        3.833740    0.340055   -0.564530
      4         11           0        0.198732    1.293020   -0.809303
      5         11           0       -3.051481   -0.437104    0.610077
      6         11           0        2.206579    3.160126    0.712339
      7         11           0       -6.664197    0.100338   -0.503197
 ---------------------------------------------------------------------

 SCF Done:  E(UB3LYP) =  -1136.12016753     A.U. after   20 cycles

 The electronic state is 2-A.
 Alpha  occ. eigenvalues --  -38.45372 -38.44430 -38.44397 -38.44032 -38.43765
 Alpha  occ. eigenvalues --  -38.43662 -38.43108  -2.21154  -2.20280  -2.20249
 Alpha  occ. eigenvalues --   -2.19872  -2.19531  -2.19491  -2.18956  -1.14784
 Alpha  occ. eigenvalues --   -1.14784  -1.14754  -1.13979  -1.13971  -1.13938
 Alpha  occ. eigenvalues --   -1.13914  -1.13887  -1.13863  -1.13560  -1.13552
 Alpha  occ. eigenvalues --   -1.13471  -1.13224  -1.13222  -1.13164  -1.13161
 Alpha  occ. eigenvalues --   -1.13147  -1.13123  -1.12633  -1.12604  -1.12596
 Alpha  occ. eigenvalues --   -0.16906  -0.13826  -0.12184  -0.11773
 Alpha virt. eigenvalues --   -0.05770  -0.05675  -0.04646  -0.03716  -0.02671
 Alpha virt. eigenvalues --   -0.02428  -0.02101  -0.01932  -0.01085  -0.00830
 Alpha virt. eigenvalues --   -0.00251  -0.00095   0.00257   0.00404   0.00644

  Beta  occ. eigenvalues --  -38.45239 -38.44413 -38.44364 -38.44000 -38.43775
  Beta  occ. eigenvalues --  -38.43660 -38.43101  -2.20906  -2.20251  -2.20190
  Beta  occ. eigenvalues --   -2.19815  -2.19557  -2.19487  -2.18944  -1.14616
  Beta  occ. eigenvalues --   -1.14616  -1.14588  -1.13960  -1.13952  -1.13899
  Beta  occ. eigenvalues --   -1.13878  -1.13854  -1.13817  -1.13521  -1.13514
  Beta  occ. eigenvalues --   -1.13428  -1.13249  -1.13247  -1.13156  -1.13145
  Beta  occ. eigenvalues --   -1.13131  -1.13119  -1.12615  -1.12597  -1.12590
  Beta  occ. eigenvalues --   -0.16515  -0.12763  -0.12127
  Beta virt. eigenvalues --   -0.08138  -0.05626  -0.05159  -0.04398  -0.03547
  Beta virt. eigenvalues --   -0.02354  -0.01935  -0.01766  -0.01503  -0.00763
  Beta virt. eigenvalues --   -0.00522  -0.00192   0.00108   0.00407   0.00480

 Mulliken charges and spin densities:
               1          2
     1  Na  -0.108395  -0.077488
     2  Na   0.679170   0.069457
     3  Na  -0.153450   0.231998
     4  Na  -0.737084  -0.004641
     5  Na  -0.215747   0.179116
     6  Na   0.551079   0.020357
     7  Na  -0.015573   0.581201
 Sum of Mulliken charges =  -0.00000   1.00000

 Dipole moment (field-independent basis, Debye):
    X=              0.0008    Y=              0.5918    Z=              0.0007  Tot=              0.5918
 Quadrupole moment (field-independent basis, Debye-Ang):
   XX=            -58.8359   YY=            -69.0409   ZZ=            -68.2847
   XY=              0.6503   XZ=              2.0305   YZ=              1.0615

 Normal termination of Gaussian 16 at Tue Nov 28 19:41:03 2023.
