 Gaussian 16, Revision B.01,
 Gaussian 16:  ES64L-G16RevB.01 20-Dec-2017

 -------------------------
 #P B3LYP/6-311+g(d) force
 -------------------------

 -----
 DPGEN
 -----
 Symbolic Z-matrix:
 Charge =  0 Multiplicity = 2

                         Standard orientation:
 ---------------------------------------------------------------------
 Center     Atomic      Atomic             Coordinates (Angstroms)
 Number     Number       Type             X           Y           Z
 ---------------------------------------------------------------------
      1         11           0       -0.512583   -2.738722   -0.192673
      2         11           0        2.741829   -1.406527   -0.114538
      3         11           0        0.163638   -0.300581    1.646157
      4         11           0       -1.841506    2.349483   -0.129580
      5         11           0       -3.145827   -0.589130    0.000417
      6         11           0        0.556121    0.336509   -1.467089
      7         11           0        2.038328    2.348969    0.257306
 ---------------------------------------------------------------------

 SCF Done:  E(UB3LYP) =  -1136.13288361     A.U. after   20 cycles

 The electronic state is 2-A.
 Alpha  occ. eigenvalues --  -38.44131 -38.43971 -38.43941 -38.43773 -38.43369
 Alpha  occ. eigenvalues --  -38.42822 -38.42816  -2.20018  -2.19812  -2.19799
 Alpha  occ. eigenvalues --   -2.19617  -2.19266  -2.18878  -2.18829  -1.13725
 Alpha  occ. eigenvalues --   -1.13684  -1.13634  -1.13519  -1.13505  -1.13472
 Alpha  occ. eigenvalues --   -1.13465  -1.13454  -1.13416  -1.13295  -1.13275
 Alpha  occ. eigenvalues --   -1.13242  -1.12986  -1.12929  -1.12884  -1.12624
 Alpha  occ. eigenvalues --   -1.12508  -1.12494  -1.12481  -1.12442  -1.12432
 Alpha  occ. eigenvalues --   -0.19061  -0.13317  -0.12718  -0.10128
 Alpha virt. eigenvalues --   -0.05742  -0.05536  -0.04704  -0.02957  -0.02694
 Alpha virt. eigenvalues --   -0.01816  -0.01617  -0.01349  -0.00514  -0.00330
 Alpha virt. eigenvalues --    0.00056   0.00342   0.00821   0.00833   0.00894

  Beta  occ. eigenvalues --  -38.44120 -38.43970 -38.43933 -38.43769 -38.43360
  Beta  occ. eigenvalues --  -38.42761 -38.42737  -2.20003  -2.19814  -2.19788
  Beta  occ. eigenvalues --   -2.19613  -2.19254  -2.18768  -2.18685  -1.13713
  Beta  occ. eigenvalues --   -1.13643  -1.13624  -1.13510  -1.13508  -1.13470
  Beta  occ. eigenvalues --   -1.13452  -1.13422  -1.13412  -1.13287  -1.13258
  Beta  occ. eigenvalues --   -1.13242  -1.12975  -1.12897  -1.12875  -1.12538
  Beta  occ. eigenvalues --   -1.12429  -1.12409  -1.12386  -1.12339  -1.12327
  Beta  occ. eigenvalues --   -0.18358  -0.13075  -0.12457
  Beta virt. eigenvalues --   -0.06242  -0.05711  -0.05501  -0.04685  -0.02204
  Beta virt. eigenvalues --   -0.01931  -0.01550  -0.01284  -0.00840  -0.00551
  Beta virt. eigenvalues --   -0.00380   0.00198   0.00387   0.00830   0.00861

 Mulliken charges and spin densities:
               1          2
     1  Na   0.240883  -0.007546
     2  Na   0.455168  -0.011787
     3  Na  -0.432674   0.691141
     4  Na   0.133146  -0.054879
     5  Na  -0.055504  -0.044551
     6  Na  -0.489909   0.516586
     7  Na   0.148891  -0.088964
 Sum of Mulliken charges =  -0.00000   1.00000

 Dipole moment (field-independent basis, Debye):
    X=              0.1685    Y=              0.0874    Z=              0.0999  Tot=              0.2145
 Quadrupole moment (field-independent basis, Debye-Ang):
   XX=            -53.6899   YY=            -59.9270   ZZ=            -77.6396
   XY=              0.2359   XZ=              0.8046   YZ=              1.4098

 Normal termination of Gaussian 16 at Wed Nov 29 02:16:31 2023.
