 Gaussian 16, Revision B.01,
 Gaussian 16:  ES64L-G16RevB.01 20-Dec-2017

 -------------------------
 #P B3LYP/6-311+g(d) force
 -------------------------

 -----
 DPGEN
 -----
 Symbolic Z-matrix:
 Charge =  0 Multiplicity = 2

                         Standard orientation:
 ---------------------------------------------------------------------
 Center     Atomic      Atomic             Coordinates (Angstroms)
 Number     Number       Type             X           Y           Z
 ---------------------------------------------------------------------
      1         11           0       -1.712937    2.153928   -0.316393
      2         11           0        1.357419    1.376432   -1.555760
      3         11           0       -1.314034   -1.546823   -0.994742
      4         11           0       -3.906543   -0.658988    0.690598
      5         11           0        1.909245   -1.828194   -0.560117
      6         11           0        3.863267    0.197945    1.125079
      7         11           0       -0.196417    0.305700    1.611335
 ---------------------------------------------------------------------

 SCF Done:  E(UB3LYP) =  -1136.12244955     A.U. after   24 cycles

 The electronic state is 2-A.
 Alpha  occ. eigenvalues --  -38.45330 -38.44744 -38.44575 -38.43537 -38.43225
 Alpha  occ. eigenvalues --  -38.43099 -38.42757  -2.21209  -2.20564  -2.20391
 Alpha  occ. eigenvalues --   -2.19408  -2.19130  -2.19019  -2.18647  -1.14923
 Alpha  occ. eigenvalues --   -1.14877  -1.14811  -1.14215  -1.14211  -1.14183
 Alpha  occ. eigenvalues --   -1.14070  -1.14044  -1.14018  -1.13090  -1.13057
 Alpha  occ. eigenvalues --   -1.13038  -1.12840  -1.12793  -1.12769  -1.12706
 Alpha  occ. eigenvalues --   -1.12655  -1.12642  -1.12358  -1.12312  -1.12254
 Alpha  occ. eigenvalues --   -0.18590  -0.14244  -0.11233  -0.11011
 Alpha virt. eigenvalues --   -0.07113  -0.04836  -0.04750  -0.03124  -0.02962
 Alpha virt. eigenvalues --   -0.02379  -0.02168  -0.01198  -0.00928  -0.00141
 Alpha virt. eigenvalues --   -0.00010   0.00237   0.00380   0.00706   0.00774

  Beta  occ. eigenvalues --  -38.45315 -38.44679 -38.44561 -38.43497 -38.43201
  Beta  occ. eigenvalues --  -38.43062 -38.42757  -2.21181  -2.20443  -2.20365
  Beta  occ. eigenvalues --   -2.19337  -2.19094  -2.18956  -2.18650  -1.14891
  Beta  occ. eigenvalues --   -1.14863  -1.14789  -1.14134  -1.14125  -1.14103
  Beta  occ. eigenvalues --   -1.14054  -1.14027  -1.13996  -1.13035  -1.12998
  Beta  occ. eigenvalues --   -1.12993  -1.12804  -1.12762  -1.12725  -1.12666
  Beta  occ. eigenvalues --   -1.12612  -1.12569  -1.12363  -1.12306  -1.12245
  Beta  occ. eigenvalues --   -0.17937  -0.13850  -0.10865
  Beta virt. eigenvalues --   -0.07478  -0.06829  -0.04767  -0.04116  -0.02947
  Beta virt. eigenvalues --   -0.02660  -0.01883  -0.01483  -0.00854  -0.00816
  Beta virt. eigenvalues --   -0.00050   0.00073   0.00325   0.00457   0.00786

 Mulliken charges and spin densities:
               1          2
     1  Na   0.170209   0.055611
     2  Na  -0.149706   0.207993
     3  Na  -0.551057   0.099072
     4  Na   0.582633   0.116244
     5  Na   0.107952   0.078424
     6  Na   0.304632   0.340549
     7  Na  -0.464663   0.102108
 Sum of Mulliken charges =  -0.00000   1.00000

 Dipole moment (field-independent basis, Debye):
    X=             -0.0387    Y=              0.4554    Z=              0.3725  Tot=              0.5896
 Quadrupole moment (field-independent basis, Debye-Ang):
   XX=            -50.6564   YY=            -78.6791   ZZ=            -66.6894
   XY=              0.0705   XZ=             -1.2634   YZ=             -0.3272

 Normal termination of Gaussian 16 at Tue Dec  5 21:11:18 2023.
