 Gaussian 16, Revision B.01,
 Gaussian 16:  ES64L-G16RevB.01 20-Dec-2017

 -------------------------
 #P B3LYP/6-311+g(d) force
 -------------------------

 -----
 DPGEN
 -----
 Symbolic Z-matrix:
 Charge =  0 Multiplicity = 2

                         Standard orientation:
 ---------------------------------------------------------------------
 Center     Atomic      Atomic             Coordinates (Angstroms)
 Number     Number       Type             X           Y           Z
 ---------------------------------------------------------------------
      1         11           0        1.077993    1.824803    1.482054
      2         11           0       -3.856976   -1.106485   -1.163266
      3         11           0        1.592372   -1.429849    0.963816
      4         11           0       -1.743453   -1.502656    1.523342
      5         11           0        0.553489   -0.087752   -1.394800
      6         11           0       -1.956965    2.623755   -0.305866
      7         11           0        4.333540   -0.321816   -1.105280
 ---------------------------------------------------------------------

 SCF Done:  E(UB3LYP) =  -1136.11619046     A.U. after   24 cycles

 The electronic state is 2-A.
 Alpha  occ. eigenvalues --  -38.45463 -38.44885 -38.44120 -38.43820 -38.43728
 Alpha  occ. eigenvalues --  -38.43586 -38.43428  -2.21331  -2.20670  -2.19891
 Alpha  occ. eigenvalues --   -2.19774  -2.19554  -2.19424  -2.19199  -1.15122
 Alpha  occ. eigenvalues --   -1.14967  -1.14915  -1.14331  -1.14323  -1.14274
 Alpha  occ. eigenvalues --   -1.13560  -1.13538  -1.13527  -1.13514  -1.13428
 Alpha  occ. eigenvalues --   -1.13367  -1.13223  -1.13207  -1.13183  -1.13101
 Alpha  occ. eigenvalues --   -1.13084  -1.13043  -1.12886  -1.12854  -1.12824
 Alpha  occ. eigenvalues --   -0.17963  -0.13504  -0.11396  -0.11079
 Alpha virt. eigenvalues --   -0.06738  -0.05430  -0.04715  -0.03054  -0.02790
 Alpha virt. eigenvalues --   -0.02518  -0.02341  -0.01378  -0.01016  -0.00184
 Alpha virt. eigenvalues --   -0.00055   0.00120   0.00338   0.00432   0.00616

  Beta  occ. eigenvalues --  -38.45454 -38.44829 -38.44091 -38.43780 -38.43695
  Beta  occ. eigenvalues --  -38.43567 -38.43421  -2.21315  -2.20565  -2.19837
  Beta  occ. eigenvalues --   -2.19708  -2.19499  -2.19389  -2.19186  -1.15099
  Beta  occ. eigenvalues --   -1.14958  -1.14899  -1.14257  -1.14250  -1.14206
  Beta  occ. eigenvalues --   -1.13524  -1.13501  -1.13491  -1.13478  -1.13378
  Beta  occ. eigenvalues --   -1.13281  -1.13185  -1.13173  -1.13117  -1.13075
  Beta  occ. eigenvalues --   -1.13051  -1.13022  -1.12874  -1.12847  -1.12812
  Beta  occ. eigenvalues --   -0.17291  -0.13024  -0.11017
  Beta virt. eigenvalues --   -0.07756  -0.06429  -0.04990  -0.04322  -0.02891
  Beta virt. eigenvalues --   -0.02485  -0.02200  -0.01751  -0.01051  -0.00863
  Beta virt. eigenvalues --   -0.00036   0.00021   0.00291   0.00427   0.00570

 Mulliken charges and spin densities:
               1          2
     1  Na  -0.113852   0.088559
     2  Na   0.240560   0.226844
     3  Na   0.508181   0.295129
     4  Na  -0.261979  -0.028416
     5  Na  -0.648378   0.027371
     6  Na  -0.024630   0.087677
     7  Na   0.300099   0.302837
 Sum of Mulliken charges =  -0.00000   1.00000

 Dipole moment (field-independent basis, Debye):
    X=              0.9917    Y=              0.2398    Z=             -0.1500  Tot=              1.0312
 Quadrupole moment (field-independent basis, Debye-Ang):
   XX=            -53.9257   YY=            -77.5969   ZZ=            -64.9762
   XY=             -0.4746   XZ=              2.2926   YZ=              0.0054

 Normal termination of Gaussian 16 at Tue Dec  5 19:22:14 2023.
