 Gaussian 16, Revision B.01,
 Gaussian 16:  ES64L-G16RevB.01 20-Dec-2017

 -------------------------
 #P B3LYP/6-311+g(d) force
 -------------------------

 -----
 DPGEN
 -----
 Symbolic Z-matrix:
 Charge =  0 Multiplicity = 2

                         Standard orientation:
 ---------------------------------------------------------------------
 Center     Atomic      Atomic             Coordinates (Angstroms)
 Number     Number       Type             X           Y           Z
 ---------------------------------------------------------------------
      1         11           0       -0.501040    0.395147    1.777053
      2         11           0       -2.719535   -2.347741    0.479887
      3         11           0        2.673806    1.191761    0.726107
      4         11           0        3.514542   -1.981862   -0.226081
      5         11           0       -0.150010    3.028628   -0.648380
      6         11           0        0.345265   -0.814661   -1.629918
      7         11           0       -3.163029    0.528728   -0.478667
 ---------------------------------------------------------------------

 SCF Done:  E(UB3LYP) =  -1136.12751604     A.U. after   21 cycles

 The electronic state is 2-A.
 Alpha  occ. eigenvalues --  -38.44715 -38.44211 -38.44076 -38.44000 -38.43915
 Alpha  occ. eigenvalues --  -38.43856 -38.43028  -2.20572  -2.20028  -2.19909
 Alpha  occ. eigenvalues --   -2.19845  -2.19735  -2.19692  -2.18840  -1.14259
 Alpha  occ. eigenvalues --   -1.14239  -1.14212  -1.13726  -1.13680  -1.13630
 Alpha  occ. eigenvalues --   -1.13580  -1.13551  -1.13547  -1.13545  -1.13511
 Alpha  occ. eigenvalues --   -1.13468  -1.13421  -1.13389  -1.13360  -1.13355
 Alpha  occ. eigenvalues --   -1.13329  -1.13326  -1.12514  -1.12495  -1.12483
 Alpha  occ. eigenvalues --   -0.17910  -0.13736  -0.11730  -0.10431
 Alpha virt. eigenvalues --   -0.06390  -0.05717  -0.04633  -0.03343  -0.02782
 Alpha virt. eigenvalues --   -0.02221  -0.02094  -0.01420  -0.00870  -0.00290
 Alpha virt. eigenvalues --   -0.00138   0.00230   0.00513   0.00604   0.00709

  Beta  occ. eigenvalues --  -38.44704 -38.44151 -38.44066 -38.43980 -38.43921
  Beta  occ. eigenvalues --  -38.43793 -38.43016  -2.20555  -2.19918  -2.19891
  Beta  occ. eigenvalues --   -2.19809  -2.19706  -2.19621  -2.18819  -1.14246
  Beta  occ. eigenvalues --   -1.14225  -1.14183  -1.13648  -1.13604  -1.13571
  Beta  occ. eigenvalues --   -1.13549  -1.13536  -1.13524  -1.13509  -1.13480
  Beta  occ. eigenvalues --   -1.13451  -1.13369  -1.13355  -1.13346  -1.13334
  Beta  occ. eigenvalues --   -1.13305  -1.13244  -1.12501  -1.12480  -1.12455
  Beta  occ. eigenvalues --   -0.17230  -0.13557  -0.11523
  Beta virt. eigenvalues --   -0.06736  -0.06204  -0.05593  -0.04356  -0.02830
  Beta virt. eigenvalues --   -0.02212  -0.01995  -0.01533  -0.01110  -0.00822
  Beta virt. eigenvalues --   -0.00234   0.00045   0.00277   0.00631   0.00702

 Mulliken charges and spin densities:
               1          2
     1  Na  -0.034762   0.286272
     2  Na   0.144205   0.032011
     3  Na   0.257747   0.092640
     4  Na   0.027006  -0.095007
     5  Na  -0.253168   0.088410
     6  Na  -0.377421   0.443752
     7  Na   0.236393   0.151921
 Sum of Mulliken charges =  -0.00000   1.00000

 Dipole moment (field-independent basis, Debye):
    X=             -0.4282    Y=             -0.2607    Z=             -0.0079  Tot=              0.5014
 Quadrupole moment (field-independent basis, Debye-Ang):
   XX=            -55.3309   YY=            -64.2417   ZZ=            -75.1212
   XY=              0.2502   XZ=              1.9828   YZ=             -2.1622

 Normal termination of Gaussian 16 at Thu Dec  7 10:19:32 2023.
