 Gaussian 16, Revision B.01,
 Gaussian 16:  ES64L-G16RevB.01 20-Dec-2017

 -------------------------
 #P B3LYP/6-311+g(d) force
 -------------------------

 -----
 DPGEN
 -----
 Symbolic Z-matrix:
 Charge =  0 Multiplicity = 2

                         Standard orientation:
 ---------------------------------------------------------------------
 Center     Atomic      Atomic             Coordinates (Angstroms)
 Number     Number       Type             X           Y           Z
 ---------------------------------------------------------------------
      1         11           0       -1.794174    1.592110   -1.117376
      2         11           0        1.742515   -1.014301   -1.442118
      3         11           0        1.348302    2.356123   -0.184589
      4         11           0        4.011458   -0.477162    0.834430
      5         11           0       -3.695194    0.106976    1.280934
      6         11           0        0.303011   -0.520667    1.508664
      7         11           0       -1.915918   -2.043078   -0.879946
 ---------------------------------------------------------------------

 SCF Done:  E(UB3LYP) =  -1136.12342902     A.U. after   24 cycles

 The electronic state is 2-A.
 Alpha  occ. eigenvalues --  -38.45421 -38.44743 -38.44529 -38.44132 -38.43541
 Alpha  occ. eigenvalues --  -38.43193 -38.42450  -2.21258  -2.20557  -2.20353
 Alpha  occ. eigenvalues --   -2.20014  -2.19378  -2.19045  -2.18298  -1.14982
 Alpha  occ. eigenvalues --   -1.14918  -1.14865  -1.14238  -1.14199  -1.14181
 Alpha  occ. eigenvalues --   -1.14015  -1.13998  -1.13969  -1.13708  -1.13645
 Alpha  occ. eigenvalues --   -1.13643  -1.13052  -1.13050  -1.13000  -1.12724
 Alpha  occ. eigenvalues --   -1.12715  -1.12679  -1.11989  -1.11971  -1.11917
 Alpha  occ. eigenvalues --   -0.18175  -0.14277  -0.11035  -0.10728
 Alpha virt. eigenvalues --   -0.07085  -0.05244  -0.04860  -0.03119  -0.02938
 Alpha virt. eigenvalues --   -0.02298  -0.02114  -0.01340  -0.00850  -0.00345
 Alpha virt. eigenvalues --    0.00011   0.00196   0.00239   0.00610   0.00661

  Beta  occ. eigenvalues --  -38.45409 -38.44713 -38.44474 -38.44093 -38.43512
  Beta  occ. eigenvalues --  -38.43184 -38.42449  -2.21237  -2.20500  -2.20249
  Beta  occ. eigenvalues --   -2.19946  -2.19328  -2.19031  -2.18299  -1.14947
  Beta  occ. eigenvalues --   -1.14906  -1.14851  -1.14199  -1.14160  -1.14141
  Beta  occ. eigenvalues --   -1.13944  -1.13925  -1.13903  -1.13665  -1.13597
  Beta  occ. eigenvalues --   -1.13572  -1.13020  -1.13016  -1.12940  -1.12709
  Beta  occ. eigenvalues --   -1.12692  -1.12669  -1.11992  -1.11963  -1.11914
  Beta  occ. eigenvalues --   -0.17561  -0.13928  -0.10717
  Beta virt. eigenvalues --   -0.07233  -0.06857  -0.04831  -0.04499  -0.02984
  Beta virt. eigenvalues --   -0.02668  -0.01772  -0.01513  -0.00917  -0.00732
  Beta virt. eigenvalues --   -0.00236   0.00091   0.00280   0.00348   0.00739

 Mulliken charges and spin densities:
               1          2
     1  Na  -0.258812   0.125882
     2  Na  -0.188169   0.211792
     3  Na  -0.232107  -0.018842
     4  Na   0.728817   0.188353
     5  Na   0.468078   0.261268
     6  Na  -0.535377   0.098623
     7  Na   0.017570   0.132924
 Sum of Mulliken charges =  -0.00000   1.00000

 Dipole moment (field-independent basis, Debye):
    X=              0.4540    Y=             -0.3217    Z=              0.3178  Tot=              0.6408
 Quadrupole moment (field-independent basis, Debye-Ang):
   XX=            -50.4369   YY=            -79.3391   ZZ=            -66.2385
   XY=              0.4669   XZ=              0.2187   YZ=              2.2027

 Normal termination of Gaussian 16 at Wed Dec  6 00:10:03 2023.
