 Gaussian 16, Revision B.01,
 Gaussian 16:  ES64L-G16RevB.01 20-Dec-2017

 -------------------------
 #P B3LYP/6-311+g(d) force
 -------------------------

 -----
 DPGEN
 -----
 Symbolic Z-matrix:
 Charge =  0 Multiplicity = 2

                         Standard orientation:
 ---------------------------------------------------------------------
 Center     Atomic      Atomic             Coordinates (Angstroms)
 Number     Number       Type             X           Y           Z
 ---------------------------------------------------------------------
      1         11           0        1.834067    3.145190   -0.222434
      2         11           0        3.733653   -1.426098   -0.372319
      3         11           0        1.070626   -1.349852   -1.345381
      4         11           0       -1.702194    1.308608   -0.577456
      5         11           0       -1.828016   -2.382991    0.646347
      6         11           0        1.425212    0.347278    2.000493
      7         11           0       -4.533348    0.357866   -0.129250
 ---------------------------------------------------------------------

 SCF Done:  E(UB3LYP) =  -1136.11051137     A.U. after   23 cycles

 The electronic state is 2-A.
 Alpha  occ. eigenvalues --  -38.45235 -38.44374 -38.44286 -38.44100 -38.44015
 Alpha  occ. eigenvalues --  -38.43870 -38.43761  -2.21027  -2.20207  -2.20173
 Alpha  occ. eigenvalues --   -2.19896  -2.19853  -2.19743  -2.19512  -1.14703
 Alpha  occ. eigenvalues --   -1.14680  -1.14639  -1.13983  -1.13930  -1.13847
 Alpha  occ. eigenvalues --   -1.13817  -1.13812  -1.13802  -1.13566  -1.13562
 Alpha  occ. eigenvalues --   -1.13546  -1.13518  -1.13506  -1.13445  -1.13384
 Alpha  occ. eigenvalues --   -1.13352  -1.13347  -1.13194  -1.13177  -1.13154
 Alpha  occ. eigenvalues --   -0.17308  -0.13952  -0.11731  -0.10404
 Alpha virt. eigenvalues --   -0.07268  -0.05760  -0.03865  -0.03348  -0.03210
 Alpha virt. eigenvalues --   -0.02627  -0.01918  -0.01578  -0.01127  -0.00568
 Alpha virt. eigenvalues --   -0.00491  -0.00008   0.00213   0.00503   0.00699

  Beta  occ. eigenvalues --  -38.45199 -38.44323 -38.44268 -38.44042 -38.44005
  Beta  occ. eigenvalues --  -38.43817 -38.43779  -2.20959  -2.20146  -2.20114
  Beta  occ. eigenvalues --   -2.19839  -2.19788  -2.19646  -2.19547  -1.14649
  Beta  occ. eigenvalues --   -1.14636  -1.14592  -1.13947  -1.13866  -1.13798
  Beta  occ. eigenvalues --   -1.13784  -1.13755  -1.13752  -1.13552  -1.13493
  Beta  occ. eigenvalues --   -1.13490  -1.13464  -1.13436  -1.13430  -1.13315
  Beta  occ. eigenvalues --   -1.13291  -1.13280  -1.13216  -1.13202  -1.13174
  Beta  occ. eigenvalues --   -0.16828  -0.13348  -0.11452
  Beta virt. eigenvalues --   -0.07063  -0.06956  -0.05557  -0.03516  -0.02992
  Beta virt. eigenvalues --   -0.02908  -0.02301  -0.01684  -0.01391  -0.00718
  Beta virt. eigenvalues --   -0.00264  -0.00185   0.00050   0.00345   0.00554

 Mulliken charges and spin densities:
               1          2
     1  Na   0.087718  -0.047521
     2  Na  -0.099115   0.124371
     3  Na   0.313728   0.236989
     4  Na  -0.812829   0.141418
     5  Na  -0.059866   0.236818
     6  Na   0.164963   0.258410
     7  Na   0.405399   0.049515
 Sum of Mulliken charges =  -0.00000   1.00000

 Dipole moment (field-independent basis, Debye):
    X=             -0.0685    Y=             -0.3093    Z=              0.9329  Tot=              0.9852
 Quadrupole moment (field-independent basis, Debye-Ang):
   XX=            -59.5559   YY=            -74.6540   ZZ=            -66.3335
   XY=              6.6345   XZ=              1.7640   YZ=             -4.0211

 Normal termination of Gaussian 16 at Mon Dec  4 04:10:14 2023.
