 Gaussian 16, Revision B.01,
 Gaussian 16:  ES64L-G16RevB.01 20-Dec-2017

 -------------------------
 #P B3LYP/6-311+g(d) force
 -------------------------

 -----
 DPGEN
 -----
 Symbolic Z-matrix:
 Charge =  0 Multiplicity = 2

                         Standard orientation:
 ---------------------------------------------------------------------
 Center     Atomic      Atomic             Coordinates (Angstroms)
 Number     Number       Type             X           Y           Z
 ---------------------------------------------------------------------
      1         11           0       -2.918004    2.186622    0.751255
      2         11           0        4.229585   -1.103207   -0.779369
      3         11           0       -1.462676   -3.039915   -0.142945
      4         11           0       -4.260472   -0.988188   -0.447610
      5         11           0        1.594365   -2.290728    0.920429
      6         11           0        3.204909    2.246883    0.497678
      7         11           0       -0.387708    2.988534   -0.799438
 ---------------------------------------------------------------------

 SCF Done:  E(UB3LYP) =  -1136.10794266     A.U. after   24 cycles

 The electronic state is 2-A.
 Alpha  occ. eigenvalues --  -38.45603 -38.45172 -38.44947 -38.44181 -38.43863
 Alpha  occ. eigenvalues --  -38.43819 -38.43509  -2.21336  -2.20945  -2.20746
 Alpha  occ. eigenvalues --   -2.19970  -2.19687  -2.19630  -2.19321  -1.15022
 Alpha  occ. eigenvalues --   -1.14999  -1.14956  -1.14618  -1.14611  -1.14572
 Alpha  occ. eigenvalues --   -1.14445  -1.14411  -1.14378  -1.13654  -1.13647
 Alpha  occ. eigenvalues --   -1.13615  -1.13352  -1.13344  -1.13306  -1.13299
 Alpha  occ. eigenvalues --   -1.13275  -1.13263  -1.12970  -1.12957  -1.12951
 Alpha  occ. eigenvalues --   -0.15768  -0.13958  -0.13069  -0.10279
 Alpha virt. eigenvalues --   -0.07606  -0.05277  -0.04169  -0.03559  -0.02988
 Alpha virt. eigenvalues --   -0.02737  -0.02372  -0.01835  -0.00867  -0.00728
 Alpha virt. eigenvalues --   -0.00242  -0.00119   0.00150   0.00174   0.00612

  Beta  occ. eigenvalues --  -38.45583 -38.45159 -38.44934 -38.44166 -38.43817
  Beta  occ. eigenvalues --  -38.43787 -38.43433  -2.21302  -2.20923  -2.20727
  Beta  occ. eigenvalues --   -2.19948  -2.19604  -2.19572  -2.19179  -1.15000
  Beta  occ. eigenvalues --   -1.14977  -1.14921  -1.14605  -1.14595  -1.14546
  Beta  occ. eigenvalues --   -1.14425  -1.14402  -1.14342  -1.13639  -1.13636
  Beta  occ. eigenvalues --   -1.13560  -1.13301  -1.13289  -1.13257  -1.13235
  Beta  occ. eigenvalues --   -1.13234  -1.13225  -1.12873  -1.12863  -1.12857
  Beta  occ. eigenvalues --   -0.15293  -0.13321  -0.12350
  Beta virt. eigenvalues --   -0.07762  -0.07070  -0.05023  -0.03741  -0.03252
  Beta virt. eigenvalues --   -0.02530  -0.02457  -0.02145  -0.01735  -0.00757
  Beta virt. eigenvalues --   -0.00452  -0.00094   0.00088   0.00220   0.00343

 Mulliken charges and spin densities:
               1          2
     1  Na   0.201370   0.054743
     2  Na   0.418706   0.114570
     3  Na   0.083686   0.007197
     4  Na   0.018842   0.410294
     5  Na  -0.440880   0.175329
     6  Na   0.094757   0.137299
     7  Na  -0.376480   0.100569
 Sum of Mulliken charges =  -0.00000   1.00000

 Dipole moment (field-independent basis, Debye):
    X=              1.4480    Y=              0.5955    Z=             -0.0073  Tot=              1.5657
 Quadrupole moment (field-independent basis, Debye-Ang):
   XX=            -63.3802   YY=            -69.9276   ZZ=            -67.7640
   XY=             -2.4746   XZ=             -2.6630   YZ=              4.0380

 Normal termination of Gaussian 16 at Mon Dec  4 05:06:20 2023.
