 Gaussian 16, Revision B.01,
 Gaussian 16:  ES64L-G16RevB.01 20-Dec-2017

 -------------------------
 #P B3LYP/6-311+g(d) force
 -------------------------

 -----
 DPGEN
 -----
 Symbolic Z-matrix:
 Charge =  0 Multiplicity = 2

                         Standard orientation:
 ---------------------------------------------------------------------
 Center     Atomic      Atomic             Coordinates (Angstroms)
 Number     Number       Type             X           Y           Z
 ---------------------------------------------------------------------
      1         11           0        1.121112    1.084070    1.790179
      2         11           0       -0.197323   -1.837900    1.423547
      3         11           0       -3.830611   -0.982770   -0.258841
      4         11           0        3.037479    1.926643   -0.534598
      5         11           0        2.834956   -1.897002   -0.651115
      6         11           0       -2.817380    2.084497   -0.183523
      7         11           0       -0.148234   -0.377538   -1.585650
 ---------------------------------------------------------------------

 SCF Done:  E(UB3LYP) =  -1136.11827804     A.U. after   24 cycles

 The electronic state is 2-A.
 Alpha  occ. eigenvalues --  -38.45260 -38.44746 -38.44591 -38.44420 -38.43452
 Alpha  occ. eigenvalues --  -38.43326 -38.42856  -2.21043  -2.20587  -2.20371
 Alpha  occ. eigenvalues --   -2.20227  -2.19268  -2.19223  -2.18744  -1.14719
 Alpha  occ. eigenvalues --   -1.14702  -1.14679  -1.14298  -1.14235  -1.14207
 Alpha  occ. eigenvalues --   -1.14045  -1.14024  -1.14014  -1.13901  -1.13867
 Alpha  occ. eigenvalues --   -1.13853  -1.13012  -1.12926  -1.12911  -1.12891
 Alpha  occ. eigenvalues --   -1.12852  -1.12813  -1.12435  -1.12384  -1.12349
 Alpha  occ. eigenvalues --   -0.17793  -0.13862  -0.11036  -0.11015
 Alpha virt. eigenvalues --   -0.06665  -0.06093  -0.03802  -0.03261  -0.02946
 Alpha virt. eigenvalues --   -0.02520  -0.02465  -0.01504  -0.00685  -0.00484
 Alpha virt. eigenvalues --    0.00044   0.00143   0.00390   0.00502   0.00647

  Beta  occ. eigenvalues --  -38.45258 -38.44719 -38.44592 -38.44386 -38.43446
  Beta  occ. eigenvalues --  -38.43253 -38.42802  -2.21041  -2.20537  -2.20374
  Beta  occ. eigenvalues --   -2.20166  -2.19258  -2.19091  -2.18646  -1.14718
  Beta  occ. eigenvalues --   -1.14695  -1.14678  -1.14256  -1.14204  -1.14163
  Beta  occ. eigenvalues --   -1.14046  -1.14026  -1.14011  -1.13847  -1.13830
  Beta  occ. eigenvalues --   -1.13809  -1.12984  -1.12920  -1.12888  -1.12803
  Beta  occ. eigenvalues --   -1.12765  -1.12727  -1.12368  -1.12308  -1.12275
  Beta  occ. eigenvalues --   -0.17106  -0.13616  -0.10897
  Beta virt. eigenvalues --   -0.07074  -0.06508  -0.05999  -0.03414  -0.02992
  Beta virt. eigenvalues --   -0.02419  -0.02316  -0.01585  -0.01388  -0.00649
  Beta virt. eigenvalues --   -0.00202   0.00068   0.00205   0.00456   0.00617

 Mulliken charges and spin densities:
               1          2
     1  Na  -0.008442   0.173345
     2  Na  -0.086189   0.286963
     3  Na   0.226659   0.021485
     4  Na  -0.065686   0.078108
     5  Na   0.132146   0.239719
     6  Na   0.009572   0.025045
     7  Na  -0.208059   0.175335
 Sum of Mulliken charges =  -0.00000   1.00000

 Dipole moment (field-independent basis, Debye):
    X=             -1.0923    Y=             -0.6168    Z=             -0.4706  Tot=              1.3398
 Quadrupole moment (field-independent basis, Debye-Ang):
   XX=            -52.1927   YY=            -71.1624   ZZ=            -72.0247
   XY=             -0.5386   XZ=             -1.9905   YZ=             -1.2861

 Normal termination of Gaussian 16 at Wed Nov 29 16:18:26 2023.
