 Gaussian 16, Revision B.01,
 Gaussian 16:  ES64L-G16RevB.01 20-Dec-2017

 -------------------------
 #P B3LYP/6-311+g(d) force
 -------------------------

 -----
 DPGEN
 -----
 Symbolic Z-matrix:
 Charge =  0 Multiplicity = 2

                         Standard orientation:
 ---------------------------------------------------------------------
 Center     Atomic      Atomic             Coordinates (Angstroms)
 Number     Number       Type             X           Y           Z
 ---------------------------------------------------------------------
      1         11           0        0.837839   -2.707898    0.270076
      2         11           0       -3.100249   -1.481120   -0.499578
      3         11           0        3.325031   -0.397848   -0.435730
      4         11           0       -0.631186   -0.102021    2.157520
      5         11           0       -2.061061    2.335265   -0.342469
      6         11           0        1.542238    2.435199    0.295664
      7         11           0        0.087389   -0.081577   -1.445482
 ---------------------------------------------------------------------

 SCF Done:  E(UB3LYP) =  -1136.13540095     A.U. after   19 cycles

 The electronic state is 2-A.
 Alpha  occ. eigenvalues --  -38.44448 -38.43943 -38.43889 -38.43590 -38.43489
 Alpha  occ. eigenvalues --  -38.43377 -38.43200  -2.20220  -2.19779  -2.19699
 Alpha  occ. eigenvalues --   -2.19453  -2.19337  -2.19217  -2.19180  -1.13898
 Alpha  occ. eigenvalues --   -1.13865  -1.13859  -1.13452  -1.13438  -1.13424
 Alpha  occ. eigenvalues --   -1.13389  -1.13362  -1.13325  -1.13126  -1.13079
 Alpha  occ. eigenvalues --   -1.13071  -1.13052  -1.13000  -1.12949  -1.12922
 Alpha  occ. eigenvalues --   -1.12885  -1.12864  -1.12845  -1.12813  -1.12789
 Alpha  occ. eigenvalues --   -0.18289  -0.13025  -0.12211  -0.10637
 Alpha virt. eigenvalues --   -0.05964  -0.05364  -0.04489  -0.03120  -0.02860
 Alpha virt. eigenvalues --   -0.02462  -0.01845  -0.01257  -0.00576  -0.00261
 Alpha virt. eigenvalues --   -0.00047   0.00302   0.00710   0.00798   0.00844

  Beta  occ. eigenvalues --  -38.44435 -38.43938 -38.43883 -38.43488 -38.43481
  Beta  occ. eigenvalues --  -38.43372 -38.43158  -2.20199  -2.19770  -2.19692
  Beta  occ. eigenvalues --   -2.19325  -2.19266  -2.19211  -2.19103  -1.13872
  Beta  occ. eigenvalues --   -1.13852  -1.13843  -1.13439  -1.13429  -1.13420
  Beta  occ. eigenvalues --   -1.13377  -1.13351  -1.13316  -1.13053  -1.12999
  Beta  occ. eigenvalues --   -1.12972  -1.12947  -1.12947  -1.12921  -1.12908
  Beta  occ. eigenvalues --   -1.12866  -1.12838  -1.12809  -1.12765  -1.12732
  Beta  occ. eigenvalues --   -0.17613  -0.12769  -0.12006
  Beta virt. eigenvalues --   -0.06761  -0.05888  -0.05313  -0.04406  -0.02484
  Beta virt. eigenvalues --   -0.02106  -0.01724  -0.01443  -0.01219  -0.00550
  Beta virt. eigenvalues --   -0.00288   0.00112   0.00354   0.00784   0.00824

 Mulliken charges and spin densities:
               1          2
     1  Na   0.152900   0.026961
     2  Na   0.024722   0.000763
     3  Na   0.204126   0.029251
     4  Na  -0.353985   0.637934
     5  Na   0.058737   0.009263
     6  Na   0.080530   0.067919
     7  Na  -0.167030   0.227909
 Sum of Mulliken charges =  -0.00000   1.00000

 Dipole moment (field-independent basis, Debye):
    X=             -0.2897    Y=             -0.0833    Z=              0.0734  Tot=              0.3103
 Quadrupole moment (field-independent basis, Debye-Ang):
   XX=            -53.8691   YY=            -63.9572   ZZ=            -74.6497
   XY=              0.0514   XZ=              0.9140   YZ=              0.2981

 Normal termination of Gaussian 16 at Thu Dec  7 23:03:18 2023.
