 Gaussian 16, Revision B.01,
 Gaussian 16:  ES64L-G16RevB.01 20-Dec-2017

 -------------------------
 #P B3LYP/6-311+g(d) force
 -------------------------

 -----
 DPGEN
 -----
 Symbolic Z-matrix:
 Charge =  0 Multiplicity = 2

                         Standard orientation:
 ---------------------------------------------------------------------
 Center     Atomic      Atomic             Coordinates (Angstroms)
 Number     Number       Type             X           Y           Z
 ---------------------------------------------------------------------
      1         11           0       -2.030462   -2.132654   -0.421222
      2         11           0       -3.128548    0.704559   -0.091488
      3         11           0       -0.153303    3.050081    0.418576
      4         11           0        0.177760    0.340033   -1.272617
      5         11           0        3.158391    0.968195   -0.352652
      6         11           0       -0.080748   -0.584921    1.531561
      7         11           0        2.056910   -2.345292    0.187842
 ---------------------------------------------------------------------

 SCF Done:  E(UB3LYP) =  -1136.12789621     A.U. after   21 cycles

 The electronic state is 2-A.
 Alpha  occ. eigenvalues --  -38.44294 -38.44294 -38.43780 -38.43577 -38.43337
 Alpha  occ. eigenvalues --  -38.43126 -38.42887  -2.20160  -2.20126  -2.19642
 Alpha  occ. eigenvalues --   -2.19493  -2.19183  -2.19165  -2.18923  -1.13862
 Alpha  occ. eigenvalues --   -1.13822  -1.13819  -1.13791  -1.13774  -1.13752
 Alpha  occ. eigenvalues --   -1.13358  -1.13295  -1.13265  -1.13189  -1.13148
 Alpha  occ. eigenvalues --   -1.13121  -1.12996  -1.12895  -1.12824  -1.12800
 Alpha  occ. eigenvalues --   -1.12783  -1.12757  -1.12595  -1.12529  -1.12508
 Alpha  occ. eigenvalues --   -0.18906  -0.13611  -0.12441  -0.09928
 Alpha virt. eigenvalues --   -0.06033  -0.05347  -0.04762  -0.03022  -0.02546
 Alpha virt. eigenvalues --   -0.02002  -0.01502  -0.01350  -0.00543  -0.00470
 Alpha virt. eigenvalues --    0.00048   0.00301   0.00712   0.00802   0.00844

  Beta  occ. eigenvalues --  -38.44286 -38.44273 -38.43771 -38.43560 -38.43325
  Beta  occ. eigenvalues --  -38.43089 -38.42814  -2.20148  -2.20090  -2.19629
  Beta  occ. eigenvalues --   -2.19466  -2.19145  -2.19118  -2.18789  -1.13855
  Beta  occ. eigenvalues --   -1.13807  -1.13787  -1.13765  -1.13741  -1.13729
  Beta  occ. eigenvalues --   -1.13339  -1.13280  -1.13248  -1.13173  -1.13123
  Beta  occ. eigenvalues --   -1.13081  -1.12932  -1.12874  -1.12800  -1.12775
  Beta  occ. eigenvalues --   -1.12740  -1.12721  -1.12506  -1.12442  -1.12404
  Beta  occ. eigenvalues --   -0.18288  -0.13240  -0.12171
  Beta virt. eigenvalues --   -0.06303  -0.05839  -0.05283  -0.04687  -0.02313
  Beta virt. eigenvalues --   -0.01909  -0.01833  -0.01264  -0.00731  -0.00505
  Beta virt. eigenvalues --   -0.00473   0.00195   0.00383   0.00771   0.00826

 Mulliken charges and spin densities:
               1          2
     1  Na   0.213253   0.100019
     2  Na   0.211829   0.066568
     3  Na  -0.124371   0.065273
     4  Na  -0.497204   0.145956
     5  Na   0.105409   0.073583
     6  Na  -0.182730   0.568759
     7  Na   0.273813  -0.020158
 Sum of Mulliken charges =  -0.00000   1.00000

 Dipole moment (field-independent basis, Debye):
    X=              0.1183    Y=              0.0531    Z=              0.1786  Tot=              0.2207
 Quadrupole moment (field-independent basis, Debye-Ang):
   XX=            -52.8419   YY=            -61.0111   ZZ=            -77.2011
   XY=             -1.2187   XZ=              0.2934   YZ=              2.0651

 Normal termination of Gaussian 16 at Tue Nov 28 19:50:46 2023.
