 Gaussian 16, Revision B.01,
 Gaussian 16:  ES64L-G16RevB.01 20-Dec-2017

 -------------------------
 #P B3LYP/6-311+g(d) force
 -------------------------

 -----
 DPGEN
 -----
 Symbolic Z-matrix:
 Charge =  0 Multiplicity = 2

                         Standard orientation:
 ---------------------------------------------------------------------
 Center     Atomic      Atomic             Coordinates (Angstroms)
 Number     Number       Type             X           Y           Z
 ---------------------------------------------------------------------
      1         11           0        1.278735    0.384228    2.242294
      2         11           0       -1.137919    2.168758    0.549609
      3         11           0        1.618446    2.001805   -0.953273
      4         11           0       -0.814833   -1.956504    1.619213
      5         11           0       -3.370113   -0.337693   -0.853946
      6         11           0       -0.431471   -0.749040   -1.575783
      7         11           0        2.857155   -1.511554   -1.028113
 ---------------------------------------------------------------------

 SCF Done:  E(UB3LYP) =  -1136.12865287     A.U. after   21 cycles

 The electronic state is 2-A.
 Alpha  occ. eigenvalues --  -38.44646 -38.44509 -38.43865 -38.43704 -38.43485
 Alpha  occ. eigenvalues --  -38.43420 -38.42675  -2.20525  -2.20354  -2.19705
 Alpha  occ. eigenvalues --   -2.19500  -2.19378  -2.19366  -2.18561  -1.14251
 Alpha  occ. eigenvalues --   -1.14143  -1.14139  -1.14027  -1.13988  -1.13954
 Alpha  occ. eigenvalues --   -1.13441  -1.13342  -1.13330  -1.13185  -1.13151
 Alpha  occ. eigenvalues --   -1.13139  -1.13086  -1.13051  -1.13019  -1.13014
 Alpha  occ. eigenvalues --   -1.12988  -1.12977  -1.12251  -1.12241  -1.12170
 Alpha  occ. eigenvalues --   -0.18542  -0.12881  -0.12547  -0.11560
 Alpha virt. eigenvalues --   -0.05464  -0.04640  -0.04548  -0.03661  -0.03234
 Alpha virt. eigenvalues --   -0.03179  -0.01519  -0.00736  -0.00637   0.00126
 Alpha virt. eigenvalues --    0.00312   0.00403   0.00597   0.00769   0.00874

  Beta  occ. eigenvalues --  -38.44566 -38.44446 -38.43856 -38.43690 -38.43465
  Beta  occ. eigenvalues --  -38.43382 -38.42671  -2.20380  -2.20240  -2.19690
  Beta  occ. eigenvalues --   -2.19476  -2.19330  -2.19310  -2.18556  -1.14136
  Beta  occ. eigenvalues --   -1.14047  -1.14033  -1.13946  -1.13903  -1.13870
  Beta  occ. eigenvalues --   -1.13420  -1.13333  -1.13320  -1.13158  -1.13134
  Beta  occ. eigenvalues --   -1.13123  -1.13055  -1.13007  -1.12989  -1.12974
  Beta  occ. eigenvalues --   -1.12950  -1.12931  -1.12250  -1.12219  -1.12168
  Beta  occ. eigenvalues --   -0.17733  -0.12656  -0.11382
  Beta virt. eigenvalues --   -0.08360  -0.05297  -0.04526  -0.04061  -0.03136
  Beta virt. eigenvalues --   -0.02716  -0.02398  -0.01419  -0.00656  -0.00311
  Beta virt. eigenvalues --    0.00226   0.00356   0.00459   0.00685   0.00859

 Mulliken charges and spin densities:
               1          2
     1  Na   0.135303   0.332487
     2  Na  -0.256214   0.139739
     3  Na   0.226267   0.094518
     4  Na  -0.174458   0.193475
     5  Na   0.616115  -0.050338
     6  Na  -0.602205   0.405954
     7  Na   0.055192  -0.115836
 Sum of Mulliken charges =  -0.00000   1.00000

 Dipole moment (field-independent basis, Debye):
    X=              0.0242    Y=             -0.2266    Z=              0.3556  Tot=              0.4224
 Quadrupole moment (field-independent basis, Debye-Ang):
   XX=            -57.5971   YY=            -73.3738   ZZ=            -64.6898
   XY=              0.4188   XZ=             -0.2344   YZ=             -2.5231

 Normal termination of Gaussian 16 at Mon Dec  4 00:51:40 2023.
