 Gaussian 16, Revision B.01,
 Gaussian 16:  ES64L-G16RevB.01 20-Dec-2017

 -------------------------
 #P B3LYP/6-311+g(d) force
 -------------------------

 -----
 DPGEN
 -----
 Symbolic Z-matrix:
 Charge =  0 Multiplicity = 2

                         Standard orientation:
 ---------------------------------------------------------------------
 Center     Atomic      Atomic             Coordinates (Angstroms)
 Number     Number       Type             X           Y           Z
 ---------------------------------------------------------------------
      1         11           0        2.333075    3.433001   -0.440999
      2         11           0       -3.186320   -1.953429    0.522259
      3         11           0       -4.046445    1.317135    0.750330
      4         11           0        3.644613    0.099336    1.333451
      5         11           0       -0.900015   -3.223381   -0.953523
      6         11           0       -1.296780    2.800173   -0.882997
      7         11           0        3.451872   -2.472836   -0.328521
 ---------------------------------------------------------------------

 SCF Done:  E(UB3LYP) =  -1136.10516691     A.U. after   19 cycles

 The electronic state is 2-A.
 Alpha  occ. eigenvalues --  -38.44888 -38.44810 -38.44593 -38.44376 -38.44333
 Alpha  occ. eigenvalues --  -38.44312 -38.44193  -2.20621  -2.20600  -2.20391
 Alpha  occ. eigenvalues --   -2.20155  -2.20145  -2.20138  -2.20010  -1.14323
 Alpha  occ. eigenvalues --   -1.14318  -1.14308  -1.14263  -1.14255  -1.14238
 Alpha  occ. eigenvalues --   -1.14038  -1.14026  -1.14016  -1.13970  -1.13810
 Alpha  occ. eigenvalues --   -1.13804  -1.13803  -1.13785  -1.13775  -1.13770
 Alpha  occ. eigenvalues --   -1.13765  -1.13711  -1.13656  -1.13639  -1.13638
 Alpha  occ. eigenvalues --   -0.15519  -0.14047  -0.13097  -0.11013
 Alpha virt. eigenvalues --   -0.07289  -0.05001  -0.04315  -0.03676  -0.03539
 Alpha virt. eigenvalues --   -0.02186  -0.02120  -0.01817  -0.01314  -0.01146
 Alpha virt. eigenvalues --   -0.00728  -0.00210   0.00105   0.00380   0.00676

  Beta  occ. eigenvalues --  -38.44901 -38.44797 -38.44560 -38.44310 -38.44304
  Beta  occ. eigenvalues --  -38.44273 -38.44124  -2.20649  -2.20581  -2.20333
  Beta  occ. eigenvalues --   -2.20136  -2.20041  -2.20022  -2.19882  -1.14341
  Beta  occ. eigenvalues --   -1.14331  -1.14294  -1.14253  -1.14239  -1.14217
  Beta  occ. eigenvalues --   -1.14000  -1.13991  -1.13968  -1.13910  -1.13806
  Beta  occ. eigenvalues --   -1.13783  -1.13720  -1.13711  -1.13703  -1.13698
  Beta  occ. eigenvalues --   -1.13686  -1.13644  -1.13568  -1.13559  -1.13554
  Beta  occ. eigenvalues --   -0.14974  -0.13359  -0.12238
  Beta virt. eigenvalues --   -0.07970  -0.07387  -0.04579  -0.03793  -0.03505
  Beta virt. eigenvalues --   -0.03303  -0.01956  -0.01835  -0.01567  -0.01005
  Beta virt. eigenvalues --   -0.00901  -0.00586   0.00051   0.00211   0.00356

 Mulliken charges and spin densities:
               1          2
     1  Na   0.198707   0.310335
     2  Na  -0.275964  -0.004911
     3  Na   0.567908   0.337299
     4  Na  -0.179173   0.031003
     5  Na   0.159201   0.251247
     6  Na  -0.530579  -0.057015
     7  Na   0.059900   0.132042
 Sum of Mulliken charges =  -0.00000   1.00000

 Dipole moment (field-independent basis, Debye):
    X=              0.4160    Y=             -0.1629    Z=              0.0367  Tot=              0.4482
 Quadrupole moment (field-independent basis, Debye-Ang):
   XX=            -63.8930   YY=            -70.1473   ZZ=            -67.9795
   XY=             -0.5052   XZ=             -2.0368   YZ=              2.6452

 Normal termination of Gaussian 16 at Sun Dec  3 14:56:54 2023.
