 Gaussian 16, Revision B.01,
 Gaussian 16:  ES64L-G16RevB.01 20-Dec-2017

 -------------------------
 #P B3LYP/6-311+g(d) force
 -------------------------

 -----
 DPGEN
 -----
 Symbolic Z-matrix:
 Charge =  0 Multiplicity = 2

                         Standard orientation:
 ---------------------------------------------------------------------
 Center     Atomic      Atomic             Coordinates (Angstroms)
 Number     Number       Type             X           Y           Z
 ---------------------------------------------------------------------
      1         11           0       -1.857644   -2.434460   -0.125163
      2         11           0       -1.429692    2.436961   -0.264993
      3         11           0        0.294590   -0.658361   -1.206781
      4         11           0        0.508494    0.212299    2.139424
      5         11           0        2.524602    2.015318   -0.487414
      6         11           0        3.304969   -1.698899   -0.044728
      7         11           0       -3.345319    0.127142   -0.010345
 ---------------------------------------------------------------------

 SCF Done:  E(UB3LYP) =  -1136.11973660     A.U. after   22 cycles

 The electronic state is 2-A.
 Alpha  occ. eigenvalues --  -38.45171 -38.44699 -38.44601 -38.43751 -38.43569
 Alpha  occ. eigenvalues --  -38.43394 -38.43213  -2.20940  -2.20594  -2.20391
 Alpha  occ. eigenvalues --   -2.19642  -2.19531  -2.19253  -2.19063  -1.14615
 Alpha  occ. eigenvalues --   -1.14595  -1.14578  -1.14317  -1.14259  -1.14227
 Alpha  occ. eigenvalues --   -1.14073  -1.14047  -1.14016  -1.13429  -1.13298
 Alpha  occ. eigenvalues --   -1.13261  -1.13219  -1.13159  -1.13123  -1.12918
 Alpha  occ. eigenvalues --   -1.12872  -1.12861  -1.12756  -1.12718  -1.12695
 Alpha  occ. eigenvalues --   -0.18325  -0.13891  -0.11794  -0.10243
 Alpha virt. eigenvalues --   -0.06714  -0.06078  -0.03942  -0.03414  -0.02463
 Alpha virt. eigenvalues --   -0.02354  -0.02159  -0.01667  -0.00826  -0.00206
 Alpha virt. eigenvalues --   -0.00079   0.00188   0.00575   0.00664   0.00758

  Beta  occ. eigenvalues --  -38.45168 -38.44698 -38.44586 -38.43749 -38.43541
  Beta  occ. eigenvalues --  -38.43281 -38.43208  -2.20938  -2.20592  -2.20364
  Beta  occ. eigenvalues --   -2.19641  -2.19483  -2.19058  -2.19043  -1.14609
  Beta  occ. eigenvalues --   -1.14582  -1.14580  -1.14320  -1.14259  -1.14209
  Beta  occ. eigenvalues --   -1.14044  -1.14025  -1.13998  -1.13417  -1.13301
  Beta  occ. eigenvalues --   -1.13239  -1.13173  -1.13125  -1.13095  -1.12778
  Beta  occ. eigenvalues --   -1.12755  -1.12726  -1.12716  -1.12706  -1.12678
  Beta  occ. eigenvalues --   -0.17679  -0.13658  -0.11620
  Beta virt. eigenvalues --   -0.06650  -0.06348  -0.05986  -0.03917  -0.02732
  Beta virt. eigenvalues --   -0.02292  -0.01713  -0.01602  -0.01164  -0.00808
  Beta virt. eigenvalues --   -0.00214   0.00130   0.00263   0.00655   0.00692

 Mulliken charges and spin densities:
               1          2
     1  Na   0.905305   0.142610
     2  Na   0.127512   0.070323
     3  Na  -0.591452   0.037713
     4  Na  -0.549671   0.654178
     5  Na   0.103450   0.061277
     6  Na   0.133658   0.041188
     7  Na  -0.128802  -0.007288
 Sum of Mulliken charges =  -0.00000   1.00000

 Dipole moment (field-independent basis, Debye):
    X=              0.8971    Y=             -0.2377    Z=              0.1736  Tot=              0.9442
 Quadrupole moment (field-independent basis, Debye-Ang):
   XX=            -48.9688   YY=            -66.8012   ZZ=            -77.2328
   XY=             -0.4737   XZ=             -0.5405   YZ=             -1.5778

 Normal termination of Gaussian 16 at Thu Dec  7 07:46:17 2023.
