 Gaussian 16, Revision B.01,
 Gaussian 16:  ES64L-G16RevB.01 20-Dec-2017

 -------------------------
 #P B3LYP/6-311+g(d) force
 -------------------------

 -----
 DPGEN
 -----
 Symbolic Z-matrix:
 Charge =  0 Multiplicity = 2

                         Standard orientation:
 ---------------------------------------------------------------------
 Center     Atomic      Atomic             Coordinates (Angstroms)
 Number     Number       Type             X           Y           Z
 ---------------------------------------------------------------------
      1         11           0       -0.819973    3.006912    0.029363
      2         11           0       -0.951571   -2.872150    0.258738
      3         11           0        2.553327   -1.899955   -0.010840
      4         11           0       -0.308117   -0.310317   -1.694789
      5         11           0       -0.009176    0.353790    2.009029
      6         11           0       -3.232330    0.045678   -0.238557
      7         11           0        2.767840    1.676042   -0.352944
 ---------------------------------------------------------------------

 SCF Done:  E(UB3LYP) =  -1136.13774736     A.U. after   19 cycles

 The electronic state is 2-A.
 Alpha  occ. eigenvalues --  -38.44091 -38.43977 -38.43828 -38.43785 -38.43655
 Alpha  occ. eigenvalues --  -38.43504 -38.43358  -2.19907  -2.19762  -2.19628
 Alpha  occ. eigenvalues --   -2.19591  -2.19489  -2.19374  -2.19283  -1.13599
 Alpha  occ. eigenvalues --   -1.13563  -1.13538  -1.13439  -1.13422  -1.13403
 Alpha  occ. eigenvalues --   -1.13305  -1.13291  -1.13280  -1.13269  -1.13257
 Alpha  occ. eigenvalues --   -1.13221  -1.13187  -1.13155  -1.13113  -1.13042
 Alpha  occ. eigenvalues --   -1.12997  -1.12993  -1.12962  -1.12911  -1.12905
 Alpha  occ. eigenvalues --   -0.18159  -0.12731  -0.12524  -0.10481
 Alpha virt. eigenvalues --   -0.05647  -0.05362  -0.05049  -0.03042  -0.02961
 Alpha virt. eigenvalues --   -0.02407  -0.01541  -0.01278  -0.00686  -0.00599
 Alpha virt. eigenvalues --   -0.00017   0.00352   0.00785   0.00817   0.00843

  Beta  occ. eigenvalues --  -38.44084 -38.43970 -38.43826 -38.43782 -38.43648
  Beta  occ. eigenvalues --  -38.43414 -38.43298  -2.19897  -2.19752  -2.19629
  Beta  occ. eigenvalues --   -2.19588  -2.19479  -2.19207  -2.19172  -1.13582
  Beta  occ. eigenvalues --   -1.13546  -1.13533  -1.13420  -1.13416  -1.13396
  Beta  occ. eigenvalues --   -1.13296  -1.13289  -1.13267  -1.13267  -1.13242
  Beta  occ. eigenvalues --   -1.13223  -1.13176  -1.13130  -1.13107  -1.12933
  Beta  occ. eigenvalues --   -1.12884  -1.12881  -1.12871  -1.12836  -1.12821
  Beta  occ. eigenvalues --   -0.17456  -0.12498  -0.12312
  Beta virt. eigenvalues --   -0.06652  -0.05606  -0.05377  -0.04911  -0.02305
  Beta virt. eigenvalues --   -0.02223  -0.01442  -0.01408  -0.01192  -0.00729
  Beta virt. eigenvalues --   -0.00647   0.00126   0.00388   0.00816   0.00830

 Mulliken charges and spin densities:
               1          2
     1  Na   0.070205  -0.109387
     2  Na   0.093463  -0.039720
     3  Na   0.005871  -0.068482
     4  Na  -0.068879   0.595831
     5  Na  -0.273921   0.751827
     6  Na   0.217544  -0.077705
     7  Na  -0.044283  -0.052365
 Sum of Mulliken charges =  -0.00000   1.00000

 Dipole moment (field-independent basis, Debye):
    X=             -0.1395    Y=              0.0502    Z=              0.0340  Tot=              0.1521
 Quadrupole moment (field-independent basis, Debye-Ang):
   XX=            -57.1774   YY=            -60.2768   ZZ=            -75.5617
   XY=             -0.1193   XZ=             -0.6236   YZ=             -1.6669

 Normal termination of Gaussian 16 at Fri Dec  8 03:20:27 2023.
