 Gaussian 16, Revision B.01,
 Gaussian 16:  ES64L-G16RevB.01 20-Dec-2017

 -------------------------
 #P B3LYP/6-311+g(d) force
 -------------------------

 -----
 DPGEN
 -----
 Symbolic Z-matrix:
 Charge =  0 Multiplicity = 2

                         Standard orientation:
 ---------------------------------------------------------------------
 Center     Atomic      Atomic             Coordinates (Angstroms)
 Number     Number       Type             X           Y           Z
 ---------------------------------------------------------------------
      1         11           0        2.019888   -2.205563    0.038385
      2         11           0        3.081888    0.972877   -0.430738
      3         11           0       -2.596919    1.654839    0.210729
      4         11           0        0.109221   -0.508565    2.346221
      5         11           0       -2.585500   -2.071787   -0.498961
      6         11           0        0.147015    2.579239   -0.128935
      7         11           0       -0.175594   -0.421039   -1.536702
 ---------------------------------------------------------------------

 SCF Done:  E(UB3LYP) =  -1136.12900258     A.U. after   21 cycles

 The electronic state is 2-A.
 Alpha  occ. eigenvalues --  -38.44270 -38.44094 -38.44052 -38.43971 -38.43966
 Alpha  occ. eigenvalues --  -38.43342 -38.42866  -2.20105  -2.19925  -2.19916
 Alpha  occ. eigenvalues --   -2.19818  -2.19784  -2.19324  -2.18785  -1.13754
 Alpha  occ. eigenvalues --   -1.13732  -1.13726  -1.13660  -1.13591  -1.13589
 Alpha  occ. eigenvalues --   -1.13583  -1.13563  -1.13536  -1.13508  -1.13500
 Alpha  occ. eigenvalues --   -1.13480  -1.13433  -1.13425  -1.13412  -1.13003
 Alpha  occ. eigenvalues --   -1.12975  -1.12943  -1.12470  -1.12437  -1.12420
 Alpha  occ. eigenvalues --   -0.18492  -0.13202  -0.12257  -0.11096
 Alpha virt. eigenvalues --   -0.05823  -0.05534  -0.04158  -0.03353  -0.03037
 Alpha virt. eigenvalues --   -0.02764  -0.01695  -0.01255  -0.00412  -0.00086
 Alpha virt. eigenvalues --   -0.00033   0.00305   0.00702   0.00813   0.00914

  Beta  occ. eigenvalues --  -38.44159 -38.44086 -38.44050 -38.43960 -38.43960
  Beta  occ. eigenvalues --  -38.43294 -38.42861  -2.19914  -2.19912  -2.19898
  Beta  occ. eigenvalues --   -2.19812  -2.19766  -2.19236  -2.18781  -1.13662
  Beta  occ. eigenvalues --   -1.13620  -1.13589  -1.13585  -1.13582  -1.13576
  Beta  occ. eigenvalues --   -1.13563  -1.13545  -1.13534  -1.13501  -1.13477
  Beta  occ. eigenvalues --   -1.13448  -1.13431  -1.13408  -1.13401  -1.12940
  Beta  occ. eigenvalues --   -1.12916  -1.12877  -1.12470  -1.12431  -1.12397
  Beta  occ. eigenvalues --   -0.17809  -0.12991  -0.11991
  Beta virt. eigenvalues --   -0.07150  -0.05759  -0.05440  -0.04108  -0.02613
  Beta virt. eigenvalues --   -0.02199  -0.01829  -0.01573  -0.01172  -0.00450
  Beta virt. eigenvalues --   -0.00051   0.00096   0.00352   0.00770   0.00844

 Mulliken charges and spin densities:
               1          2
     1  Na   0.352352   0.116078
     2  Na   0.133038   0.040933
     3  Na   0.171136   0.063853
     4  Na  -0.556000   0.584941
     5  Na   0.252089   0.070277
     6  Na  -0.050074   0.098345
     7  Na  -0.302540   0.025573
 Sum of Mulliken charges =  -0.00000   1.00000

 Dipole moment (field-independent basis, Debye):
    X=              0.0455    Y=             -0.4107    Z=              0.3036  Tot=              0.5127
 Quadrupole moment (field-independent basis, Debye-Ang):
   XX=            -55.1501   YY=            -66.8968   ZZ=            -73.0252
   XY=              0.1609   XZ=             -1.4062   YZ=              0.0727

 Normal termination of Gaussian 16 at Thu Dec  7 07:03:44 2023.
