 Gaussian 16, Revision B.01,
 Gaussian 16:  ES64L-G16RevB.01 20-Dec-2017

 -------------------------
 #P B3LYP/6-311+g(d) force
 -------------------------

 -----
 DPGEN
 -----
 Symbolic Z-matrix:
 Charge =  0 Multiplicity = 2

                         Standard orientation:
 ---------------------------------------------------------------------
 Center     Atomic      Atomic             Coordinates (Angstroms)
 Number     Number       Type             X           Y           Z
 ---------------------------------------------------------------------
      1         11           0       -0.042981    1.826045   -1.448158
      2         11           0        1.020899   -2.385662   -0.096219
      3         11           0       -3.163648    0.213249    0.989370
      4         11           0       -2.588262   -0.529310   -1.927376
      5         11           0       -0.367609   -0.758778    2.309809
      6         11           0        1.749342    2.437600    0.948834
      7         11           0        3.392260   -0.803145   -0.776261
 ---------------------------------------------------------------------

 SCF Done:  E(UB3LYP) =  -1136.11551551     A.U. after   22 cycles

 The electronic state is 2-A.
 Alpha  occ. eigenvalues --  -38.45056 -38.44761 -38.44516 -38.44359 -38.43490
 Alpha  occ. eigenvalues --  -38.43353 -38.43334  -2.20876  -2.20604  -2.20365
 Alpha  occ. eigenvalues --   -2.20218  -2.19321  -2.19205  -2.19186  -1.14598
 Alpha  occ. eigenvalues --   -1.14522  -1.14477  -1.14328  -1.14281  -1.14237
 Alpha  occ. eigenvalues --   -1.14012  -1.13990  -1.13982  -1.13878  -1.13860
 Alpha  occ. eigenvalues --   -1.13839  -1.13068  -1.12965  -1.12947  -1.12889
 Alpha  occ. eigenvalues --   -1.12866  -1.12855  -1.12845  -1.12835  -1.12789
 Alpha  occ. eigenvalues --   -0.17680  -0.13590  -0.11905  -0.11637
 Alpha virt. eigenvalues --   -0.06391  -0.05131  -0.04005  -0.03756  -0.03481
 Alpha virt. eigenvalues --   -0.03050  -0.01891  -0.00996  -0.00321  -0.00179
 Alpha virt. eigenvalues --    0.00029   0.00187   0.00393   0.00594   0.00727

  Beta  occ. eigenvalues --  -38.45028 -38.44753 -38.44462 -38.44288 -38.43462
  Beta  occ. eigenvalues --  -38.43345 -38.43327  -2.20826  -2.20593  -2.20263
  Beta  occ. eigenvalues --   -2.20087  -2.19267  -2.19195  -2.19175  -1.14559
  Beta  occ. eigenvalues --   -1.14488  -1.14441  -1.14299  -1.14261  -1.14232
  Beta  occ. eigenvalues --   -1.13940  -1.13928  -1.13914  -1.13794  -1.13768
  Beta  occ. eigenvalues --   -1.13745  -1.13036  -1.12923  -1.12912  -1.12874
  Beta  occ. eigenvalues --   -1.12850  -1.12847  -1.12831  -1.12829  -1.12768
  Beta  occ. eigenvalues --   -0.17011  -0.13227  -0.11508
  Beta virt. eigenvalues --   -0.08121  -0.06202  -0.04560  -0.03634  -0.03468
  Beta virt. eigenvalues --   -0.03091  -0.02353  -0.01796  -0.00658  -0.00268
  Beta virt. eigenvalues --    0.00073   0.00165   0.00289   0.00423   0.00732

 Mulliken charges and spin densities:
               1          2
     1  Na  -0.324655   0.301559
     2  Na  -0.432534   0.360993
     3  Na  -0.215999  -0.120656
     4  Na   0.420663   0.130049
     5  Na   0.391036   0.451206
     6  Na   0.017655   0.066610
     7  Na   0.143834  -0.189762
 Sum of Mulliken charges =  -0.00000   1.00000

 Dipole moment (field-independent basis, Debye):
    X=             -0.1359    Y=             -0.1329    Z=             -0.0782  Tot=              0.2056
 Quadrupole moment (field-independent basis, Debye-Ang):
   XX=            -56.4941   YY=            -76.9684   ZZ=            -65.4825
   XY=              1.0356   XZ=             -0.4970   YZ=              5.3452

 Normal termination of Gaussian 16 at Sun Dec  3 17:54:31 2023.
