 Gaussian 16, Revision B.01,
 Gaussian 16:  ES64L-G16RevB.01 20-Dec-2017

 -------------------------
 #P B3LYP/6-311+g(d) force
 -------------------------

 -----
 DPGEN
 -----
 Symbolic Z-matrix:
 Charge =  0 Multiplicity = 2

                         Standard orientation:
 ---------------------------------------------------------------------
 Center     Atomic      Atomic             Coordinates (Angstroms)
 Number     Number       Type             X           Y           Z
 ---------------------------------------------------------------------
      1         11           0        0.040318    2.674030    0.685095
      2         11           0        5.959331   -0.147482   -0.273379
      3         11           0        2.687963    1.180166   -0.587579
      4         11           0        2.664189   -2.479510    0.527534
      5         11           0       -0.532798   -0.452961   -0.079636
      6         11           0       -3.857043   -0.459550   -0.051806
      7         11           0       -6.961960   -0.314693   -0.220229
 ---------------------------------------------------------------------

 SCF Done:  E(UB3LYP) =  -1136.11471470     A.U. after   23 cycles

 The electronic state is 2-A.
 Alpha  occ. eigenvalues --  -38.45154 -38.44410 -38.44375 -38.44265 -38.44243
 Alpha  occ. eigenvalues --  -38.44091 -38.43619  -2.20928  -2.20213  -2.20171
 Alpha  occ. eigenvalues --   -2.20095  -2.20052  -2.19961  -2.19440  -1.14600
 Alpha  occ. eigenvalues --   -1.14583  -1.14524  -1.13891  -1.13867  -1.13858
 Alpha  occ. eigenvalues --   -1.13841  -1.13840  -1.13798  -1.13792  -1.13774
 Alpha  occ. eigenvalues --   -1.13723  -1.13702  -1.13702  -1.13674  -1.13641
 Alpha  occ. eigenvalues --   -1.13628  -1.13578  -1.13107  -1.13100  -1.13081
 Alpha  occ. eigenvalues --   -0.16873  -0.13708  -0.12218  -0.11316
 Alpha virt. eigenvalues --   -0.07213  -0.05612  -0.03894  -0.03678  -0.03170
 Alpha virt. eigenvalues --   -0.02517  -0.02038  -0.01782  -0.01146  -0.01062
 Alpha virt. eigenvalues --   -0.00519  -0.00155   0.00013   0.00250   0.00571

  Beta  occ. eigenvalues --  -38.45084 -38.44390 -38.44341 -38.44255 -38.44212
  Beta  occ. eigenvalues --  -38.44061 -38.43620  -2.20797  -2.20152  -2.20134
  Beta  occ. eigenvalues --   -2.20041  -2.20033  -2.19906  -2.19443  -1.14513
  Beta  occ. eigenvalues --   -1.14493  -1.14424  -1.13846  -1.13822  -1.13818
  Beta  occ. eigenvalues --   -1.13816  -1.13807  -1.13772  -1.13756  -1.13726
  Beta  occ. eigenvalues --   -1.13711  -1.13689  -1.13689  -1.13632  -1.13607
  Beta  occ. eigenvalues --   -1.13593  -1.13519  -1.13105  -1.13100  -1.13081
  Beta  occ. eigenvalues --   -0.16203  -0.13539  -0.11838
  Beta virt. eigenvalues --   -0.07842  -0.06641  -0.05274  -0.03637  -0.03349
  Beta virt. eigenvalues --   -0.02668  -0.02419  -0.01754  -0.01565  -0.00999
  Beta virt. eigenvalues --   -0.00738  -0.00195   0.00084   0.00149   0.00375

 Mulliken charges and spin densities:
               1          2
     1  Na   0.544451   0.109867
     2  Na  -0.029492   0.130651
     3  Na   0.434232   0.369970
     4  Na   0.763267   0.130656
     5  Na  -1.438748   0.195602
     6  Na  -0.716577   0.001920
     7  Na   0.442867   0.061334
 Sum of Mulliken charges =  -0.00000   1.00000

 Dipole moment (field-independent basis, Debye):
    X=              0.8055    Y=              0.3864    Z=              0.4518  Tot=              1.0012
 Quadrupole moment (field-independent basis, Debye-Ang):
   XX=            -54.1564   YY=            -66.5704   ZZ=            -72.2438
   XY=             -4.3149   XZ=              0.4101   YZ=              0.5179

 Normal termination of Gaussian 16 at Tue Nov 28 23:24:11 2023.
