 Gaussian 16, Revision B.01,
 Gaussian 16:  ES64L-G16RevB.01 20-Dec-2017

 -------------------------
 #P B3LYP/6-311+g(d) force
 -------------------------

 -----
 DPGEN
 -----
 Symbolic Z-matrix:
 Charge =  0 Multiplicity = 2

                         Standard orientation:
 ---------------------------------------------------------------------
 Center     Atomic      Atomic             Coordinates (Angstroms)
 Number     Number       Type             X           Y           Z
 ---------------------------------------------------------------------
      1         11           0       -1.437159   -2.550578   -0.375035
      2         11           0       -0.122029    3.147545    0.220280
      3         11           0       -0.290795    0.145217   -1.648741
      4         11           0        2.685607    1.170026   -0.480738
      5         11           0       -0.005783   -0.214075    2.020252
      6         11           0        2.376302   -2.118642    0.207359
      7         11           0       -3.206143    0.420507    0.056622
 ---------------------------------------------------------------------

 SCF Done:  E(UB3LYP) =  -1136.13828381     A.U. after   19 cycles

 The electronic state is 2-A.
 Alpha  occ. eigenvalues --  -38.44228 -38.43695 -38.43635 -38.43591 -38.43573
 Alpha  occ. eigenvalues --  -38.43547 -38.43229  -2.20042  -2.19551  -2.19491
 Alpha  occ. eigenvalues --   -2.19468  -2.19392  -2.19355  -2.19193  -1.13723
 Alpha  occ. eigenvalues --   -1.13703  -1.13679  -1.13269  -1.13214  -1.13191
 Alpha  occ. eigenvalues --   -1.13165  -1.13158  -1.13140  -1.13135  -1.13097
 Alpha  occ. eigenvalues --   -1.13095  -1.13052  -1.13037  -1.13032  -1.13027
 Alpha  occ. eigenvalues --   -1.13014  -1.12993  -1.12871  -1.12820  -1.12818
 Alpha  occ. eigenvalues --   -0.18448  -0.13006  -0.12342  -0.10691
 Alpha virt. eigenvalues --   -0.05675  -0.05000  -0.04976  -0.03181  -0.02897
 Alpha virt. eigenvalues --   -0.02537  -0.01539  -0.01218  -0.00439  -0.00394
 Alpha virt. eigenvalues --   -0.00002   0.00359   0.00796   0.00846   0.00877

  Beta  occ. eigenvalues --  -38.44225 -38.43684 -38.43624 -38.43571 -38.43545
  Beta  occ. eigenvalues --  -38.43499 -38.43166  -2.20041  -2.19534  -2.19473
  Beta  occ. eigenvalues --   -2.19391  -2.19354  -2.19299  -2.19079  -1.13714
  Beta  occ. eigenvalues --   -1.13698  -1.13672  -1.13249  -1.13184  -1.13173
  Beta  occ. eigenvalues --   -1.13154  -1.13135  -1.13126  -1.13055  -1.13038
  Beta  occ. eigenvalues --   -1.13032  -1.13025  -1.13016  -1.13011  -1.12989
  Beta  occ. eigenvalues --   -1.12977  -1.12952  -1.12793  -1.12738  -1.12734
  Beta  occ. eigenvalues --   -0.17725  -0.12764  -0.12127
  Beta virt. eigenvalues --   -0.06802  -0.05657  -0.04977  -0.04889  -0.02418
  Beta virt. eigenvalues --   -0.02165  -0.01495  -0.01453  -0.01131  -0.00466
  Beta virt. eigenvalues --   -0.00433   0.00129   0.00385   0.00814   0.00879

 Mulliken charges and spin densities:
               1          2
     1  Na   0.184693  -0.052997
     2  Na  -0.050442  -0.052995
     3  Na   0.017873   0.401359
     4  Na   0.129522  -0.012304
     5  Na  -0.415518   0.827187
     6  Na   0.073227  -0.042693
     7  Na   0.060646  -0.067557
 Sum of Mulliken charges =  -0.00000   1.00000

 Dipole moment (field-independent basis, Debye):
    X=             -0.3733    Y=             -0.0070    Z=              0.1283  Tot=              0.3948
 Quadrupole moment (field-independent basis, Debye-Ang):
   XX=            -57.3133   YY=            -61.0953   ZZ=            -74.7349
   XY=             -0.9062   XZ=             -0.8621   YZ=              0.8651

 Normal termination of Gaussian 16 at Thu Dec  7 03:12:24 2023.
