 Gaussian 16, Revision B.01,
 Gaussian 16:  ES64L-G16RevB.01 20-Dec-2017

 -------------------------
 #P B3LYP/6-311+g(d) force
 -------------------------

 -----
 DPGEN
 -----
 Symbolic Z-matrix:
 Charge =  0 Multiplicity = 2

                         Standard orientation:
 ---------------------------------------------------------------------
 Center     Atomic      Atomic             Coordinates (Angstroms)
 Number     Number       Type             X           Y           Z
 ---------------------------------------------------------------------
      1         11           0        0.400956    2.517236   -0.358468
      2         11           0       -0.285487   -2.263639    0.460786
      3         11           0        4.331865   -0.541686   -0.413249
      4         11           0        1.409340   -0.286750   -1.298736
      5         11           0        0.538418    0.556715    2.399713
      6         11           0       -1.922353    0.343642   -0.364626
      7         11           0       -4.472739   -0.325518   -0.425419
 ---------------------------------------------------------------------

 SCF Done:  E(UB3LYP) =  -1136.09845180     A.U. after   29 cycles

 The electronic state is 2-A.
 Alpha  occ. eigenvalues --  -38.44986 -38.44862 -38.44759 -38.44602 -38.43779
 Alpha  occ. eigenvalues --  -38.43212 -38.43035  -2.20822  -2.20736  -2.20570
 Alpha  occ. eigenvalues --   -2.20475  -2.19754  -2.19271  -2.18959  -1.14599
 Alpha  occ. eigenvalues --   -1.14495  -1.14476  -1.14445  -1.14326  -1.14307
 Alpha  occ. eigenvalues --   -1.14248  -1.14204  -1.14202  -1.14187  -1.14115
 Alpha  occ. eigenvalues --   -1.14077  -1.13450  -1.13420  -1.13397  -1.12995
 Alpha  occ. eigenvalues --   -1.12909  -1.12861  -1.12640  -1.12591  -1.12562
 Alpha  occ. eigenvalues --   -0.18703  -0.13699  -0.11826  -0.11367
 Alpha virt. eigenvalues --   -0.07641  -0.04341  -0.03817  -0.03399  -0.02962
 Alpha virt. eigenvalues --   -0.02772  -0.02404  -0.01166  -0.00844  -0.00508
 Alpha virt. eigenvalues --   -0.00173   0.00071   0.00471   0.00691   0.00903

  Beta  occ. eigenvalues --  -38.44955 -38.44807 -38.44695 -38.44573 -38.43772
  Beta  occ. eigenvalues --  -38.43195 -38.43002  -2.20765  -2.20634  -2.20450
  Beta  occ. eigenvalues --   -2.20423  -2.19748  -2.19250  -2.18899  -1.14530
  Beta  occ. eigenvalues --   -1.14454  -1.14434  -1.14400  -1.14256  -1.14237
  Beta  occ. eigenvalues --   -1.14181  -1.14165  -1.14122  -1.14106  -1.14070
  Beta  occ. eigenvalues --   -1.14040  -1.13436  -1.13395  -1.13384  -1.12953
  Beta  occ. eigenvalues --   -1.12872  -1.12851  -1.12588  -1.12552  -1.12529
  Beta  occ. eigenvalues --   -0.18156  -0.12877  -0.11491
  Beta virt. eigenvalues --   -0.07980  -0.07290  -0.03897  -0.03534  -0.03083
  Beta virt. eigenvalues --   -0.02693  -0.02612  -0.01854  -0.00841  -0.00488
  Beta virt. eigenvalues --   -0.00380   0.00026   0.00175   0.00573   0.00747

 Mulliken charges and spin densities:
               1          2
     1  Na   0.124352  -0.220284
     2  Na   0.163806   0.240244
     3  Na   0.017366   0.202660
     4  Na   0.111033  -0.008551
     5  Na  -0.200655   0.088908
     6  Na  -0.480508   0.390723
     7  Na   0.264606   0.306301
 Sum of Mulliken charges =  -0.00000   1.00000

 Dipole moment (field-independent basis, Debye):
    X=              0.5268    Y=              0.0968    Z=              1.5407  Tot=              1.6311
 Quadrupole moment (field-independent basis, Debye-Ang):
   XX=            -58.4398   YY=            -71.8331   ZZ=            -66.7143
   XY=              2.6504   XZ=              3.4331   YZ=             -1.4921

 Normal termination of Gaussian 16 at Fri Dec  8 18:52:16 2023.
