 Gaussian 16, Revision B.01,
 Gaussian 16:  ES64L-G16RevB.01 20-Dec-2017

 -------------------------
 #P B3LYP/6-311+g(d) force
 -------------------------

 -----
 DPGEN
 -----
 Symbolic Z-matrix:
 Charge =  0 Multiplicity = 2

                         Standard orientation:
 ---------------------------------------------------------------------
 Center     Atomic      Atomic             Coordinates (Angstroms)
 Number     Number       Type             X           Y           Z
 ---------------------------------------------------------------------
      1         11           0       -1.350399    2.047726   -0.956697
      2         11           0        0.136608   -1.857905   -0.950029
      3         11           0       -1.867379    0.144220    1.903005
      4         11           0        3.790987   -1.182372   -0.111732
      5         11           0        1.392458    0.439242    1.718995
      6         11           0       -3.789605   -1.181103   -0.570965
      7         11           0        1.687330    1.590192   -1.032576
 ---------------------------------------------------------------------

 SCF Done:  E(UB3LYP) =  -1136.12190427     A.U. after   24 cycles

 The electronic state is 2-A.
 Alpha  occ. eigenvalues --  -38.44965 -38.44346 -38.44314 -38.44077 -38.43941
 Alpha  occ. eigenvalues --  -38.43334 -38.43172  -2.20734  -2.20152  -2.20094
 Alpha  occ. eigenvalues --   -2.19961  -2.19890  -2.19280  -2.19041  -1.14440
 Alpha  occ. eigenvalues --   -1.14427  -1.14318  -1.13832  -1.13817  -1.13783
 Alpha  occ. eigenvalues --   -1.13775  -1.13755  -1.13731  -1.13677  -1.13608
 Alpha  occ. eigenvalues --   -1.13599  -1.13572  -1.13545  -1.13461  -1.12991
 Alpha  occ. eigenvalues --   -1.12957  -1.12889  -1.12710  -1.12685  -1.12647
 Alpha  occ. eigenvalues --   -0.18410  -0.13924  -0.11409  -0.11237
 Alpha virt. eigenvalues --   -0.06884  -0.05225  -0.04565  -0.03375  -0.02584
 Alpha virt. eigenvalues --   -0.02524  -0.02371  -0.01418  -0.00690  -0.00180
 Alpha virt. eigenvalues --    0.00107   0.00213   0.00447   0.00519   0.00735

  Beta  occ. eigenvalues --  -38.44948 -38.44347 -38.44309 -38.44014 -38.43877
  Beta  occ. eigenvalues --  -38.43309 -38.43146  -2.20702  -2.20156  -2.20085
  Beta  occ. eigenvalues --   -2.19848  -2.19776  -2.19235  -2.18995  -1.14415
  Beta  occ. eigenvalues --   -1.14396  -1.14297  -1.13826  -1.13820  -1.13785
  Beta  occ. eigenvalues --   -1.13763  -1.13749  -1.13723  -1.13586  -1.13534
  Beta  occ. eigenvalues --   -1.13519  -1.13493  -1.13459  -1.13376  -1.12955
  Beta  occ. eigenvalues --   -1.12914  -1.12857  -1.12669  -1.12649  -1.12617
  Beta  occ. eigenvalues --   -0.17720  -0.13812  -0.10983
  Beta virt. eigenvalues --   -0.07373  -0.06699  -0.05192  -0.03969  -0.03026
  Beta virt. eigenvalues --   -0.02487  -0.02007  -0.01642  -0.01203  -0.00293
  Beta virt. eigenvalues --   -0.00126   0.00131   0.00265   0.00578   0.00623

 Mulliken charges and spin densities:
               1          2
     1  Na  -0.354990   0.135368
     2  Na  -0.750739   0.132709
     3  Na   0.085034   0.241659
     4  Na   0.894330   0.001168
     5  Na  -0.371797   0.120895
     6  Na   0.431093   0.052641
     7  Na   0.067069   0.315561
 Sum of Mulliken charges =  -0.00000   1.00000

 Dipole moment (field-independent basis, Debye):
    X=              0.1827    Y=             -0.2985    Z=             -0.2197  Tot=              0.4132
 Quadrupole moment (field-independent basis, Debye-Ang):
   XX=            -49.4078   YY=            -76.3479   ZZ=            -70.0606
   XY=             -1.2763   XZ=              0.6352   YZ=              0.8383

 Normal termination of Gaussian 16 at Fri Dec  8 00:34:13 2023.
