 Gaussian 16, Revision B.01,
 Gaussian 16:  ES64L-G16RevB.01 20-Dec-2017

 -------------------------
 #P B3LYP/6-311+g(d) force
 -------------------------

 -----
 DPGEN
 -----
 Symbolic Z-matrix:
 Charge =  0 Multiplicity = 2

                         Standard orientation:
 ---------------------------------------------------------------------
 Center     Atomic      Atomic             Coordinates (Angstroms)
 Number     Number       Type             X           Y           Z
 ---------------------------------------------------------------------
      1         11           0       -0.735202   -1.490804    0.526539
      2         11           0       -4.310752   -3.192807   -0.206595
      3         11           0       -3.029023    0.500025   -0.482777
      4         11           0       -2.517574    3.558894   -0.035359
      5         11           0        0.815847    1.775682    0.209316
      6         11           0        3.486413   -0.501559    0.768802
      7         11           0        6.290291   -0.649432   -0.779926
 ---------------------------------------------------------------------

 SCF Done:  E(UB3LYP) =  -1136.11858633     A.U. after   21 cycles

 The electronic state is 2-A.
 Alpha  occ. eigenvalues --  -38.44918 -38.44630 -38.44560 -38.44506 -38.44132
 Alpha  occ. eigenvalues --  -38.43687 -38.43584  -2.20725  -2.20433  -2.20372
 Alpha  occ. eigenvalues --   -2.20245  -2.20002  -2.19516  -2.19392  -1.14453
 Alpha  occ. eigenvalues --   -1.14414  -1.14290  -1.14127  -1.14111  -1.14027
 Alpha  occ. eigenvalues --   -1.14010  -1.14003  -1.14001  -1.13920  -1.13918
 Alpha  occ. eigenvalues --   -1.13852  -1.13719  -1.13694  -1.13598  -1.13184
 Alpha  occ. eigenvalues --   -1.13162  -1.13125  -1.13079  -1.13074  -1.13042
 Alpha  occ. eigenvalues --   -0.16689  -0.13973  -0.12186  -0.11410
 Alpha virt. eigenvalues --   -0.06383  -0.05141  -0.04715  -0.03869  -0.02656
 Alpha virt. eigenvalues --   -0.02546  -0.02057  -0.01714  -0.01385  -0.00886
 Alpha virt. eigenvalues --   -0.00371  -0.00142   0.00081   0.00335   0.00645

  Beta  occ. eigenvalues --  -38.44886 -38.44600 -38.44495 -38.44465 -38.44112
  Beta  occ. eigenvalues --  -38.43652 -38.43588  -2.20667  -2.20380  -2.20224
  Beta  occ. eigenvalues --   -2.20195  -2.19967  -2.19451  -2.19409  -1.14421
  Beta  occ. eigenvalues --   -1.14378  -1.14227  -1.14093  -1.14067  -1.13988
  Beta  occ. eigenvalues --   -1.13907  -1.13902  -1.13894  -1.13882  -1.13881
  Beta  occ. eigenvalues --   -1.13840  -1.13685  -1.13672  -1.13569  -1.13132
  Beta  occ. eigenvalues --   -1.13119  -1.13099  -1.13092  -1.13089  -1.12990
  Beta  occ. eigenvalues --   -0.16102  -0.13161  -0.11957
  Beta virt. eigenvalues --   -0.08002  -0.06156  -0.04683  -0.04378  -0.03680
  Beta virt. eigenvalues --   -0.02462  -0.02275  -0.01568  -0.01516  -0.01223
  Beta virt. eigenvalues --   -0.00552  -0.00064   0.00005   0.00252   0.00407

 Mulliken charges and spin densities:
               1          2
     1  Na  -0.601711   0.201589
     2  Na   0.626931   0.061247
     3  Na  -1.071224   0.233610
     4  Na   1.077669   0.172835
     5  Na  -0.572899  -0.048213
     6  Na   0.014242  -0.074072
     7  Na   0.526991   0.453005
 Sum of Mulliken charges =  -0.00000   1.00000

 Dipole moment (field-independent basis, Debye):
    X=             -0.3832    Y=             -0.0675    Z=             -0.1358  Tot=              0.4122
 Quadrupole moment (field-independent basis, Debye-Ang):
   XX=            -59.9790   YY=            -62.0928   ZZ=            -71.8946
   XY=              4.1313   XZ=             -2.1271   YZ=              0.2235

 Normal termination of Gaussian 16 at Tue Nov 28 19:32:18 2023.
