 Gaussian 16, Revision B.01,
 Gaussian 16:  ES64L-G16RevB.01 20-Dec-2017

 -------------------------
 #P B3LYP/6-311+g(d) force
 -------------------------

 -----
 DPGEN
 -----
 Symbolic Z-matrix:
 Charge =  0 Multiplicity = 2

                         Standard orientation:
 ---------------------------------------------------------------------
 Center     Atomic      Atomic             Coordinates (Angstroms)
 Number     Number       Type             X           Y           Z
 ---------------------------------------------------------------------
      1         11           0       -3.858553    0.293254    1.166308
      2         11           0        2.902883    1.340976   -0.562337
      3         11           0        2.714196   -0.970775    1.697777
      4         11           0       -0.576115    2.117365   -1.128220
      5         11           0        1.367709   -1.607633   -1.356582
      6         11           0       -0.216526    0.261964    1.491290
      7         11           0       -2.333593   -1.435151   -1.308236
 ---------------------------------------------------------------------

 SCF Done:  E(UB3LYP) =  -1136.11964262     A.U. after   29 cycles

 The electronic state is 2-A.
 Alpha  occ. eigenvalues --  -38.45103 -38.44636 -38.44464 -38.44381 -38.44313
 Alpha  occ. eigenvalues --  -38.43281 -38.42234  -2.20886  -2.20452  -2.20328
 Alpha  occ. eigenvalues --   -2.20294  -2.20177  -2.19181  -2.18062  -1.14562
 Alpha  occ. eigenvalues --   -1.14541  -1.14520  -1.14125  -1.14106  -1.14078
 Alpha  occ. eigenvalues --   -1.14012  -1.13991  -1.13977  -1.13958  -1.13943
 Alpha  occ. eigenvalues --   -1.13921  -1.13863  -1.13830  -1.13778  -1.12861
 Alpha  occ. eigenvalues --   -1.12834  -1.12805  -1.11780  -1.11735  -1.11676
 Alpha  occ. eigenvalues --   -0.18371  -0.14158  -0.11731  -0.10652
 Alpha virt. eigenvalues --   -0.06951  -0.05589  -0.04424  -0.03393  -0.02676
 Alpha virt. eigenvalues --   -0.02535  -0.02203  -0.01295  -0.00716  -0.00327
 Alpha virt. eigenvalues --    0.00077   0.00188   0.00232   0.00569   0.00735

  Beta  occ. eigenvalues --  -38.45096 -38.44595 -38.44397 -38.44334 -38.44292
  Beta  occ. eigenvalues --  -38.43261 -38.42250  -2.20874  -2.20377  -2.20211
  Beta  occ. eigenvalues --   -2.20205  -2.20137  -2.19147  -2.18092  -1.14550
  Beta  occ. eigenvalues --   -1.14536  -1.14511  -1.14069  -1.14058  -1.14012
  Beta  occ. eigenvalues --   -1.13937  -1.13910  -1.13899  -1.13890  -1.13862
  Beta  occ. eigenvalues --   -1.13855  -1.13815  -1.13800  -1.13765  -1.12828
  Beta  occ. eigenvalues --   -1.12807  -1.12782  -1.11803  -1.11743  -1.11694
  Beta  occ. eigenvalues --   -0.17671  -0.14082  -0.10459
  Beta virt. eigenvalues --   -0.07748  -0.06728  -0.04916  -0.04351  -0.02863
  Beta virt. eigenvalues --   -0.02550  -0.02015  -0.01654  -0.00743  -0.00605
  Beta virt. eigenvalues --   -0.00231   0.00086   0.00301   0.00336   0.00633

 Mulliken charges and spin densities:
               1          2
     1  Na   0.619865  -0.057187
     2  Na   0.260394   0.046805
     3  Na   1.104502  -0.108323
     4  Na  -0.225510   0.032273
     5  Na  -0.332585   0.387572
     6  Na  -1.372637   0.580250
     7  Na  -0.054029   0.118610
 Sum of Mulliken charges =  -0.00000   1.00000

 Dipole moment (field-independent basis, Debye):
    X=             -0.6545    Y=              0.0211    Z=              0.0085  Tot=              0.6549
 Quadrupole moment (field-independent basis, Debye-Ang):
   XX=            -48.5906   YY=            -77.7485   ZZ=            -68.8170
   XY=             -0.3435   XZ=             -1.7463   YZ=              5.5026

 Normal termination of Gaussian 16 at Wed Dec  6 00:51:15 2023.
