 Gaussian 16, Revision B.01,
 Gaussian 16:  ES64L-G16RevB.01 20-Dec-2017

 -------------------------
 #P B3LYP/6-311+g(d) force
 -------------------------

 -----
 DPGEN
 -----
 Symbolic Z-matrix:
 Charge =  0 Multiplicity = 2

                         Standard orientation:
 ---------------------------------------------------------------------
 Center     Atomic      Atomic             Coordinates (Angstroms)
 Number     Number       Type             X           Y           Z
 ---------------------------------------------------------------------
      1         11           0       -1.190146    2.596438   -0.138400
      2         11           0        0.753718   -2.245255   -1.005724
      3         11           0        0.334881   -0.077271    1.945608
      4         11           0        2.297467    1.888954    0.447045
      5         11           0       -2.916278    0.663788   -1.568474
      6         11           0        3.357997   -0.842513   -0.803169
      7         11           0       -2.637638   -1.984141    1.123114
 ---------------------------------------------------------------------

 SCF Done:  E(UB3LYP) =  -1136.12114256     A.U. after   20 cycles

 The electronic state is 2-A.
 Alpha  occ. eigenvalues --  -38.44371 -38.44357 -38.44352 -38.44113 -38.44056
 Alpha  occ. eigenvalues --  -38.43812 -38.43504  -2.20240  -2.20213  -2.20131
 Alpha  occ. eigenvalues --   -2.19999  -2.19889  -2.19685  -2.19354  -1.13937
 Alpha  occ. eigenvalues --   -1.13918  -1.13889  -1.13868  -1.13853  -1.13814
 Alpha  occ. eigenvalues --   -1.13797  -1.13790  -1.13777  -1.13763  -1.13661
 Alpha  occ. eigenvalues --   -1.13627  -1.13547  -1.13535  -1.13466  -1.13366
 Alpha  occ. eigenvalues --   -1.13335  -1.13305  -1.13042  -1.13008  -1.12984
 Alpha  occ. eigenvalues --   -0.17751  -0.13846  -0.12246  -0.11231
 Alpha virt. eigenvalues --   -0.06220  -0.05119  -0.04773  -0.03664  -0.03203
 Alpha virt. eigenvalues --   -0.02458  -0.01871  -0.01071  -0.00461  -0.00283
 Alpha virt. eigenvalues --   -0.00150   0.00259   0.00404   0.00579   0.00676

  Beta  occ. eigenvalues --  -38.44327 -38.44312 -38.44281 -38.44083 -38.44038
  Beta  occ. eigenvalues --  -38.43803 -38.43496  -2.20106  -2.20100  -2.20085
  Beta  occ. eigenvalues --   -2.19945  -2.19859  -2.19672  -2.19344  -1.13862
  Beta  occ. eigenvalues --   -1.13824  -1.13797  -1.13780  -1.13772  -1.13757
  Beta  occ. eigenvalues --   -1.13753  -1.13750  -1.13731  -1.13725  -1.13628
  Beta  occ. eigenvalues --   -1.13588  -1.13528  -1.13511  -1.13429  -1.13341
  Beta  occ. eigenvalues --   -1.13325  -1.13299  -1.13029  -1.13005  -1.12952
  Beta  occ. eigenvalues --   -0.17194  -0.13308  -0.11886
  Beta virt. eigenvalues --   -0.07689  -0.06166  -0.04853  -0.04288  -0.03391
  Beta virt. eigenvalues --   -0.02571  -0.01786  -0.01754  -0.00904  -0.00281
  Beta virt. eigenvalues --   -0.00192  -0.00062   0.00344   0.00539   0.00740

 Mulliken charges and spin densities:
               1          2
     1  Na  -0.171224  -0.076488
     2  Na  -0.227498   0.274544
     3  Na  -0.472258   0.361222
     4  Na   0.497047   0.187435
     5  Na  -0.023817   0.270289
     6  Na   0.029471  -0.085050
     7  Na   0.368279   0.068047
 Sum of Mulliken charges =  -0.00000   1.00000

 Dipole moment (field-independent basis, Debye):
    X=              0.0090    Y=             -0.3000    Z=              0.0167  Tot=              0.3006
 Quadrupole moment (field-independent basis, Debye-Ang):
   XX=            -57.8601   YY=            -71.3184   ZZ=            -69.6081
   XY=              5.4549   XZ=             -0.3799   YZ=             -0.2496

 Normal termination of Gaussian 16 at Sun Dec  3 20:55:35 2023.
