 Gaussian 16, Revision B.01,
 Gaussian 16:  ES64L-G16RevB.01 20-Dec-2017

 -------------------------
 #P B3LYP/6-311+g(d) force
 -------------------------

 -----
 DPGEN
 -----
 Symbolic Z-matrix:
 Charge =  0 Multiplicity = 2

                         Standard orientation:
 ---------------------------------------------------------------------
 Center     Atomic      Atomic             Coordinates (Angstroms)
 Number     Number       Type             X           Y           Z
 ---------------------------------------------------------------------
      1         11           0       -0.513138    0.111166    1.977123
      2         11           0       -1.391907    2.779526   -0.483913
      3         11           0       -0.310273   -2.755918   -0.766775
      4         11           0        2.049606    2.017244   -0.002495
      5         11           0        2.834472   -1.266065    0.600632
      6         11           0       -3.004425   -0.844962    0.344207
      7         11           0        0.335665   -0.040991   -1.668779
 ---------------------------------------------------------------------

 SCF Done:  E(UB3LYP) =  -1136.13486836     A.U. after   19 cycles

 The electronic state is 2-A.
 Alpha  occ. eigenvalues --  -38.43823 -38.43805 -38.43701 -38.43674 -38.43575
 Alpha  occ. eigenvalues --  -38.43456 -38.43383  -2.19721  -2.19646  -2.19528
 Alpha  occ. eigenvalues --   -2.19488  -2.19449  -2.19390  -2.19339  -1.13459
 Alpha  occ. eigenvalues --   -1.13377  -1.13341  -1.13295  -1.13281  -1.13266
 Alpha  occ. eigenvalues --   -1.13260  -1.13210  -1.13194  -1.13179  -1.13170
 Alpha  occ. eigenvalues --   -1.13161  -1.13144  -1.13123  -1.13107  -1.13048
 Alpha  occ. eigenvalues --   -1.13028  -1.12986  -1.12964  -1.12936  -1.12911
 Alpha  occ. eigenvalues --   -0.18619  -0.12897  -0.12528  -0.11066
 Alpha virt. eigenvalues --   -0.05297  -0.05144  -0.04658  -0.03362  -0.03132
 Alpha virt. eigenvalues --   -0.02627  -0.01361  -0.01180  -0.00332  -0.00096
 Alpha virt. eigenvalues --    0.00047   0.00357   0.00832   0.00870   0.00912

  Beta  occ. eigenvalues --  -38.43798 -38.43745 -38.43687 -38.43665 -38.43570
  Beta  occ. eigenvalues --  -38.43432 -38.43316  -2.19637  -2.19577  -2.19505
  Beta  occ. eigenvalues --   -2.19474  -2.19444  -2.19306  -2.19261  -1.13398
  Beta  occ. eigenvalues --   -1.13289  -1.13279  -1.13268  -1.13241  -1.13213
  Beta  occ. eigenvalues --   -1.13204  -1.13187  -1.13171  -1.13151  -1.13148
  Beta  occ. eigenvalues --   -1.13141  -1.13131  -1.13109  -1.13092  -1.13037
  Beta  occ. eigenvalues --   -1.12956  -1.12930  -1.12919  -1.12892  -1.12844
  Beta  occ. eigenvalues --   -0.17922  -0.12613  -0.12246
  Beta virt. eigenvalues --   -0.07223  -0.05263  -0.05018  -0.04596  -0.02616
  Beta virt. eigenvalues --   -0.02411  -0.01658  -0.01234  -0.01101  -0.00278
  Beta virt. eigenvalues --   -0.00126   0.00133   0.00392   0.00866   0.00885

 Mulliken charges and spin densities:
               1          2
     1  Na  -0.279101   0.599558
     2  Na  -0.056438  -0.057835
     3  Na   0.164073   0.032387
     4  Na   0.095502  -0.015193
     5  Na  -0.069994   0.130366
     6  Na   0.072808  -0.029480
     7  Na   0.073151   0.340197
 Sum of Mulliken charges =  -0.00000   1.00000

 Dipole moment (field-independent basis, Debye):
    X=             -0.0986    Y=              0.1215    Z=              0.2421  Tot=              0.2883
 Quadrupole moment (field-independent basis, Debye-Ang):
   XX=            -59.0709   YY=            -62.3774   ZZ=            -72.6854
   XY=             -0.7519   XZ=              2.2039   YZ=             -0.6271

 Normal termination of Gaussian 16 at Thu Dec  7 14:16:43 2023.
