 Gaussian 16, Revision B.01,
 Gaussian 16:  ES64L-G16RevB.01 20-Dec-2017

 -------------------------
 #P B3LYP/6-311+g(d) force
 -------------------------

 -----
 DPGEN
 -----
 Symbolic Z-matrix:
 Charge =  0 Multiplicity = 2

                         Standard orientation:
 ---------------------------------------------------------------------
 Center     Atomic      Atomic             Coordinates (Angstroms)
 Number     Number       Type             X           Y           Z
 ---------------------------------------------------------------------
      1         11           0        4.512431    0.332055   -0.071126
      2         11           0        1.694086   -2.353904   -0.101533
      3         11           0       -1.252068   -0.635179    2.071204
      4         11           0       -2.043945    2.412269    0.113011
      5         11           0       -0.571002   -0.032349   -1.533623
      6         11           0        1.609974    1.385130    0.099641
      7         11           0       -3.949476   -1.108021   -0.577574
 ---------------------------------------------------------------------

 SCF Done:  E(UB3LYP) =  -1136.11025524     A.U. after   29 cycles

 The electronic state is 2-A.
 Alpha  occ. eigenvalues --  -38.45603 -38.45017 -38.44793 -38.44051 -38.43676
 Alpha  occ. eigenvalues --  -38.43417 -38.43096  -2.21507  -2.20819  -2.20613
 Alpha  occ. eigenvalues --   -2.19857  -2.19466  -2.19247  -2.19012  -1.15233
 Alpha  occ. eigenvalues --   -1.15156  -1.15123  -1.14483  -1.14464  -1.14452
 Alpha  occ. eigenvalues --   -1.14295  -1.14254  -1.14220  -1.13518  -1.13487
 Alpha  occ. eigenvalues --   -1.13474  -1.13174  -1.13130  -1.13082  -1.12936
 Alpha  occ. eigenvalues --   -1.12910  -1.12869  -1.12766  -1.12672  -1.12604
 Alpha  occ. eigenvalues --   -0.18059  -0.14123  -0.10982  -0.10586
 Alpha virt. eigenvalues --   -0.07952  -0.05411  -0.04096  -0.03379  -0.02991
 Alpha virt. eigenvalues --   -0.02366  -0.01997  -0.01694  -0.00959  -0.00763
 Alpha virt. eigenvalues --   -0.00520   0.00087   0.00253   0.00569   0.00613

  Beta  occ. eigenvalues --  -38.45600 -38.44975 -38.44739 -38.43967 -38.43677
  Beta  occ. eigenvalues --  -38.43412 -38.43090  -2.21503  -2.20742  -2.20511
  Beta  occ. eigenvalues --   -2.19701  -2.19469  -2.19241  -2.19007  -1.15199
  Beta  occ. eigenvalues --   -1.15162  -1.15128  -1.14416  -1.14414  -1.14398
  Beta  occ. eigenvalues --   -1.14229  -1.14183  -1.14152  -1.13409  -1.13377
  Beta  occ. eigenvalues --   -1.13374  -1.13180  -1.13127  -1.13077  -1.12929
  Beta  occ. eigenvalues --   -1.12908  -1.12850  -1.12765  -1.12647  -1.12592
  Beta  occ. eigenvalues --   -0.17582  -0.13516  -0.10750
  Beta virt. eigenvalues --   -0.07681  -0.07033  -0.05351  -0.03444  -0.03149
  Beta virt. eigenvalues --   -0.02824  -0.02060  -0.01681  -0.01362  -0.00676
  Beta virt. eigenvalues --   -0.00385  -0.00230   0.00163   0.00385   0.00625

 Mulliken charges and spin densities:
               1          2
     1  Na   0.949833   0.206732
     2  Na  -0.056833   0.070059
     3  Na  -0.051335   0.139485
     4  Na   0.022002   0.143052
     5  Na   0.295788  -0.214745
     6  Na  -1.057711   0.139834
     7  Na  -0.101744   0.515583
 Sum of Mulliken charges =  -0.00000   1.00000

 Dipole moment (field-independent basis, Debye):
    X=              0.2599    Y=             -0.1973    Z=              0.8053  Tot=              0.8689
 Quadrupole moment (field-independent basis, Debye-Ang):
   XX=            -59.3412   YY=            -76.6074   ZZ=            -64.3677
   XY=             -4.6590   XZ=             -3.0491   YZ=              2.5651

 Normal termination of Gaussian 16 at Thu Dec  7 13:17:20 2023.
