 Gaussian 16, Revision B.01,
 Gaussian 16:  ES64L-G16RevB.01 20-Dec-2017

 -------------------------
 #P B3LYP/6-311+g(d) force
 -------------------------

 -----
 DPGEN
 -----
 Symbolic Z-matrix:
 Charge =  0 Multiplicity = 2

                         Standard orientation:
 ---------------------------------------------------------------------
 Center     Atomic      Atomic             Coordinates (Angstroms)
 Number     Number       Type             X           Y           Z
 ---------------------------------------------------------------------
      1         11           0        0.543501    2.277435   -0.563352
      2         11           0        5.000064   -0.683096   -0.261766
      3         11           0       -5.058621   -1.187257    0.131639
      4         11           0        2.084504   -1.215863   -0.675874
      5         11           0        1.766447    0.500757    1.645485
      6         11           0       -1.530345   -1.030471    0.006619
      7         11           0       -2.805549    1.338495   -0.282752
 ---------------------------------------------------------------------

 SCF Done:  E(UB3LYP) =  -1136.10818273     A.U. after   26 cycles

 The electronic state is 2-A.
 Alpha  occ. eigenvalues --  -38.45889 -38.44489 -38.43857 -38.43728 -38.43701
 Alpha  occ. eigenvalues --  -38.43371 -38.43215  -2.21782  -2.20414  -2.19688
 Alpha  occ. eigenvalues --   -2.19679  -2.19658  -2.19214  -2.19094  -1.15524
 Alpha  occ. eigenvalues --   -1.15469  -1.15361  -1.14328  -1.14067  -1.13946
 Alpha  occ. eigenvalues --   -1.13401  -1.13368  -1.13357  -1.13342  -1.13328
 Alpha  occ. eigenvalues --   -1.13324  -1.13319  -1.13288  -1.13205  -1.12873
 Alpha  occ. eigenvalues --   -1.12850  -1.12828  -1.12785  -1.12744  -1.12708
 Alpha  occ. eigenvalues --   -0.18107  -0.14634  -0.11589  -0.10396
 Alpha virt. eigenvalues --   -0.06958  -0.05510  -0.04163  -0.03381  -0.03009
 Alpha virt. eigenvalues --   -0.02141  -0.01731  -0.01367  -0.00767  -0.00640
 Alpha virt. eigenvalues --   -0.00474   0.00236   0.00458   0.00569   0.00682

  Beta  occ. eigenvalues --  -38.45881 -38.44468 -38.43856 -38.43672 -38.43667
  Beta  occ. eigenvalues --  -38.43340 -38.43188  -2.21773  -2.20376  -2.19655
  Beta  occ. eigenvalues --   -2.19626  -2.19590  -2.19156  -2.19045  -1.15518
  Beta  occ. eigenvalues --   -1.15439  -1.15347  -1.14293  -1.14042  -1.13916
  Beta  occ. eigenvalues --   -1.13374  -1.13323  -1.13321  -1.13300  -1.13294
  Beta  occ. eigenvalues --   -1.13288  -1.13284  -1.13249  -1.13120  -1.12832
  Beta  occ. eigenvalues --   -1.12809  -1.12788  -1.12753  -1.12702  -1.12676
  Beta  occ. eigenvalues --   -0.17410  -0.14445  -0.11297
  Beta virt. eigenvalues --   -0.06805  -0.06564  -0.05306  -0.03666  -0.03270
  Beta virt. eigenvalues --   -0.02648  -0.01899  -0.01624  -0.01001  -0.00408
  Beta virt. eigenvalues --   -0.00333  -0.00239   0.00332   0.00576   0.00655

 Mulliken charges and spin densities:
               1          2
     1  Na  -0.552901   0.171903
     2  Na   0.719408   0.311562
     3  Na   1.766525   0.200422
     4  Na  -0.729052  -0.405756
     5  Na   0.383978   0.212305
     6  Na  -1.841902   0.353749
     7  Na   0.253945   0.155816
 Sum of Mulliken charges =  -0.00000   1.00000

 Dipole moment (field-independent basis, Debye):
    X=             -0.4190    Y=              0.1557    Z=              0.6589  Tot=              0.7962
 Quadrupole moment (field-independent basis, Debye-Ang):
   XX=            -62.6003   YY=            -73.8504   ZZ=            -63.4337
   XY=              4.1507   XZ=              0.7844   YZ=              0.1821

 Normal termination of Gaussian 16 at Tue Dec  5 23:09:28 2023.
