 Gaussian 16, Revision B.01,
 Gaussian 16:  ES64L-G16RevB.01 20-Dec-2017

 -------------------------
 #P B3LYP/6-311+g(d) force
 -------------------------

 -----
 DPGEN
 -----
 Symbolic Z-matrix:
 Charge =  0 Multiplicity = 2

                         Standard orientation:
 ---------------------------------------------------------------------
 Center     Atomic      Atomic             Coordinates (Angstroms)
 Number     Number       Type             X           Y           Z
 ---------------------------------------------------------------------
      1         11           0       -0.461474   -2.792546   -0.340734
      2         11           0       -2.997960   -0.546152    0.198637
      3         11           0        0.041448   -0.277584    1.842076
      4         11           0        2.768413   -1.318898    0.136967
      5         11           0        1.944311    2.314920    0.090226
      6         11           0       -1.476751    2.556792   -0.095298
      7         11           0        0.182013    0.063468   -1.831874
 ---------------------------------------------------------------------

 SCF Done:  E(UB3LYP) =  -1136.14198880     A.U. after   19 cycles

 The electronic state is 2-A.
 Alpha  occ. eigenvalues --  -38.43708 -38.43639 -38.43538 -38.43476 -38.43442
 Alpha  occ. eigenvalues --  -38.43323 -38.43282  -2.19552  -2.19479  -2.19387
 Alpha  occ. eigenvalues --   -2.19331  -2.19326  -2.19267  -2.19234  -1.13238
 Alpha  occ. eigenvalues --   -1.13221  -1.13190  -1.13160  -1.13153  -1.13114
 Alpha  occ. eigenvalues --   -1.13082  -1.13060  -1.13053  -1.13029  -1.13009
 Alpha  occ. eigenvalues --   -1.13004  -1.12987  -1.12951  -1.12939  -1.12933
 Alpha  occ. eigenvalues --   -1.12897  -1.12884  -1.12880  -1.12852  -1.12847
 Alpha  occ. eigenvalues --   -0.18840  -0.12792  -0.12778  -0.10790
 Alpha virt. eigenvalues --   -0.05319  -0.05119  -0.04887  -0.03078  -0.03037
 Alpha virt. eigenvalues --   -0.02537  -0.01325  -0.01174  -0.00297  -0.00272
 Alpha virt. eigenvalues --    0.00007   0.00375   0.00858   0.00897   0.00919

  Beta  occ. eigenvalues --  -38.43702 -38.43636 -38.43534 -38.43473 -38.43430
  Beta  occ. eigenvalues --  -38.43244 -38.43201  -2.19546  -2.19476  -2.19382
  Beta  occ. eigenvalues --   -2.19323  -2.19313  -2.19122  -2.19086  -1.13229
  Beta  occ. eigenvalues --   -1.13198  -1.13185  -1.13157  -1.13134  -1.13111
  Beta  occ. eigenvalues --   -1.13073  -1.13057  -1.13029  -1.13011  -1.12993
  Beta  occ. eigenvalues --   -1.12973  -1.12963  -1.12950  -1.12933  -1.12844
  Beta  occ. eigenvalues --   -1.12801  -1.12787  -1.12774  -1.12748  -1.12742
  Beta  occ. eigenvalues --   -0.18098  -0.12547  -0.12529
  Beta virt. eigenvalues --   -0.06869  -0.05330  -0.05103  -0.04828  -0.02275
  Beta virt. eigenvalues --   -0.02252  -0.01480  -0.01242  -0.01101  -0.00348
  Beta virt. eigenvalues --   -0.00327   0.00129   0.00392   0.00882   0.00899

 Mulliken charges and spin densities:
               1          2
     1  Na   0.249638  -0.036183
     2  Na   0.081908  -0.059660
     3  Na  -0.332615   0.751112
     4  Na   0.163093  -0.107873
     5  Na   0.034806  -0.120982
     6  Na   0.033844  -0.093519
     7  Na  -0.230674   0.667105
 Sum of Mulliken charges =  -0.00000   1.00000

 Dipole moment (field-independent basis, Debye):
    X=              0.1599    Y=              0.0041    Z=              0.0329  Tot=              0.1633
 Quadrupole moment (field-independent basis, Debye-Ang):
   XX=            -58.3796   YY=            -60.9679   ZZ=            -74.1002
   XY=             -0.0464   XZ=              0.2821   YZ=              0.7200

 Normal termination of Gaussian 16 at Thu Dec  7 20:12:08 2023.
