 Gaussian 16, Revision B.01,
 Gaussian 16:  ES64L-G16RevB.01 20-Dec-2017

 -------------------------
 #P B3LYP/6-311+g(d) force
 -------------------------

 -----
 DPGEN
 -----
 Symbolic Z-matrix:
 Charge =  0 Multiplicity = 2

                         Standard orientation:
 ---------------------------------------------------------------------
 Center     Atomic      Atomic             Coordinates (Angstroms)
 Number     Number       Type             X           Y           Z
 ---------------------------------------------------------------------
      1         11           0       -1.937706    2.805579   -0.243978
      2         11           0        0.625229    0.313407   -1.584790
      3         11           0       -3.873071   -0.113945    0.513336
      4         11           0       -1.626405   -2.686327   -0.808358
      5         11           0       -0.128114   -0.141232    1.682582
      6         11           0        3.158291   -1.737272    0.419280
      7         11           0        3.781777    1.559790    0.021927
 ---------------------------------------------------------------------

 SCF Done:  E(UB3LYP) =  -1136.11392999     A.U. after   28 cycles

 The electronic state is 2-A.
 Alpha  occ. eigenvalues --  -38.46182 -38.45202 -38.44789 -38.44418 -38.43311
 Alpha  occ. eigenvalues --  -38.43291 -38.43122  -2.21956  -2.20978  -2.20585
 Alpha  occ. eigenvalues --   -2.20214  -2.19189  -2.19069  -2.18897  -1.15676
 Alpha  occ. eigenvalues --   -1.15594  -1.15578  -1.14652  -1.14631  -1.14615
 Alpha  occ. eigenvalues --   -1.14265  -1.14230  -1.14215  -1.13891  -1.13848
 Alpha  occ. eigenvalues --   -1.13838  -1.12886  -1.12812  -1.12793  -1.12746
 Alpha  occ. eigenvalues --   -1.12726  -1.12714  -1.12582  -1.12554  -1.12547
 Alpha  occ. eigenvalues --   -0.17414  -0.13922  -0.11029  -0.10105
 Alpha virt. eigenvalues --   -0.07329  -0.06078  -0.04500  -0.03174  -0.02951
 Alpha virt. eigenvalues --   -0.02445  -0.01995  -0.01828  -0.01128  -0.00514
 Alpha virt. eigenvalues --   -0.00293  -0.00026   0.00329   0.00470   0.00596

  Beta  occ. eigenvalues --  -38.46176 -38.45187 -38.44767 -38.44371 -38.43287
  Beta  occ. eigenvalues --  -38.43221 -38.43127  -2.21947  -2.20951  -2.20545
  Beta  occ. eigenvalues --   -2.20125  -2.19064  -2.19024  -2.18909  -1.15650
  Beta  occ. eigenvalues --   -1.15592  -1.15574  -1.14636  -1.14602  -1.14592
  Beta  occ. eigenvalues --   -1.14236  -1.14205  -1.14173  -1.13826  -1.13790
  Beta  occ. eigenvalues --   -1.13780  -1.12776  -1.12745  -1.12718  -1.12706
  Beta  occ. eigenvalues --   -1.12698  -1.12664  -1.12592  -1.12565  -1.12535
  Beta  occ. eigenvalues --   -0.16837  -0.13464  -0.10869
  Beta virt. eigenvalues --   -0.07110  -0.06646  -0.05922  -0.04162  -0.02885
  Beta virt. eigenvalues --   -0.02616  -0.01911  -0.01737  -0.01437  -0.00985
  Beta virt. eigenvalues --   -0.00356  -0.00160   0.00121   0.00489   0.00596

 Mulliken charges and spin densities:
               1          2
     1  Na  -0.175940  -0.140785
     2  Na   0.138924   0.622660
     3  Na   0.164005   0.320544
     4  Na  -0.317011  -0.091098
     5  Na   0.065718   0.059046
     6  Na   0.111223   0.226747
     7  Na   0.013081   0.002887
 Sum of Mulliken charges =  -0.00000   1.00000

 Dipole moment (field-independent basis, Debye):
    X=              1.2732    Y=             -0.0865    Z=              0.2498  Tot=              1.3004
 Quadrupole moment (field-independent basis, Debye-Ang):
   XX=            -58.4399   YY=            -69.5119   ZZ=            -70.7955
   XY=              2.7595   XZ=              1.0277   YZ=              0.8537

 Normal termination of Gaussian 16 at Tue Dec  5 17:03:11 2023.
