 Gaussian 16, Revision B.01,
 Gaussian 16:  ES64L-G16RevB.01 20-Dec-2017

 -------------------------
 #P B3LYP/6-311+g(d) force
 -------------------------

 -----
 DPGEN
 -----
 Symbolic Z-matrix:
 Charge =  0 Multiplicity = 2

                         Standard orientation:
 ---------------------------------------------------------------------
 Center     Atomic      Atomic             Coordinates (Angstroms)
 Number     Number       Type             X           Y           Z
 ---------------------------------------------------------------------
      1         11           0       -1.259556    2.239695   -2.095585
      2         11           0        0.510580    2.413904    2.048396
      3         11           0       -3.393663   -2.008285   -0.872966
      4         11           0       -2.844212    0.593958    0.865269
      5         11           0       -0.432734   -2.471520    1.133076
      6         11           0        2.286892    0.234187   -0.645662
      7         11           0        5.132693   -1.001938   -0.432529
 ---------------------------------------------------------------------

 SCF Done:  E(UB3LYP) =  -1136.10748788     A.U. after   21 cycles

 The electronic state is 2-A.
 Alpha  occ. eigenvalues --  -38.45304 -38.44959 -38.44488 -38.44432 -38.44325
 Alpha  occ. eigenvalues --  -38.44104 -38.43521  -2.21055  -2.20771  -2.20246
 Alpha  occ. eigenvalues --   -2.20239  -2.20089  -2.19895  -2.19326  -1.14734
 Alpha  occ. eigenvalues --   -1.14719  -1.14659  -1.14476  -1.14447  -1.14397
 Alpha  occ. eigenvalues --   -1.13921  -1.13914  -1.13894  -1.13890  -1.13860
 Alpha  occ. eigenvalues --   -1.13857  -1.13747  -1.13740  -1.13702  -1.13571
 Alpha  occ. eigenvalues --   -1.13542  -1.13537  -1.13012  -1.13002  -1.12947
 Alpha  occ. eigenvalues --   -0.16542  -0.13239  -0.11856  -0.10782
 Alpha virt. eigenvalues --   -0.07191  -0.05668  -0.04536  -0.03471  -0.02961
 Alpha virt. eigenvalues --   -0.02594  -0.02281  -0.01488  -0.00995  -0.00735
 Alpha virt. eigenvalues --   -0.00512  -0.00219   0.00153   0.00290   0.00540

  Beta  occ. eigenvalues --  -38.45274 -38.44957 -38.44428 -38.44428 -38.44261
  Beta  occ. eigenvalues --  -38.44082 -38.43522  -2.20997  -2.20772  -2.20232
  Beta  occ. eigenvalues --   -2.20133  -2.19970  -2.19854  -2.19331  -1.14694
  Beta  occ. eigenvalues --   -1.14675  -1.14622  -1.14464  -1.14430  -1.14403
  Beta  occ. eigenvalues --   -1.13917  -1.13888  -1.13845  -1.13837  -1.13810
  Beta  occ. eigenvalues --   -1.13786  -1.13664  -1.13654  -1.13626  -1.13544
  Beta  occ. eigenvalues --   -1.13513  -1.13509  -1.13017  -1.12997  -1.12944
  Beta  occ. eigenvalues --   -0.16011  -0.12980  -0.11440
  Beta virt. eigenvalues --   -0.07553  -0.06694  -0.05328  -0.04237  -0.03131
  Beta virt. eigenvalues --   -0.02711  -0.02431  -0.01743  -0.01231  -0.00844
  Beta virt. eigenvalues --   -0.00545  -0.00291  -0.00089   0.00211   0.00437

 Mulliken charges and spin densities:
               1          2
     1  Na   0.534869   0.354564
     2  Na   0.293339   0.374807
     3  Na   0.140024  -0.031721
     4  Na   0.381130   0.252916
     5  Na  -0.152930   0.097095
     6  Na  -0.751562   0.063542
     7  Na  -0.444870  -0.111203
 Sum of Mulliken charges =  -0.00000   1.00000

 Dipole moment (field-independent basis, Debye):
    X=             -0.7556    Y=             -0.6578    Z=              0.3114  Tot=              1.0491
 Quadrupole moment (field-independent basis, Debye-Ang):
   XX=            -60.0861   YY=            -69.5786   ZZ=            -68.1091
   XY=             -0.1504   XZ=              2.6794   YZ=              1.5610

 Normal termination of Gaussian 16 at Sun Dec  3 19:38:21 2023.
