 Gaussian 16, Revision B.01,
 Gaussian 16:  ES64L-G16RevB.01 20-Dec-2017

 -------------------------
 #P B3LYP/6-311+g(d) force
 -------------------------

 -----
 DPGEN
 -----
 Symbolic Z-matrix:
 Charge =  0 Multiplicity = 2

                         Standard orientation:
 ---------------------------------------------------------------------
 Center     Atomic      Atomic             Coordinates (Angstroms)
 Number     Number       Type             X           Y           Z
 ---------------------------------------------------------------------
      1         11           0        1.698630   -1.490819   -1.219677
      2         11           0       -1.515193   -0.911116   -1.825755
      3         11           0        1.435424   -0.490310    2.176232
      4         11           0       -1.523212   -1.994415    1.088918
      5         11           0       -3.340539    1.583990    0.220847
      6         11           0        3.433472    1.306420   -0.415535
      7         11           0       -0.188582    1.996250   -0.025029
 ---------------------------------------------------------------------

 SCF Done:  E(UB3LYP) =  -1136.12998260     A.U. after   21 cycles

 The electronic state is 2-A.
 Alpha  occ. eigenvalues --  -38.44427 -38.44250 -38.43809 -38.43734 -38.43724
 Alpha  occ. eigenvalues --  -38.43706 -38.43242  -2.20280  -2.20059  -2.19711
 Alpha  occ. eigenvalues --   -2.19596  -2.19583  -2.19519  -2.19090  -1.13954
 Alpha  occ. eigenvalues --   -1.13925  -1.13881  -1.13734  -1.13717  -1.13689
 Alpha  occ. eigenvalues --   -1.13438  -1.13411  -1.13318  -1.13271  -1.13254
 Alpha  occ. eigenvalues --   -1.13249  -1.13217  -1.13203  -1.13200  -1.13198
 Alpha  occ. eigenvalues --   -1.13179  -1.13154  -1.12790  -1.12777  -1.12692
 Alpha  occ. eigenvalues --   -0.18246  -0.13517  -0.11610  -0.11495
 Alpha virt. eigenvalues --   -0.06023  -0.05313  -0.04592  -0.03382  -0.02908
 Alpha virt. eigenvalues --   -0.02717  -0.01874  -0.01195  -0.00505  -0.00035
 Alpha virt. eigenvalues --    0.00212   0.00264   0.00483   0.00628   0.00678

  Beta  occ. eigenvalues --  -38.44345 -38.44243 -38.43766 -38.43713 -38.43708
  Beta  occ. eigenvalues --  -38.43686 -38.43237  -2.20131  -2.20045  -2.19631
  Beta  occ. eigenvalues --   -2.19548  -2.19528  -2.19523  -2.19083  -1.13851
  Beta  occ. eigenvalues --   -1.13827  -1.13767  -1.13716  -1.13707  -1.13680
  Beta  occ. eigenvalues --   -1.13396  -1.13347  -1.13261  -1.13219  -1.13215
  Beta  occ. eigenvalues --   -1.13206  -1.13193  -1.13182  -1.13176  -1.13171
  Beta  occ. eigenvalues --   -1.13159  -1.13150  -1.12775  -1.12762  -1.12692
  Beta  occ. eigenvalues --   -0.17530  -0.13388  -0.11325
  Beta virt. eigenvalues --   -0.07557  -0.05807  -0.05276  -0.03967  -0.03137
  Beta virt. eigenvalues --   -0.02234  -0.01966  -0.01813  -0.01077  -0.00145
  Beta virt. eigenvalues --    0.00020   0.00255   0.00304   0.00664   0.00726

 Mulliken charges and spin densities:
               1          2
     1  Na  -0.372856   0.348282
     2  Na   0.345655   0.135119
     3  Na   0.010308   0.260158
     4  Na  -0.113007   0.183715
     5  Na   0.372735  -0.148784
     6  Na   0.671842  -0.066909
     7  Na  -0.914676   0.288419
 Sum of Mulliken charges =  -0.00000   1.00000

 Dipole moment (field-independent basis, Debye):
    X=              0.3426    Y=             -0.1528    Z=              0.1714  Tot=              0.4124
 Quadrupole moment (field-independent basis, Debye-Ang):
   XX=            -52.7028   YY=            -75.1780   ZZ=            -67.5536
   XY=              2.5468   XZ=             -1.3482   YZ=             -0.7514

 Normal termination of Gaussian 16 at Sun Dec  3 21:43:03 2023.
