 Gaussian 16, Revision B.01,
 Gaussian 16:  ES64L-G16RevB.01 20-Dec-2017

 -------------------------
 #P B3LYP/6-311+g(d) force
 -------------------------

 -----
 DPGEN
 -----
 Symbolic Z-matrix:
 Charge =  0 Multiplicity = 2

                         Standard orientation:
 ---------------------------------------------------------------------
 Center     Atomic      Atomic             Coordinates (Angstroms)
 Number     Number       Type             X           Y           Z
 ---------------------------------------------------------------------
      1         11           0       -3.539138   -0.823958   -0.170035
      2         11           0       -0.374567   -2.656206    0.502504
      3         11           0        2.812450   -1.925426   -0.602259
      4         11           0        1.732194    2.640049   -0.690995
      5         11           0       -0.174498   -0.005425   -1.435495
      6         11           0       -1.745422    2.188770    0.284091
      7         11           0        1.288982    0.582196    2.112190
 ---------------------------------------------------------------------

 SCF Done:  E(UB3LYP) =  -1136.13392638     A.U. after   19 cycles

 The electronic state is 2-A.
 Alpha  occ. eigenvalues --  -38.44193 -38.44046 -38.43829 -38.43797 -38.43761
 Alpha  occ. eigenvalues --  -38.43563 -38.43165  -2.19983  -2.19886  -2.19627
 Alpha  occ. eigenvalues --   -2.19623  -2.19594  -2.19402  -2.19133  -1.13651
 Alpha  occ. eigenvalues --   -1.13638  -1.13628  -1.13604  -1.13558  -1.13492
 Alpha  occ. eigenvalues --   -1.13310  -1.13304  -1.13296  -1.13287  -1.13279
 Alpha  occ. eigenvalues --   -1.13265  -1.13262  -1.13259  -1.13197  -1.13064
 Alpha  occ. eigenvalues --   -1.13037  -1.13010  -1.12829  -1.12781  -1.12747
 Alpha  occ. eigenvalues --   -0.18039  -0.12732  -0.12646  -0.10421
 Alpha virt. eigenvalues --   -0.05768  -0.05509  -0.04793  -0.03083  -0.03024
 Alpha virt. eigenvalues --   -0.02269  -0.01682  -0.01474  -0.00557  -0.00361
 Alpha virt. eigenvalues --   -0.00050   0.00313   0.00735   0.00755   0.00817

  Beta  occ. eigenvalues --  -38.44184 -38.44041 -38.43832 -38.43784 -38.43755
  Beta  occ. eigenvalues --  -38.43472 -38.43115  -2.19969  -2.19879  -2.19628
  Beta  occ. eigenvalues --   -2.19607  -2.19584  -2.19233  -2.19043  -1.13632
  Beta  occ. eigenvalues --   -1.13625  -1.13618  -1.13598  -1.13532  -1.13493
  Beta  occ. eigenvalues --   -1.13301  -1.13294  -1.13287  -1.13283  -1.13268
  Beta  occ. eigenvalues --   -1.13261  -1.13243  -1.13237  -1.13195  -1.12947
  Beta  occ. eigenvalues --   -1.12922  -1.12891  -1.12762  -1.12715  -1.12680
  Beta  occ. eigenvalues --   -0.17386  -0.12550  -0.12441
  Beta virt. eigenvalues --   -0.06550  -0.05714  -0.05426  -0.04666  -0.02438
  Beta virt. eigenvalues --   -0.02349  -0.01624  -0.01448  -0.01295  -0.00444
  Beta virt. eigenvalues --   -0.00375   0.00133   0.00369   0.00753   0.00817

 Mulliken charges and spin densities:
               1          2
     1  Na   0.022851  -0.019280
     2  Na  -0.065555   0.115953
     3  Na   0.068828  -0.019212
     4  Na   0.156992  -0.012954
     5  Na   0.282793   0.274104
     6  Na   0.015567   0.107975
     7  Na  -0.481478   0.553414
 Sum of Mulliken charges =  -0.00000   1.00000

 Dipole moment (field-independent basis, Debye):
    X=              0.1074    Y=              0.0068    Z=             -0.0314  Tot=              0.1121
 Quadrupole moment (field-independent basis, Debye-Ang):
   XX=            -55.1888   YY=            -62.3087   ZZ=            -75.1520
   XY=              0.2910   XZ=             -2.5442   YZ=             -0.7940

 Normal termination of Gaussian 16 at Tue Dec  5 15:54:28 2023.
