 Gaussian 16, Revision B.01,
 Gaussian 16:  ES64L-G16RevB.01 20-Dec-2017

 -------------------------
 #P B3LYP/6-311+g(d) force
 -------------------------

 -----
 DPGEN
 -----
 Symbolic Z-matrix:
 Charge =  0 Multiplicity = 2

                         Standard orientation:
 ---------------------------------------------------------------------
 Center     Atomic      Atomic             Coordinates (Angstroms)
 Number     Number       Type             X           Y           Z
 ---------------------------------------------------------------------
      1         11           0        2.489392   -0.405792   -0.922488
      2         11           0        3.687183   -2.958698    0.725147
      3         11           0       -2.445865    0.250101   -1.123937
      4         11           0        2.829240    3.274841    0.991033
      5         11           0       -5.696377   -0.335050    1.078787
      6         11           0       -0.749818   -2.165083   -0.204133
      7         11           0       -0.113755    2.339680   -0.544409
 ---------------------------------------------------------------------

 SCF Done:  E(UB3LYP) =  -1136.11209615     A.U. after   20 cycles

 The electronic state is 2-A.
 Alpha  occ. eigenvalues --  -38.45262 -38.44964 -38.44251 -38.44239 -38.44211
 Alpha  occ. eigenvalues --  -38.43889 -38.43667  -2.21054  -2.20749  -2.20042
 Alpha  occ. eigenvalues --   -2.20025  -2.19977  -2.19719  -2.19535  -1.14738
 Alpha  occ. eigenvalues --   -1.14729  -1.14671  -1.14379  -1.14378  -1.14347
 Alpha  occ. eigenvalues --   -1.13761  -1.13735  -1.13696  -1.13684  -1.13668
 Alpha  occ. eigenvalues --   -1.13645  -1.13634  -1.13609  -1.13603  -1.13403
 Alpha  occ. eigenvalues --   -1.13398  -1.13375  -1.13218  -1.13189  -1.13158
 Alpha  occ. eigenvalues --   -0.16595  -0.13506  -0.12288  -0.11193
 Alpha virt. eigenvalues --   -0.06676  -0.05727  -0.04567  -0.03713  -0.02650
 Alpha virt. eigenvalues --   -0.02421  -0.02071  -0.01619  -0.01198  -0.00827
 Alpha virt. eigenvalues --   -0.00587  -0.00420  -0.00099   0.00275   0.00567

  Beta  occ. eigenvalues --  -38.45250 -38.44817 -38.44240 -38.44237 -38.44191
  Beta  occ. eigenvalues --  -38.43886 -38.43662  -2.21032  -2.20475  -2.20046
  Beta  occ. eigenvalues --   -2.19999  -2.19940  -2.19714  -2.19531  -1.14717
  Beta  occ. eigenvalues --   -1.14709  -1.14666  -1.14192  -1.14192  -1.14163
  Beta  occ. eigenvalues --   -1.13754  -1.13731  -1.13689  -1.13667  -1.13652
  Beta  occ. eigenvalues --   -1.13620  -1.13608  -1.13601  -1.13582  -1.13401
  Beta  occ. eigenvalues --   -1.13387  -1.13369  -1.13218  -1.13190  -1.13120
  Beta  occ. eigenvalues --   -0.16252  -0.12765  -0.12145
  Beta virt. eigenvalues --   -0.07347  -0.06509  -0.05417  -0.04286  -0.03537
  Beta virt. eigenvalues --   -0.02475  -0.02047  -0.01572  -0.01390  -0.00879
  Beta virt. eigenvalues --   -0.00625  -0.00205  -0.00113   0.00139   0.00473

 Mulliken charges and spin densities:
               1          2
     1  Na  -0.397311   0.005373
     2  Na   0.235841   0.084626
     3  Na  -0.120308  -0.050872
     4  Na   0.485431   0.159048
     5  Na  -0.006609   0.777830
     6  Na  -0.015653   0.025332
     7  Na  -0.181391  -0.001337
 Sum of Mulliken charges =  -0.00000   1.00000

 Dipole moment (field-independent basis, Debye):
    X=              0.7945    Y=             -0.6024    Z=              0.5457  Tot=              1.1367
 Quadrupole moment (field-independent basis, Debye-Ang):
   XX=            -67.8614   YY=            -64.8364   ZZ=            -68.5605
   XY=             -0.2596   XZ=              4.2843   YZ=             -1.8900

 Normal termination of Gaussian 16 at Tue Nov 28 20:54:15 2023.
