 Gaussian 16, Revision B.01,
 Gaussian 16:  ES64L-G16RevB.01 20-Dec-2017

 -------------------------
 #P B3LYP/6-311+g(d) force
 -------------------------

 -----
 DPGEN
 -----
 Symbolic Z-matrix:
 Charge =  0 Multiplicity = 2

                         Standard orientation:
 ---------------------------------------------------------------------
 Center     Atomic      Atomic             Coordinates (Angstroms)
 Number     Number       Type             X           Y           Z
 ---------------------------------------------------------------------
      1         11           0       -0.783175    3.008746   -0.508491
      2         11           0       -1.157913   -2.771928   -0.580091
      3         11           0        2.748484   -2.245999   -0.902862
      4         11           0        4.025677   -0.150026    1.239772
      5         11           0        2.906946    2.223862   -0.126353
      6         11           0       -3.656325   -1.883399    0.874032
      7         11           0       -4.083694    1.818745    0.003993
 ---------------------------------------------------------------------

 SCF Done:  E(UB3LYP) =  -1136.10379337     A.U. after   25 cycles

 The electronic state is 2-A.
 Alpha  occ. eigenvalues --  -38.45245 -38.45202 -38.44684 -38.44396 -38.44371
 Alpha  occ. eigenvalues --  -38.43910 -38.43813  -2.21095  -2.20966  -2.20478
 Alpha  occ. eigenvalues --   -2.20210  -2.20134  -2.19729  -2.19647  -1.14823
 Alpha  occ. eigenvalues --   -1.14745  -1.14739  -1.14634  -1.14608  -1.14594
 Alpha  occ. eigenvalues --   -1.14175  -1.14142  -1.14128  -1.13878  -1.13843
 Alpha  occ. eigenvalues --   -1.13837  -1.13825  -1.13817  -1.13764  -1.13386
 Alpha  occ. eigenvalues --   -1.13366  -1.13354  -1.13316  -1.13286  -1.13267
 Alpha  occ. eigenvalues --   -0.16000  -0.14422  -0.12871  -0.10492
 Alpha virt. eigenvalues --   -0.07788  -0.04888  -0.04467  -0.03700  -0.03493
 Alpha virt. eigenvalues --   -0.02449  -0.02311  -0.01668  -0.01158  -0.00836
 Alpha virt. eigenvalues --   -0.00545  -0.00218   0.00231   0.00288   0.00531

  Beta  occ. eigenvalues --  -38.45238 -38.45158 -38.44665 -38.44409 -38.44324
  Beta  occ. eigenvalues --  -38.43834 -38.43768  -2.21090  -2.20886  -2.20449
  Beta  occ. eigenvalues --   -2.20161  -2.20124  -2.19587  -2.19567  -1.14800
  Beta  occ. eigenvalues --   -1.14745  -1.14713  -1.14582  -1.14557  -1.14528
  Beta  occ. eigenvalues --   -1.14144  -1.14129  -1.14079  -1.13847  -1.13839
  Beta  occ. eigenvalues --   -1.13819  -1.13790  -1.13783  -1.13759  -1.13291
  Beta  occ. eigenvalues --   -1.13270  -1.13258  -1.13256  -1.13233  -1.13212
  Beta  occ. eigenvalues --   -0.15518  -0.13757  -0.12153
  Beta virt. eigenvalues --   -0.07958  -0.07262  -0.04618  -0.03925  -0.03510
  Beta virt. eigenvalues --   -0.03181  -0.02237  -0.01973  -0.01431  -0.00864
  Beta virt. eigenvalues --   -0.00552  -0.00450   0.00045   0.00239   0.00394

 Mulliken charges and spin densities:
               1          2
     1  Na   0.055717  -0.116969
     2  Na  -0.503500   0.095080
     3  Na  -0.030572   0.376560
     4  Na   0.153993   0.066248
     5  Na  -0.214673   0.287792
     6  Na   0.438270   0.145020
     7  Na   0.100765   0.146268
 Sum of Mulliken charges =  -0.00000   1.00000

 Dipole moment (field-independent basis, Debye):
    X=              0.0577    Y=              0.2427    Z=              0.4070  Tot=              0.4774
 Quadrupole moment (field-independent basis, Debye-Ang):
   XX=            -55.2745   YY=            -77.6805   ZZ=            -68.6074
   XY=             -2.2670   XZ=              0.4944   YZ=             -1.2884

 Normal termination of Gaussian 16 at Mon Dec  4 01:06:58 2023.
