 Gaussian 16, Revision B.01,
 Gaussian 16:  ES64L-G16RevB.01 20-Dec-2017

 -------------------------
 #P B3LYP/6-311+g(d) force
 -------------------------

 -----
 DPGEN
 -----
 Symbolic Z-matrix:
 Charge =  0 Multiplicity = 2

                         Standard orientation:
 ---------------------------------------------------------------------
 Center     Atomic      Atomic             Coordinates (Angstroms)
 Number     Number       Type             X           Y           Z
 ---------------------------------------------------------------------
      1         11           0        0.775141   -1.669991    0.469057
      2         11           0        4.639087   -2.227715    0.222053
      3         11           0        2.669520    0.306368   -1.015687
      4         11           0        0.913041    3.807927    0.471168
      5         11           0       -1.297228    1.903297   -0.793679
      6         11           0       -2.865607   -0.225585    1.516963
      7         11           0       -4.833954   -1.894301   -0.869874
 ---------------------------------------------------------------------

 SCF Done:  E(UB3LYP) =  -1136.11281309     A.U. after   20 cycles

 The electronic state is 2-A.
 Alpha  occ. eigenvalues --  -38.44933 -38.44784 -38.44447 -38.44126 -38.43995
 Alpha  occ. eigenvalues --  -38.43988 -38.43704  -2.20753  -2.20565  -2.20259
 Alpha  occ. eigenvalues --   -2.19961  -2.19778  -2.19769  -2.19502  -1.14493
 Alpha  occ. eigenvalues --   -1.14444  -1.14335  -1.14229  -1.14226  -1.14167
 Alpha  occ. eigenvalues --   -1.13966  -1.13921  -1.13887  -1.13662  -1.13631
 Alpha  occ. eigenvalues --   -1.13522  -1.13470  -1.13443  -1.13430  -1.13417
 Alpha  occ. eigenvalues --   -1.13416  -1.13363  -1.13165  -1.13158  -1.13133
 Alpha  occ. eigenvalues --   -0.16557  -0.13729  -0.12370  -0.09906
 Alpha virt. eigenvalues --   -0.06808  -0.05695  -0.05065  -0.03301  -0.03082
 Alpha virt. eigenvalues --   -0.02354  -0.02114  -0.01616  -0.01136  -0.00536
 Alpha virt. eigenvalues --   -0.00432  -0.00070   0.00227   0.00304   0.00471

  Beta  occ. eigenvalues --  -38.44932 -38.44751 -38.44450 -38.44062 -38.44006
  Beta  occ. eigenvalues --  -38.43904 -38.43688  -2.20754  -2.20504  -2.20266
  Beta  occ. eigenvalues --   -2.19843  -2.19802  -2.19612  -2.19472  -1.14473
  Beta  occ. eigenvalues --   -1.14446  -1.14336  -1.14188  -1.14180  -1.14131
  Beta  occ. eigenvalues --   -1.13972  -1.13918  -1.13892  -1.13584  -1.13551
  Beta  occ. eigenvalues --   -1.13493  -1.13457  -1.13432  -1.13407  -1.13311
  Beta  occ. eigenvalues --   -1.13308  -1.13270  -1.13144  -1.13136  -1.13114
  Beta  occ. eigenvalues --   -0.16109  -0.13485  -0.11872
  Beta virt. eigenvalues --   -0.06696  -0.06303  -0.05449  -0.04801  -0.03081
  Beta virt. eigenvalues --   -0.02834  -0.02175  -0.01855  -0.01260  -0.00902
  Beta virt. eigenvalues --   -0.00324  -0.00085   0.00085   0.00377   0.00407

 Mulliken charges and spin densities:
               1          2
     1  Na  -0.551896   0.268935
     2  Na   0.690528   0.213677
     3  Na  -0.299545   0.091519
     4  Na   0.362352   0.090732
     5  Na  -0.416443   0.014057
     6  Na   0.225799  -0.157162
     7  Na  -0.010795   0.478242
 Sum of Mulliken charges =  -0.00000   1.00000

 Dipole moment (field-independent basis, Debye):
    X=              1.8066    Y=             -0.4744    Z=              0.3680  Tot=              1.9037
 Quadrupole moment (field-independent basis, Debye-Ang):
   XX=            -69.8868   YY=            -67.9971   ZZ=            -65.4651
   XY=             -5.5448   XZ=              2.2260   YZ=              2.0115

 Normal termination of Gaussian 16 at Wed Nov 29 02:41:15 2023.
