 Gaussian 16, Revision B.01,
 Gaussian 16:  ES64L-G16RevB.01 20-Dec-2017

 -------------------------
 #P B3LYP/6-311+g(d) force
 -------------------------

 -----
 DPGEN
 -----
 Symbolic Z-matrix:
 Charge =  0 Multiplicity = 2

                         Standard orientation:
 ---------------------------------------------------------------------
 Center     Atomic      Atomic             Coordinates (Angstroms)
 Number     Number       Type             X           Y           Z
 ---------------------------------------------------------------------
      1         11           0        2.511509    0.964033   -0.173867
      2         11           0       -1.404750    0.646089    1.850781
      3         11           0        1.125858   -1.313482    1.902814
      4         11           0       -3.828009   -0.981434   -0.485920
      5         11           0       -1.126064   -0.547624   -1.509776
      6         11           0        0.195250    3.226884   -0.572999
      7         11           0        2.526206   -1.994467   -1.011033
 ---------------------------------------------------------------------

 SCF Done:  E(UB3LYP) =  -1136.12327960     A.U. after   20 cycles

 The electronic state is 2-A.
 Alpha  occ. eigenvalues --  -38.44408 -38.44323 -38.44261 -38.44259 -38.43798
 Alpha  occ. eigenvalues --  -38.43689 -38.42621  -2.20269  -2.20227  -2.20144
 Alpha  occ. eigenvalues --   -2.20092  -2.19708  -2.19562  -2.18431  -1.14027
 Alpha  occ. eigenvalues --   -1.13977  -1.13909  -1.13887  -1.13867  -1.13861
 Alpha  occ. eigenvalues --   -1.13828  -1.13804  -1.13777  -1.13721  -1.13716
 Alpha  occ. eigenvalues --   -1.13644  -1.13434  -1.13387  -1.13356  -1.13206
 Alpha  occ. eigenvalues --   -1.13200  -1.13175  -1.12103  -1.12091  -1.12068
 Alpha  occ. eigenvalues --   -0.18201  -0.13640  -0.11866  -0.11597
 Alpha virt. eigenvalues --   -0.06008  -0.05093  -0.04450  -0.03610  -0.03172
 Alpha virt. eigenvalues --   -0.02655  -0.01895  -0.00922  -0.00599  -0.00144
 Alpha virt. eigenvalues --    0.00160   0.00221   0.00455   0.00715   0.00766

  Beta  occ. eigenvalues --  -38.44341 -38.44252 -38.44248 -38.44227 -38.43786
  Beta  occ. eigenvalues --  -38.43674 -38.42614  -2.20149  -2.20093  -2.20092
  Beta  occ. eigenvalues --   -2.20068  -2.19689  -2.19535  -2.18420  -1.13946
  Beta  occ. eigenvalues --   -1.13923  -1.13820  -1.13801  -1.13789  -1.13779
  Beta  occ. eigenvalues --   -1.13757  -1.13741  -1.13711  -1.13705  -1.13700
  Beta  occ. eigenvalues --   -1.13618  -1.13415  -1.13362  -1.13342  -1.13183
  Beta  occ. eigenvalues --   -1.13174  -1.13162  -1.12092  -1.12081  -1.12063
  Beta  occ. eigenvalues --   -0.17458  -0.13468  -0.11436
  Beta virt. eigenvalues --   -0.07784  -0.05820  -0.04722  -0.04179  -0.03232
  Beta virt. eigenvalues --   -0.02427  -0.02126  -0.01751  -0.00831  -0.00253
  Beta virt. eigenvalues --   -0.00096   0.00285   0.00330   0.00595   0.00792

 Mulliken charges and spin densities:
               1          2
     1  Na  -0.542342   0.289420
     2  Na   0.132954   0.261522
     3  Na  -0.161012   0.146034
     4  Na   0.241878  -0.047853
     5  Na  -0.694988   0.334828
     6  Na   0.137828  -0.071776
     7  Na   0.885683   0.087827
 Sum of Mulliken charges =  -0.00000   1.00000

 Dipole moment (field-independent basis, Debye):
    X=             -0.5588    Y=             -0.7085    Z=              0.1030  Tot=              0.9082
 Quadrupole moment (field-independent basis, Debye-Ang):
   XX=            -57.7196   YY=            -71.8027   ZZ=            -67.5038
   XY=             -2.1494   XZ=             -2.3573   YZ=              0.7574

 Normal termination of Gaussian 16 at Mon Dec  4 03:25:29 2023.
