 Gaussian 16, Revision B.01,
 Gaussian 16:  ES64L-G16RevB.01 20-Dec-2017

 -------------------------
 #P B3LYP/6-311+g(d) force
 -------------------------

 -----
 DPGEN
 -----
 Symbolic Z-matrix:
 Charge =  0 Multiplicity = 2

                         Standard orientation:
 ---------------------------------------------------------------------
 Center     Atomic      Atomic             Coordinates (Angstroms)
 Number     Number       Type             X           Y           Z
 ---------------------------------------------------------------------
      1         11           0       -2.928850   -2.193596   -0.348394
      2         11           0        0.199991   -0.241612    2.119443
      3         11           0       -2.887933    1.177415    0.382371
      4         11           0        3.029505   -1.957844    0.102812
      5         11           0        2.761210    1.488621   -0.185649
      6         11           0       -0.407142    2.432949   -0.537263
      7         11           0        0.233219   -0.705934   -1.533320
 ---------------------------------------------------------------------

 SCF Done:  E(UB3LYP) =  -1136.12469932     A.U. after   22 cycles

 The electronic state is 2-A.
 Alpha  occ. eigenvalues --  -38.44512 -38.44501 -38.44428 -38.44203 -38.43997
 Alpha  occ. eigenvalues --  -38.43764 -38.42576  -2.20367  -2.20353  -2.20228
 Alpha  occ. eigenvalues --   -2.20036  -2.19774  -2.19658  -2.18506  -1.14098
 Alpha  occ. eigenvalues --   -1.14026  -1.14022  -1.14017  -1.13997  -1.13987
 Alpha  occ. eigenvalues --   -1.13898  -1.13885  -1.13866  -1.13707  -1.13669
 Alpha  occ. eigenvalues --   -1.13642  -1.13440  -1.13437  -1.13418  -1.13357
 Alpha  occ. eigenvalues --   -1.13316  -1.13260  -1.12199  -1.12170  -1.12131
 Alpha  occ. eigenvalues --   -0.18355  -0.13685  -0.11686  -0.10706
 Alpha virt. eigenvalues --   -0.06350  -0.06217  -0.03948  -0.03412  -0.02615
 Alpha virt. eigenvalues --   -0.02495  -0.02148  -0.01586  -0.00742  -0.00151
 Alpha virt. eigenvalues --    0.00002   0.00256   0.00562   0.00639   0.00727

  Beta  occ. eigenvalues --  -38.44504 -38.44497 -38.44428 -38.44105 -38.43994
  Beta  occ. eigenvalues --  -38.43710 -38.42566  -2.20362  -2.20342  -2.20230
  Beta  occ. eigenvalues --   -2.19855  -2.19770  -2.19559  -2.18491  -1.14099
  Beta  occ. eigenvalues --   -1.14020  -1.13999  -1.13997  -1.13986  -1.13981
  Beta  occ. eigenvalues --   -1.13897  -1.13877  -1.13864  -1.13585  -1.13544
  Beta  occ. eigenvalues --   -1.13510  -1.13437  -1.13427  -1.13416  -1.13289
  Beta  occ. eigenvalues --   -1.13239  -1.13188  -1.12191  -1.12156  -1.12097
  Beta  occ. eigenvalues --   -0.17632  -0.13526  -0.11457
  Beta virt. eigenvalues --   -0.06845  -0.06213  -0.06141  -0.03775  -0.02828
  Beta virt. eigenvalues --   -0.02037  -0.01881  -0.01713  -0.01276  -0.00799
  Beta virt. eigenvalues --   -0.00040   0.00087   0.00292   0.00651   0.00684

 Mulliken charges and spin densities:
               1          2
     1  Na   0.048660  -0.008316
     2  Na  -0.392237   0.545766
     3  Na   0.343151   0.104194
     4  Na   0.176137   0.022202
     5  Na   0.283230   0.066394
     6  Na  -0.144876  -0.009010
     7  Na  -0.314065   0.278770
 Sum of Mulliken charges =  -0.00000   1.00000

 Dipole moment (field-independent basis, Debye):
    X=              0.6012    Y=             -0.3566    Z=              0.2620  Tot=              0.7464
 Quadrupole moment (field-independent basis, Debye-Ang):
   XX=            -51.1385   YY=            -68.1393   ZZ=            -74.8753
   XY=             -0.7392   XZ=             -0.6371   YZ=             -0.1084

 Normal termination of Gaussian 16 at Thu Dec  7 05:28:29 2023.
