 Gaussian 16, Revision B.01,
 Gaussian 16:  ES64L-G16RevB.01 20-Dec-2017

 -------------------------
 #P B3LYP/6-311+g(d) force
 -------------------------

 -----
 DPGEN
 -----
 Symbolic Z-matrix:
 Charge =  0 Multiplicity = 2

                         Standard orientation:
 ---------------------------------------------------------------------
 Center     Atomic      Atomic             Coordinates (Angstroms)
 Number     Number       Type             X           Y           Z
 ---------------------------------------------------------------------
      1         11           0       -2.787109   -2.048450    1.150231
      2         11           0       -0.200102    0.657156    2.167422
      3         11           0       -0.314013    2.824606   -0.313974
      4         11           0        2.971477    1.029290    0.210085
      5         11           0        3.611608   -1.976737   -0.774511
      6         11           0       -3.161071    0.219978   -1.782488
      7         11           0       -0.120790   -0.705842   -0.656765
 ---------------------------------------------------------------------

 SCF Done:  E(UB3LYP) =  -1136.12584568     A.U. after   21 cycles

 The electronic state is 2-A.
 Alpha  occ. eigenvalues --  -38.44518 -38.44170 -38.44108 -38.44037 -38.43889
 Alpha  occ. eigenvalues --  -38.43212 -38.43164  -2.20332  -2.20001  -2.19970
 Alpha  occ. eigenvalues --   -2.19879  -2.19816  -2.19054  -2.18962  -1.14008
 Alpha  occ. eigenvalues --   -1.13970  -1.13939  -1.13750  -1.13651  -1.13645
 Alpha  occ. eigenvalues --   -1.13626  -1.13597  -1.13584  -1.13575  -1.13557
 Alpha  occ. eigenvalues --   -1.13536  -1.13486  -1.13473  -1.13401  -1.12732
 Alpha  occ. eigenvalues --   -1.12721  -1.12675  -1.12627  -1.12622  -1.12601
 Alpha  occ. eigenvalues --   -0.17934  -0.13513  -0.11551  -0.11241
 Alpha virt. eigenvalues --   -0.05917  -0.05273  -0.04997  -0.03170  -0.02900
 Alpha virt. eigenvalues --   -0.02332  -0.02143  -0.01238  -0.00835  -0.00199
 Alpha virt. eigenvalues --    0.00051   0.00191   0.00446   0.00536   0.00668

  Beta  occ. eigenvalues --  -38.44451 -38.44139 -38.44043 -38.44036 -38.43876
  Beta  occ. eigenvalues --  -38.43200 -38.43163  -2.20207  -2.19914  -2.19883
  Beta  occ. eigenvalues --   -2.19877  -2.19797  -2.19033  -2.18961  -1.13919
  Beta  occ. eigenvalues --   -1.13887  -1.13853  -1.13680  -1.13607  -1.13582
  Beta  occ. eigenvalues --   -1.13576  -1.13568  -1.13557  -1.13552  -1.13495
  Beta  occ. eigenvalues --   -1.13478  -1.13473  -1.13455  -1.13396  -1.12715
  Beta  occ. eigenvalues --   -1.12709  -1.12648  -1.12628  -1.12620  -1.12600
  Beta  occ. eigenvalues --   -0.17271  -0.13217  -0.11347
  Beta virt. eigenvalues --   -0.07484  -0.05760  -0.05013  -0.04418  -0.02970
  Beta virt. eigenvalues --   -0.02231  -0.02020  -0.01816  -0.01063  -0.00487
  Beta virt. eigenvalues --   -0.00152   0.00166   0.00284   0.00597   0.00724

 Mulliken charges and spin densities:
               1          2
     1  Na   0.011383   0.153244
     2  Na   0.153088   0.207983
     3  Na  -0.016698   0.160571
     4  Na  -0.023612  -0.010932
     5  Na   0.348683  -0.036055
     6  Na   0.406437   0.191463
     7  Na  -0.879281   0.333726
 Sum of Mulliken charges =  -0.00000   1.00000

 Dipole moment (field-independent basis, Debye):
    X=             -0.8803    Y=              0.4451    Z=              0.4635  Tot=              1.0898
 Quadrupole moment (field-independent basis, Debye-Ang):
   XX=            -59.9026   YY=            -66.6423   ZZ=            -68.5439
   XY=              2.3508   XZ=              1.1341   YZ=             -2.3058

 Normal termination of Gaussian 16 at Wed Dec  6 00:53:41 2023.
