 Gaussian 16, Revision B.01,
 Gaussian 16:  ES64L-G16RevB.01 20-Dec-2017

 -------------------------
 #P B3LYP/6-311+g(d) force
 -------------------------

 -----
 DPGEN
 -----
 Symbolic Z-matrix:
 Charge =  0 Multiplicity = 2

                         Standard orientation:
 ---------------------------------------------------------------------
 Center     Atomic      Atomic             Coordinates (Angstroms)
 Number     Number       Type             X           Y           Z
 ---------------------------------------------------------------------
      1         11           0       -2.914054   -2.457648   -0.114599
      2         11           0       -2.823005    1.220066    0.050341
      3         11           0       -0.159424    0.014797    1.875190
      4         11           0        0.018007    3.178591   -0.099342
      5         11           0        0.059508   -0.571926   -1.802586
      6         11           0        2.992185    1.049698   -0.248197
      7         11           0        2.826782   -2.433579    0.339193
 ---------------------------------------------------------------------

 SCF Done:  E(UB3LYP) =  -1136.12837375     A.U. after   21 cycles

 The electronic state is 2-A.
 Alpha  occ. eigenvalues --  -38.44413 -38.44382 -38.44324 -38.44283 -38.43941
 Alpha  occ. eigenvalues --  -38.43898 -38.43111  -2.20186  -2.20176  -2.20110
 Alpha  occ. eigenvalues --   -2.20075  -2.19765  -2.19742  -2.18926  -1.13866
 Alpha  occ. eigenvalues --   -1.13858  -1.13848  -1.13840  -1.13826  -1.13800
 Alpha  occ. eigenvalues --   -1.13788  -1.13788  -1.13750  -1.13744  -1.13730
 Alpha  occ. eigenvalues --   -1.13700  -1.13462  -1.13420  -1.13406  -1.13373
 Alpha  occ. eigenvalues --   -1.13369  -1.13359  -1.12599  -1.12583  -1.12579
 Alpha  occ. eigenvalues --   -0.17682  -0.13174  -0.11909  -0.10201
 Alpha virt. eigenvalues --   -0.06277  -0.05944  -0.04779  -0.03213  -0.02609
 Alpha virt. eigenvalues --   -0.02296  -0.01965  -0.01634  -0.01055  -0.00572
 Alpha virt. eigenvalues --   -0.00087   0.00290   0.00624   0.00661   0.00715

  Beta  occ. eigenvalues --  -38.44405 -38.44374 -38.44327 -38.44278 -38.43872
  Beta  occ. eigenvalues --  -38.43820 -38.43109  -2.20173  -2.20163  -2.20103
  Beta  occ. eigenvalues --   -2.20083  -2.19639  -2.19598  -2.18925  -1.13852
  Beta  occ. eigenvalues --   -1.13843  -1.13837  -1.13819  -1.13816  -1.13790
  Beta  occ. eigenvalues --   -1.13780  -1.13768  -1.13755  -1.13738  -1.13731
  Beta  occ. eigenvalues --   -1.13704  -1.13373  -1.13321  -1.13315  -1.13280
  Beta  occ. eigenvalues --   -1.13270  -1.13253  -1.12600  -1.12584  -1.12561
  Beta  occ. eigenvalues --   -0.16990  -0.12995  -0.11725
  Beta virt. eigenvalues --   -0.06550  -0.06131  -0.05725  -0.04743  -0.02546
  Beta virt. eigenvalues --   -0.02008  -0.01827  -0.01587  -0.01250  -0.01109
  Beta virt. eigenvalues --   -0.00578   0.00091   0.00334   0.00654   0.00735

 Mulliken charges and spin densities:
               1          2
     1  Na  -0.003169  -0.088139
     2  Na   0.203646   0.025203
     3  Na  -0.030857   0.559028
     4  Na  -0.199467  -0.045605
     5  Na  -0.101146   0.507897
     6  Na   0.150444   0.051195
     7  Na  -0.019451  -0.009578
 Sum of Mulliken charges =  -0.00000   1.00000

 Dipole moment (field-independent basis, Debye):
    X=              0.0602    Y=             -0.4606    Z=              0.0187  Tot=              0.4649
 Quadrupole moment (field-independent basis, Debye-Ang):
   XX=            -55.3111   YY=            -60.8150   ZZ=            -77.0567
   XY=              0.0498   XZ=              0.2071   YZ=             -1.4300

 Normal termination of Gaussian 16 at Thu Dec  7 12:20:39 2023.
