 Gaussian 16, Revision B.01,
 Gaussian 16:  ES64L-G16RevB.01 20-Dec-2017

 -------------------------
 #P B3LYP/6-311+g(d) force
 -------------------------

 -----
 DPGEN
 -----
 Symbolic Z-matrix:
 Charge =  0 Multiplicity = 2

                         Standard orientation:
 ---------------------------------------------------------------------
 Center     Atomic      Atomic             Coordinates (Angstroms)
 Number     Number       Type             X           Y           Z
 ---------------------------------------------------------------------
      1         11           0        5.029418    0.192226    2.301490
      2         11           0       -4.835764   -0.019080    1.212676
      3         11           0       -5.615324    2.686939   -0.565039
      4         11           0       -2.520593   -2.655263    0.547104
      5         11           0        4.291737    2.430287   -0.569816
      6         11           0        0.094009   -1.813080   -1.544703
      7         11           0        3.556517   -0.822030   -1.381711
 ---------------------------------------------------------------------

 SCF Done:  E(UB3LYP) =  -1136.10293713     A.U. after   25 cycles

 The electronic state is 2-A.
 Alpha  occ. eigenvalues --  -38.46425 -38.45616 -38.44524 -38.43882 -38.43777
 Alpha  occ. eigenvalues --  -38.43507 -38.43477  -2.22164  -2.21388  -2.20337
 Alpha  occ. eigenvalues --   -2.19666  -2.19577  -2.19264  -2.19248  -1.15849
 Alpha  occ. eigenvalues --   -1.15840  -1.15796  -1.15045  -1.15041  -1.14980
 Alpha  occ. eigenvalues --   -1.14017  -1.13998  -1.13934  -1.13314  -1.13313
 Alpha  occ. eigenvalues --   -1.13297  -1.13235  -1.13228  -1.13203  -1.12952
 Alpha  occ. eigenvalues --   -1.12952  -1.12933  -1.12924  -1.12910  -1.12895
 Alpha  occ. eigenvalues --   -0.15677  -0.13928  -0.12032  -0.10696
 Alpha virt. eigenvalues --   -0.07664  -0.05893  -0.04206  -0.03499  -0.02695
 Alpha virt. eigenvalues --   -0.02665  -0.02364  -0.01818  -0.01528  -0.01086
 Alpha virt. eigenvalues --   -0.00809  -0.00405  -0.00234   0.00113   0.00212

  Beta  occ. eigenvalues --  -38.46449 -38.45532 -38.44468 -38.43821 -38.43719
  Beta  occ. eigenvalues --  -38.43531 -38.43493  -2.22214  -2.21230  -2.20234
  Beta  occ. eigenvalues --   -2.19552  -2.19467  -2.19313  -2.19282  -1.15885
  Beta  occ. eigenvalues --   -1.15861  -1.15823  -1.14935  -1.14932  -1.14876
  Beta  occ. eigenvalues --   -1.13943  -1.13930  -1.13866  -1.13236  -1.13235
  Beta  occ. eigenvalues --   -1.13225  -1.13158  -1.13154  -1.13141  -1.12990
  Beta  occ. eigenvalues --   -1.12988  -1.12960  -1.12950  -1.12910  -1.12882
  Beta  occ. eigenvalues --   -0.15224  -0.13484  -0.11499
  Beta virt. eigenvalues --   -0.07590  -0.07123  -0.05652  -0.03861  -0.03273
  Beta virt. eigenvalues --   -0.02593  -0.02251  -0.02153  -0.01440  -0.01309
  Beta virt. eigenvalues --   -0.00897  -0.00537  -0.00101  -0.00051   0.00191

 Mulliken charges and spin densities:
               1          2
     1  Na   0.103783   0.434497
     2  Na  -0.168420  -0.083848
     3  Na   0.228566   0.312775
     4  Na   0.224859   0.332247
     5  Na   0.377078  -0.108164
     6  Na  -0.345295  -0.186809
     7  Na  -0.420572   0.299302
 Sum of Mulliken charges =  -0.00000   1.00000

 Dipole moment (field-independent basis, Debye):
    X=              3.5873    Y=              1.5595    Z=              0.1046  Tot=              3.9130
 Quadrupole moment (field-independent basis, Debye-Ang):
   XX=            -68.7882   YY=            -61.4837   ZZ=            -68.9654
   XY=              4.1020   XZ=              1.1515   YZ=             -9.1574

 Normal termination of Gaussian 16 at Mon Dec  4 02:38:37 2023.
