 Gaussian 16, Revision B.01,
 Gaussian 16:  ES64L-G16RevB.01 20-Dec-2017

 -------------------------
 #P B3LYP/6-311+g(d) force
 -------------------------

 -----
 DPGEN
 -----
 Symbolic Z-matrix:
 Charge =  0 Multiplicity = 2

                         Standard orientation:
 ---------------------------------------------------------------------
 Center     Atomic      Atomic             Coordinates (Angstroms)
 Number     Number       Type             X           Y           Z
 ---------------------------------------------------------------------
      1         11           0       -0.119064    0.094696   -1.578490
      2         11           0       -2.202210   -2.045316    0.182421
      3         11           0        3.042756    0.659715   -0.164854
      4         11           0        1.425341   -2.528821   -0.417716
      5         11           0       -2.869002    1.137001   -0.063045
      6         11           0        0.165490    2.881517    0.017065
      7         11           0        0.556690   -0.198792    2.024618
 ---------------------------------------------------------------------

 SCF Done:  E(UB3LYP) =  -1136.13949813     A.U. after   19 cycles

 The electronic state is 2-A.
 Alpha  occ. eigenvalues --  -38.44082 -38.43749 -38.43602 -38.43477 -38.43473
 Alpha  occ. eigenvalues --  -38.43294 -38.42992  -2.19925  -2.19607  -2.19449
 Alpha  occ. eigenvalues --   -2.19374  -2.19337  -2.19153  -2.19006  -1.13601
 Alpha  occ. eigenvalues --   -1.13593  -1.13560  -1.13305  -1.13273  -1.13255
 Alpha  occ. eigenvalues --   -1.13118  -1.13112  -1.13083  -1.13052  -1.13033
 Alpha  occ. eigenvalues --   -1.13019  -1.12994  -1.12970  -1.12956  -1.12870
 Alpha  occ. eigenvalues --   -1.12816  -1.12775  -1.12681  -1.12633  -1.12623
 Alpha  occ. eigenvalues --   -0.18791  -0.13147  -0.12494  -0.10672
 Alpha virt. eigenvalues --   -0.05637  -0.05139  -0.04701  -0.03189  -0.02855
 Alpha virt. eigenvalues --   -0.02461  -0.01508  -0.01090  -0.00357  -0.00308
 Alpha virt. eigenvalues --   -0.00001   0.00364   0.00818   0.00887   0.00909

  Beta  occ. eigenvalues --  -38.44076 -38.43748 -38.43598 -38.43460 -38.43385
  Beta  occ. eigenvalues --  -38.43289 -38.42929  -2.19919  -2.19607  -2.19445
  Beta  occ. eigenvalues --   -2.19318  -2.19206  -2.19148  -2.18892  -1.13593
  Beta  occ. eigenvalues --   -1.13569  -1.13556  -1.13305  -1.13263  -1.13250
  Beta  occ. eigenvalues --   -1.13114  -1.13088  -1.13083  -1.13022  -1.12971
  Beta  occ. eigenvalues --   -1.12946  -1.12925  -1.12880  -1.12869  -1.12855
  Beta  occ. eigenvalues --   -1.12794  -1.12772  -1.12603  -1.12549  -1.12543
  Beta  occ. eigenvalues --   -0.18071  -0.12919  -0.12250
  Beta virt. eigenvalues --   -0.06747  -0.05599  -0.05135  -0.04658  -0.02417
  Beta virt. eigenvalues --   -0.02082  -0.01433  -0.01386  -0.01018  -0.00398
  Beta virt. eigenvalues --   -0.00365   0.00147   0.00392   0.00858   0.00888

 Mulliken charges and spin densities:
               1          2
     1  Na  -0.247792   0.413259
     2  Na   0.117408  -0.016331
     3  Na   0.290275  -0.044759
     4  Na   0.194632  -0.024271
     5  Na   0.092592  -0.037519
     6  Na   0.116517  -0.076293
     7  Na  -0.563632   0.785914
 Sum of Mulliken charges =  -0.00000   1.00000

 Dipole moment (field-independent basis, Debye):
    X=              0.1771    Y=             -0.0026    Z=              0.1459  Tot=              0.2294
 Quadrupole moment (field-independent basis, Debye-Ang):
   XX=            -56.1662   YY=            -62.3118   ZZ=            -74.6874
   XY=              0.2305   XZ=             -1.4286   YZ=              0.5267

 Normal termination of Gaussian 16 at Fri Dec  8 02:41:03 2023.
