 Gaussian 16, Revision B.01,
 Gaussian 16:  ES64L-G16RevB.01 20-Dec-2017

 -------------------------
 #P B3LYP/6-311+g(d) force
 -------------------------

 -----
 DPGEN
 -----
 Symbolic Z-matrix:
 Charge =  0 Multiplicity = 2

                         Standard orientation:
 ---------------------------------------------------------------------
 Center     Atomic      Atomic             Coordinates (Angstroms)
 Number     Number       Type             X           Y           Z
 ---------------------------------------------------------------------
      1         11           0       -1.119982    0.826467    2.350175
      2         11           0       -1.640088    2.499603   -0.724212
      3         11           0        1.038748   -1.500644   -0.102518
      4         11           0        2.035271    1.973746    0.179675
      5         11           0        3.949640   -0.890498   -0.440897
      6         11           0       -2.201034   -0.611824   -2.333689
      7         11           0       -2.062555   -2.296851    1.071467
 ---------------------------------------------------------------------

 SCF Done:  E(UB3LYP) =  -1136.12684343     A.U. after   21 cycles

 The electronic state is 2-A.
 Alpha  occ. eigenvalues --  -38.44820 -38.44459 -38.44140 -38.43970 -38.43498
 Alpha  occ. eigenvalues --  -38.43469 -38.43397  -2.20622  -2.20285  -2.19932
 Alpha  occ. eigenvalues --   -2.19812  -2.19301  -2.19293  -2.19283  -1.14281
 Alpha  occ. eigenvalues --   -1.14263  -1.14222  -1.13955  -1.13933  -1.13887
 Alpha  occ. eigenvalues --   -1.13629  -1.13628  -1.13545  -1.13531  -1.13457
 Alpha  occ. eigenvalues --   -1.13428  -1.12990  -1.12978  -1.12969  -1.12966
 Alpha  occ. eigenvalues --   -1.12958  -1.12952  -1.12930  -1.12929  -1.12875
 Alpha  occ. eigenvalues --   -0.17452  -0.13450  -0.11849  -0.11640
 Alpha virt. eigenvalues --   -0.05748  -0.05272  -0.04666  -0.03388  -0.03318
 Alpha virt. eigenvalues --   -0.02994  -0.01733  -0.01030  -0.00577  -0.00215
 Alpha virt. eigenvalues --    0.00087   0.00217   0.00311   0.00620   0.00786

  Beta  occ. eigenvalues --  -38.44726 -38.44385 -38.44140 -38.43972 -38.43483
  Beta  occ. eigenvalues --  -38.43453 -38.43394  -2.20448  -2.20149  -2.19933
  Beta  occ. eigenvalues --   -2.19815  -2.19279  -2.19275  -2.19266  -1.14163
  Beta  occ. eigenvalues --   -1.14143  -1.14101  -1.13862  -1.13846  -1.13783
  Beta  occ. eigenvalues --   -1.13629  -1.13623  -1.13548  -1.13534  -1.13458
  Beta  occ. eigenvalues --   -1.13430  -1.12973  -1.12963  -1.12958  -1.12953
  Beta  occ. eigenvalues --   -1.12944  -1.12930  -1.12898  -1.12894  -1.12873
  Beta  occ. eigenvalues --   -0.16826  -0.13090  -0.11637
  Beta virt. eigenvalues --   -0.07805  -0.05568  -0.05168  -0.04040  -0.03100
  Beta virt. eigenvalues --   -0.02763  -0.02301  -0.01615  -0.01027  -0.00200
  Beta virt. eigenvalues --   -0.00165   0.00171   0.00343   0.00507   0.00777

 Mulliken charges and spin densities:
               1          2
     1  Na   0.017261   0.327496
     2  Na  -0.036145   0.134134
     3  Na  -1.280456   0.274972
     4  Na  -0.067375  -0.016673
     5  Na   0.309817  -0.074664
     6  Na   0.038295   0.331443
     7  Na   1.018603   0.023293
 Sum of Mulliken charges =  -0.00000   1.00000

 Dipole moment (field-independent basis, Debye):
    X=              0.3338    Y=              0.0651    Z=             -0.0240  Tot=              0.3409
 Quadrupole moment (field-independent basis, Debye-Ang):
   XX=            -57.7782   YY=            -71.4689   ZZ=            -66.3699
   XY=              1.5047   XZ=             -0.6494   YZ=              0.1788

 Normal termination of Gaussian 16 at Sun Dec  3 17:46:55 2023.
