 Gaussian 16, Revision B.01,
 Gaussian 16:  ES64L-G16RevB.01 20-Dec-2017

 -------------------------
 #P B3LYP/6-311+g(d) force
 -------------------------

 -----
 DPGEN
 -----
 Symbolic Z-matrix:
 Charge =  0 Multiplicity = 2

                         Standard orientation:
 ---------------------------------------------------------------------
 Center     Atomic      Atomic             Coordinates (Angstroms)
 Number     Number       Type             X           Y           Z
 ---------------------------------------------------------------------
      1         11           0        3.571815    2.140520    0.055472
      2         11           0        1.443970   -3.320379   -0.319841
      3         11           0       -2.416563   -2.768218   -0.954745
      4         11           0       -3.778759   -0.856318    1.044397
      5         11           0        3.994766   -1.575562    0.652618
      6         11           0       -3.544457    2.605443    0.083191
      7         11           0        0.729227    3.774513   -0.561092
 ---------------------------------------------------------------------

 SCF Done:  E(UB3LYP) =  -1136.10433997     A.U. after   21 cycles

 The electronic state is 2-A.
 Alpha  occ. eigenvalues --  -38.44941 -38.44910 -38.44696 -38.44689 -38.44504
 Alpha  occ. eigenvalues --  -38.44278 -38.44251  -2.20735  -2.20669  -2.20474
 Alpha  occ. eigenvalues --   -2.20440  -2.20278  -2.20098  -2.20049  -1.14445
 Alpha  occ. eigenvalues --   -1.14404  -1.14382  -1.14350  -1.14344  -1.14316
 Alpha  occ. eigenvalues --   -1.14121  -1.14114  -1.14111  -1.14106  -1.14093
 Alpha  occ. eigenvalues --   -1.14086  -1.13949  -1.13935  -1.13903  -1.13752
 Alpha  occ. eigenvalues --   -1.13735  -1.13722  -1.13707  -1.13699  -1.13686
 Alpha  occ. eigenvalues --   -0.15363  -0.14033  -0.13171  -0.10988
 Alpha virt. eigenvalues --   -0.07663  -0.05015  -0.04509  -0.03557  -0.03463
 Alpha virt. eigenvalues --   -0.02445  -0.02136  -0.01980  -0.01277  -0.01152
 Alpha virt. eigenvalues --   -0.00740  -0.00230  -0.00054   0.00341   0.00596

  Beta  occ. eigenvalues --  -38.44946 -38.44908 -38.44677 -38.44602 -38.44479
  Beta  occ. eigenvalues --  -38.44218 -38.44217  -2.20750  -2.20670  -2.20422
  Beta  occ. eigenvalues --   -2.20298  -2.20235  -2.19988  -2.19986  -1.14444
  Beta  occ. eigenvalues --   -1.14420  -1.14361  -1.14353  -1.14348  -1.14290
  Beta  occ. eigenvalues --   -1.14104  -1.14099  -1.14055  -1.14002  -1.13988
  Beta  occ. eigenvalues --   -1.13975  -1.13921  -1.13909  -1.13861  -1.13681
  Beta  occ. eigenvalues --   -1.13664  -1.13659  -1.13657  -1.13649  -1.13639
  Beta  occ. eigenvalues --   -0.14825  -0.13399  -0.12354
  Beta virt. eigenvalues --   -0.07883  -0.07780  -0.04540  -0.04053  -0.03352
  Beta virt. eigenvalues --   -0.03212  -0.02204  -0.01844  -0.01818  -0.01168
  Beta virt. eigenvalues --   -0.00798  -0.00481   0.00054   0.00067   0.00304

 Mulliken charges and spin densities:
               1          2
     1  Na   0.074984   0.079362
     2  Na  -0.127980   0.035426
     3  Na  -0.115809   0.256181
     4  Na  -0.127771  -0.018055
     5  Na   0.339266   0.131447
     6  Na  -0.000521   0.488268
     7  Na  -0.042169   0.027371
 Sum of Mulliken charges =  -0.00000   1.00000

 Dipole moment (field-independent basis, Debye):
    X=             -0.0775    Y=             -0.2059    Z=             -0.0056  Tot=              0.2201
 Quadrupole moment (field-independent basis, Debye-Ang):
   XX=            -63.1295   YY=            -68.7110   ZZ=            -70.2217
   XY=             -0.1875   XZ=              1.1115   YZ=             -0.2014

 Normal termination of Gaussian 16 at Sun Dec  3 12:08:24 2023.
