 Gaussian 16, Revision B.01,
 Gaussian 16:  ES64L-G16RevB.01 20-Dec-2017

 -------------------------
 #P B3LYP/6-311+g(d) force
 -------------------------

 -----
 DPGEN
 -----
 Symbolic Z-matrix:
 Charge =  0 Multiplicity = 2

                         Standard orientation:
 ---------------------------------------------------------------------
 Center     Atomic      Atomic             Coordinates (Angstroms)
 Number     Number       Type             X           Y           Z
 ---------------------------------------------------------------------
      1         11           0       -1.441792    1.613013    0.998851
      2         11           0        2.327067    0.769072    1.599360
      3         11           0       -3.480062   -0.810600   -0.925048
      4         11           0        0.687571    3.129378   -1.107507
      5         11           0        2.776698   -2.217829   -1.009274
      6         11           0        0.121026   -0.663841   -1.347290
      7         11           0       -0.990508   -1.819192    1.790908
 ---------------------------------------------------------------------

 SCF Done:  E(UB3LYP) =  -1136.12822582     A.U. after   19 cycles

 The electronic state is 2-A.
 Alpha  occ. eigenvalues --  -38.44813 -38.44465 -38.44305 -38.43528 -38.43427
 Alpha  occ. eigenvalues --  -38.43422 -38.43123  -2.20578  -2.20280  -2.20090
 Alpha  occ. eigenvalues --   -2.19389  -2.19230  -2.19227  -2.19048  -1.14255
 Alpha  occ. eigenvalues --   -1.14231  -1.14197  -1.13961  -1.13934  -1.13880
 Alpha  occ. eigenvalues --   -1.13763  -1.13750  -1.13710  -1.13093  -1.13078
 Alpha  occ. eigenvalues --   -1.13001  -1.12963  -1.12893  -1.12880  -1.12873
 Alpha  occ. eigenvalues --   -1.12857  -1.12852  -1.12739  -1.12687  -1.12656
 Alpha  occ. eigenvalues --   -0.17746  -0.12607  -0.11906  -0.11094
 Alpha virt. eigenvalues --   -0.05944  -0.05118  -0.04853  -0.03121  -0.03001
 Alpha virt. eigenvalues --   -0.02590  -0.01768  -0.01103  -0.00985   0.00031
 Alpha virt. eigenvalues --    0.00152   0.00188   0.00294   0.00585   0.00702

  Beta  occ. eigenvalues --  -38.44782 -38.44410 -38.44292 -38.43516 -38.43412
  Beta  occ. eigenvalues --  -38.43408 -38.43080  -2.20520  -2.20179  -2.20066
  Beta  occ. eigenvalues --   -2.19372  -2.19205  -2.19199  -2.18973  -1.14206
  Beta  occ. eigenvalues --   -1.14187  -1.14162  -1.13892  -1.13856  -1.13809
  Beta  occ. eigenvalues --   -1.13741  -1.13731  -1.13696  -1.13086  -1.13029
  Beta  occ. eigenvalues --   -1.12996  -1.12934  -1.12867  -1.12860  -1.12856
  Beta  occ. eigenvalues --   -1.12839  -1.12835  -1.12676  -1.12635  -1.12604
  Beta  occ. eigenvalues --   -0.17022  -0.12420  -0.11691
  Beta virt. eigenvalues --   -0.07384  -0.05587  -0.04953  -0.04545  -0.02798
  Beta virt. eigenvalues --   -0.02549  -0.01782  -0.01625  -0.01020  -0.00545
  Beta virt. eigenvalues --    0.00045   0.00271   0.00337   0.00344   0.00647

 Mulliken charges and spin densities:
               1          2
     1  Na   0.213823   0.364351
     2  Na  -0.085207   0.182848
     3  Na   0.253858  -0.128672
     4  Na  -0.009395  -0.131410
     5  Na   0.253221  -0.008414
     6  Na  -0.433815   0.395518
     7  Na  -0.192484   0.325780
 Sum of Mulliken charges =  -0.00000   1.00000

 Dipole moment (field-independent basis, Debye):
    X=             -0.2743    Y=             -0.1139    Z=              0.4402  Tot=              0.5311
 Quadrupole moment (field-independent basis, Debye-Ang):
   XX=            -57.4010   YY=            -68.0491   ZZ=            -67.3397
   XY=              1.8937   XZ=              2.8327   YZ=             -2.1329

 Normal termination of Gaussian 16 at Tue Dec  5 21:49:55 2023.
