 Gaussian 16, Revision B.01,
 Gaussian 16:  ES64L-G16RevB.01 20-Dec-2017

 -------------------------
 #P B3LYP/6-311+g(d) force
 -------------------------

 -----
 DPGEN
 -----
 Symbolic Z-matrix:
 Charge =  0 Multiplicity = 2

                         Standard orientation:
 ---------------------------------------------------------------------
 Center     Atomic      Atomic             Coordinates (Angstroms)
 Number     Number       Type             X           Y           Z
 ---------------------------------------------------------------------
      1         11           0        4.285032   -0.981171    0.097897
      2         11           0       -3.990475   -0.994762    0.478688
      3         11           0       -3.048829    2.481181    0.007563
      4         11           0       -0.361192    4.015640   -0.270344
      5         11           0        1.767678   -3.171404    0.016422
      6         11           0       -2.265690   -3.356299   -0.438897
      7         11           0        3.613477    2.006815    0.108671
 ---------------------------------------------------------------------

 SCF Done:  E(UB3LYP) =  -1136.10520812     A.U. after   22 cycles

 The electronic state is 2-A.
 Alpha  occ. eigenvalues --  -38.44944 -38.44676 -38.44657 -38.44508 -38.44426
 Alpha  occ. eigenvalues --  -38.44393 -38.44363  -2.20725  -2.20474  -2.20463
 Alpha  occ. eigenvalues --   -2.20308  -2.20224  -2.20216  -2.20189  -1.14430
 Alpha  occ. eigenvalues --   -1.14391  -1.14374  -1.14176  -1.14174  -1.14119
 Alpha  occ. eigenvalues --   -1.14111  -1.14108  -1.14096  -1.13970  -1.13961
 Alpha  occ. eigenvalues --   -1.13932  -1.13898  -1.13872  -1.13862  -1.13861
 Alpha  occ. eigenvalues --   -1.13858  -1.13849  -1.13847  -1.13841  -1.13799
 Alpha  occ. eigenvalues --   -0.15520  -0.14326  -0.13428  -0.11035
 Alpha virt. eigenvalues --   -0.07817  -0.04671  -0.04484  -0.03645  -0.03442
 Alpha virt. eigenvalues --   -0.02601  -0.02228  -0.02025  -0.01591  -0.00591
 Alpha virt. eigenvalues --   -0.00421  -0.00042   0.00016   0.00236   0.00282

  Beta  occ. eigenvalues --  -38.44950 -38.44657 -38.44581 -38.44497 -38.44363
  Beta  occ. eigenvalues --  -38.44356 -38.44334  -2.20741  -2.20430  -2.20332
  Beta  occ. eigenvalues --   -2.20291  -2.20198  -2.20148  -2.20052  -1.14428
  Beta  occ. eigenvalues --   -1.14406  -1.14370  -1.14145  -1.14098  -1.14088
  Beta  occ. eigenvalues --   -1.14083  -1.14015  -1.13998  -1.13961  -1.13952
  Beta  occ. eigenvalues --   -1.13902  -1.13866  -1.13864  -1.13820  -1.13815
  Beta  occ. eigenvalues --   -1.13802  -1.13802  -1.13753  -1.13741  -1.13711
  Beta  occ. eigenvalues --   -0.14994  -0.13640  -0.12780
  Beta virt. eigenvalues --   -0.07887  -0.07745  -0.04227  -0.04003  -0.03445
  Beta virt. eigenvalues --   -0.03063  -0.02405  -0.02049  -0.01944  -0.01463
  Beta virt. eigenvalues --   -0.00243  -0.00077   0.00173   0.00215   0.00319

 Mulliken charges and spin densities:
               1          2
     1  Na   0.519198  -0.032582
     2  Na  -0.182470   0.176963
     3  Na  -0.142651   0.007872
     4  Na   0.451972   0.097208
     5  Na  -0.338492   0.432721
     6  Na  -0.148856  -0.038990
     7  Na  -0.158700   0.356807
 Sum of Mulliken charges =  -0.00000   1.00000

 Dipole moment (field-independent basis, Debye):
    X=             -0.3007    Y=              0.2074    Z=             -0.0567  Tot=              0.3696
 Quadrupole moment (field-independent basis, Debye-Ang):
   XX=            -64.1324   YY=            -63.9340   ZZ=            -73.9076
   XY=              1.9103   XZ=             -0.9058   YZ=              0.9373

 Normal termination of Gaussian 16 at Sun Dec  3 17:50:32 2023.
