 Gaussian 16, Revision B.01,
 Gaussian 16:  ES64L-G16RevB.01 20-Dec-2017

 -------------------------
 #P B3LYP/6-311+g(d) force
 -------------------------

 -----
 DPGEN
 -----
 Symbolic Z-matrix:
 Charge =  0 Multiplicity = 2

                         Standard orientation:
 ---------------------------------------------------------------------
 Center     Atomic      Atomic             Coordinates (Angstroms)
 Number     Number       Type             X           Y           Z
 ---------------------------------------------------------------------
      1         11           0        4.323339    0.880793    0.518679
      2         11           0       -2.805013   -1.661787    0.974585
      3         11           0       -1.904550    1.622396   -0.602395
      4         11           0       -4.715288    0.825172   -0.308973
      5         11           0        3.165034   -2.116448   -0.793128
      6         11           0        1.797935    3.102255    0.221845
      7         11           0        0.138543   -2.652380   -0.010613
 ---------------------------------------------------------------------

 SCF Done:  E(UB3LYP) =  -1136.11137194     A.U. after   22 cycles

 The electronic state is 2-A.
 Alpha  occ. eigenvalues --  -38.45474 -38.45197 -38.44583 -38.44305 -38.43973
 Alpha  occ. eigenvalues --  -38.43553 -38.43289  -2.21302  -2.21043  -2.20361
 Alpha  occ. eigenvalues --   -2.20198  -2.19793  -2.19337  -2.19119  -1.15007
 Alpha  occ. eigenvalues --   -1.14974  -1.14941  -1.14721  -1.14711  -1.14658
 Alpha  occ. eigenvalues --   -1.14043  -1.14030  -1.14008  -1.13870  -1.13817
 Alpha  occ. eigenvalues --   -1.13809  -1.13467  -1.13454  -1.13426  -1.13003
 Alpha  occ. eigenvalues --   -1.12991  -1.12969  -1.12787  -1.12784  -1.12780
 Alpha  occ. eigenvalues --   -0.16751  -0.14371  -0.12648  -0.10728
 Alpha virt. eigenvalues --   -0.07450  -0.05015  -0.04353  -0.03866  -0.03282
 Alpha virt. eigenvalues --   -0.02448  -0.02260  -0.01164  -0.00934  -0.00768
 Alpha virt. eigenvalues --   -0.00570  -0.00356   0.00420   0.00493   0.00646

  Beta  occ. eigenvalues --  -38.45448 -38.45151 -38.44587 -38.44245 -38.43946
  Beta  occ. eigenvalues --  -38.43515 -38.43285  -2.21258  -2.20963  -2.20371
  Beta  occ. eigenvalues --   -2.20087  -2.19742  -2.19265  -2.19115  -1.14958
  Beta  occ. eigenvalues --   -1.14930  -1.14906  -1.14663  -1.14653  -1.14583
  Beta  occ. eigenvalues --   -1.14052  -1.14039  -1.13996  -1.13791  -1.13741
  Beta  occ. eigenvalues --   -1.13739  -1.13442  -1.13418  -1.13389  -1.12954
  Beta  occ. eigenvalues --   -1.12944  -1.12921  -1.12786  -1.12779  -1.12757
  Beta  occ. eigenvalues --   -0.16128  -0.14051  -0.12147
  Beta virt. eigenvalues --   -0.07417  -0.07210  -0.04538  -0.04053  -0.03551
  Beta virt. eigenvalues --   -0.02831  -0.02297  -0.02004  -0.01021  -0.00646
  Beta virt. eigenvalues --   -0.00400  -0.00318  -0.00189   0.00505   0.00611

 Mulliken charges and spin densities:
               1          2
     1  Na  -0.303819   0.125620
     2  Na   0.381183  -0.051112
     3  Na  -1.143027   0.349863
     4  Na   1.009882   0.328228
     5  Na   0.271675   0.333208
     6  Na   0.309677  -0.074507
     7  Na  -0.525571  -0.011300
 Sum of Mulliken charges =  -0.00000   1.00000

 Dipole moment (field-independent basis, Debye):
    X=             -1.5394    Y=             -0.0864    Z=              0.1895  Tot=              1.5534
 Quadrupole moment (field-independent basis, Debye-Ang):
   XX=            -55.6405   YY=            -73.7717   ZZ=            -69.9235
   XY=              2.7843   XZ=             -0.9394   YZ=             -0.6910

 Normal termination of Gaussian 16 at Mon Dec  4 00:53:01 2023.
