 Gaussian 16, Revision B.01,
 Gaussian 16:  ES64L-G16RevB.01 20-Dec-2017

 -------------------------
 #P B3LYP/6-311+g(d) force
 -------------------------

 -----
 DPGEN
 -----
 Symbolic Z-matrix:
 Charge =  0 Multiplicity = 2

                         Standard orientation:
 ---------------------------------------------------------------------
 Center     Atomic      Atomic             Coordinates (Angstroms)
 Number     Number       Type             X           Y           Z
 ---------------------------------------------------------------------
      1         11           0       -0.220576    0.035971    1.836193
      2         11           0       -0.929683    3.084194    0.481425
      3         11           0        1.475048    1.269172   -0.906651
      4         11           0        1.026843   -1.837681   -1.178936
      5         11           0        3.747012   -0.802135    0.637929
      6         11           0       -1.994484    0.419036   -1.523239
      7         11           0       -3.104160   -2.168557    0.653278
 ---------------------------------------------------------------------

 SCF Done:  E(UB3LYP) =  -1136.13159371     A.U. after   21 cycles

 The electronic state is 2-A.
 Alpha  occ. eigenvalues --  -38.44499 -38.44056 -38.44004 -38.43757 -38.43584
 Alpha  occ. eigenvalues --  -38.43316 -38.42976  -2.20303  -2.19922  -2.19875
 Alpha  occ. eigenvalues --   -2.19617  -2.19353  -2.19272  -2.18833  -1.13976
 Alpha  occ. eigenvalues --   -1.13957  -1.13938  -1.13654  -1.13588  -1.13562
 Alpha  occ. eigenvalues --   -1.13514  -1.13506  -1.13484  -1.13306  -1.13280
 Alpha  occ. eigenvalues --   -1.13227  -1.13025  -1.13017  -1.12989  -1.12984
 Alpha  occ. eigenvalues --   -1.12946  -1.12867  -1.12495  -1.12492  -1.12474
 Alpha  occ. eigenvalues --   -0.18315  -0.13194  -0.11829  -0.10938
 Alpha virt. eigenvalues --   -0.06159  -0.04994  -0.04553  -0.03246  -0.02825
 Alpha virt. eigenvalues --   -0.02612  -0.01942  -0.01213  -0.00682  -0.00056
 Alpha virt. eigenvalues --    0.00228   0.00271   0.00542   0.00718   0.00744

  Beta  occ. eigenvalues --  -38.44492 -38.44024 -38.43932 -38.43719 -38.43579
  Beta  occ. eigenvalues --  -38.43291 -38.42972  -2.20291  -2.19866  -2.19743
  Beta  occ. eigenvalues --   -2.19548  -2.19344  -2.19232  -2.18828  -1.13969
  Beta  occ. eigenvalues --   -1.13941  -1.13931  -1.13612  -1.13528  -1.13475
  Beta  occ. eigenvalues --   -1.13468  -1.13419  -1.13386  -1.13253  -1.13222
  Beta  occ. eigenvalues --   -1.13181  -1.13019  -1.13002  -1.12979  -1.12963
  Beta  occ. eigenvalues --   -1.12881  -1.12842  -1.12492  -1.12481  -1.12462
  Beta  occ. eigenvalues --   -0.17537  -0.13042  -0.11644
  Beta virt. eigenvalues --   -0.07070  -0.05931  -0.04896  -0.04317  -0.02844
  Beta virt. eigenvalues --   -0.02254  -0.01836  -0.01669  -0.01102  -0.00338
  Beta virt. eigenvalues --   -0.00060   0.00253   0.00354   0.00649   0.00775

 Mulliken charges and spin densities:
               1          2
     1  Na  -0.391554   0.772905
     2  Na   0.225856  -0.168553
     3  Na   0.001127   0.366066
     4  Na  -0.219197  -0.007687
     5  Na   0.371121  -0.048729
     6  Na   0.127473   0.237018
     7  Na  -0.114826  -0.151019
 Sum of Mulliken charges =  -0.00000   1.00000

 Dipole moment (field-independent basis, Debye):
    X=              0.7635    Y=             -0.1514    Z=              0.1416  Tot=              0.7912
 Quadrupole moment (field-independent basis, Debye-Ang):
   XX=            -55.5067   YY=            -66.6622   ZZ=            -70.6179
   XY=             -2.3965   XZ=              2.3165   YZ=             -0.5332

 Normal termination of Gaussian 16 at Tue Dec  5 23:38:41 2023.
