 Gaussian 16, Revision B.01,
 Gaussian 16:  ES64L-G16RevB.01 20-Dec-2017

 -------------------------
 #P B3LYP/6-311+g(d) force
 -------------------------

 -----
 DPGEN
 -----
 Symbolic Z-matrix:
 Charge =  0 Multiplicity = 2

                         Standard orientation:
 ---------------------------------------------------------------------
 Center     Atomic      Atomic             Coordinates (Angstroms)
 Number     Number       Type             X           Y           Z
 ---------------------------------------------------------------------
      1         11           0        0.183343    0.147942   -0.685231
      2         11           0       -1.472599    0.441952    1.996137
      3         11           0       -2.797883   -1.646356   -0.869918
      4         11           0        3.141628   -1.024222   -0.164995
      5         11           0       -2.243336    2.894461   -0.515010
      6         11           0        2.902651    2.278370   -0.028350
      7         11           0        0.286195   -3.092148    0.267368
 ---------------------------------------------------------------------

 SCF Done:  E(UB3LYP) =  -1136.12272802     A.U. after   23 cycles

 The electronic state is 2-A.
 Alpha  occ. eigenvalues --  -38.44888 -38.44378 -38.44099 -38.43854 -38.43577
 Alpha  occ. eigenvalues --  -38.43549 -38.43195  -2.20639  -2.20173  -2.19950
 Alpha  occ. eigenvalues --   -2.19680  -2.19415  -2.19402  -2.19193  -1.14316
 Alpha  occ. eigenvalues --   -1.14298  -1.14277  -1.13838  -1.13830  -1.13822
 Alpha  occ. eigenvalues --   -1.13649  -1.13611  -1.13563  -1.13348  -1.13323
 Alpha  occ. eigenvalues --   -1.13301  -1.13136  -1.13089  -1.13062  -1.13049
 Alpha  occ. eigenvalues --   -1.13041  -1.13004  -1.12909  -1.12836  -1.12815
 Alpha  occ. eigenvalues --   -0.17760  -0.13430  -0.12341  -0.09609
 Alpha virt. eigenvalues --   -0.06750  -0.05506  -0.05007  -0.02954  -0.02553
 Alpha virt. eigenvalues --   -0.02103  -0.01837  -0.01581  -0.01126  -0.00781
 Alpha virt. eigenvalues --   -0.00064   0.00245   0.00488   0.00552   0.00785

  Beta  occ. eigenvalues --  -38.44893 -38.44371 -38.44097 -38.43793 -38.43571
  Beta  occ. eigenvalues --  -38.43468 -38.43181  -2.20650  -2.20159  -2.19947
  Beta  occ. eigenvalues --   -2.19568  -2.19395  -2.19263  -2.19173  -1.14317
  Beta  occ. eigenvalues --   -1.14301  -1.14284  -1.13829  -1.13819  -1.13812
  Beta  occ. eigenvalues --   -1.13648  -1.13606  -1.13553  -1.13265  -1.13245
  Beta  occ. eigenvalues --   -1.13225  -1.13087  -1.13052  -1.13040  -1.13021
  Beta  occ. eigenvalues --   -1.12943  -1.12897  -1.12848  -1.12823  -1.12805
  Beta  occ. eigenvalues --   -0.17232  -0.13152  -0.12122
  Beta virt. eigenvalues --   -0.06578  -0.05937  -0.05307  -0.04932  -0.02471
  Beta virt. eigenvalues --   -0.01983  -0.01953  -0.01704  -0.01053  -0.00924
  Beta virt. eigenvalues --   -0.00635   0.00189   0.00344   0.00544   0.00677

 Mulliken charges and spin densities:
               1          2
     1  Na  -1.023165   0.623162
     2  Na  -0.655580   0.127224
     3  Na   0.533066   0.390825
     4  Na   0.258086  -0.098366
     5  Na   0.153648  -0.001720
     6  Na   0.331162  -0.043540
     7  Na   0.402782   0.002415
 Sum of Mulliken charges =  -0.00000   1.00000

 Dipole moment (field-independent basis, Debye):
    X=              0.3726    Y=              0.6921    Z=              0.2818  Tot=              0.8350
 Quadrupole moment (field-independent basis, Debye-Ang):
   XX=            -57.9439   YY=            -57.5059   ZZ=            -76.8760
   XY=             -3.0836   XZ=              0.9396   YZ=             -2.4398

 Normal termination of Gaussian 16 at Wed Nov 29 16:43:21 2023.
