 Gaussian 16, Revision B.01,
 Gaussian 16:  ES64L-G16RevB.01 20-Dec-2017

 -------------------------
 #P B3LYP/6-311+g(d) force
 -------------------------

 -----
 DPGEN
 -----
 Symbolic Z-matrix:
 Charge =  0 Multiplicity = 2

                         Standard orientation:
 ---------------------------------------------------------------------
 Center     Atomic      Atomic             Coordinates (Angstroms)
 Number     Number       Type             X           Y           Z
 ---------------------------------------------------------------------
      1         11           0        3.813021    0.702091    0.861452
      2         11           0       -1.277304   -1.001824   -1.649281
      3         11           0       -3.351222    1.390838   -0.375142
      4         11           0        1.005324   -0.635435    1.411248
      5         11           0        2.005709   -1.763263   -1.586704
      6         11           0        0.448383    2.696011   -0.435329
      7         11           0       -2.643911   -1.388418    1.773755
 ---------------------------------------------------------------------

 SCF Done:  E(UB3LYP) =  -1136.12053573     A.U. after   25 cycles

 The electronic state is 2-A.
 Alpha  occ. eigenvalues --  -38.44809 -38.44460 -38.44372 -38.44117 -38.43982
 Alpha  occ. eigenvalues --  -38.43674 -38.43620  -2.20614  -2.20276  -2.20167
 Alpha  occ. eigenvalues --   -2.20002  -2.19716  -2.19536  -2.19457  -1.14314
 Alpha  occ. eigenvalues --   -1.14256  -1.14233  -1.13936  -1.13915  -1.13899
 Alpha  occ. eigenvalues --   -1.13856  -1.13812  -1.13797  -1.13689  -1.13663
 Alpha  occ. eigenvalues --   -1.13624  -1.13411  -1.13408  -1.13325  -1.13233
 Alpha  occ. eigenvalues --   -1.13188  -1.13179  -1.13114  -1.13105  -1.13076
 Alpha  occ. eigenvalues --   -0.17610  -0.13921  -0.11373  -0.11167
 Alpha virt. eigenvalues --   -0.06723  -0.05236  -0.05042  -0.03331  -0.02722
 Alpha virt. eigenvalues --   -0.02468  -0.02370  -0.01221  -0.01062  -0.00237
 Alpha virt. eigenvalues --   -0.00022   0.00170   0.00245   0.00469   0.00715

  Beta  occ. eigenvalues --  -38.44790 -38.44386 -38.44364 -38.44088 -38.43987
  Beta  occ. eigenvalues --  -38.43634 -38.43587  -2.20579  -2.20153  -2.20138
  Beta  occ. eigenvalues --   -2.19950  -2.19727  -2.19464  -2.19398  -1.14282
  Beta  occ. eigenvalues --   -1.14235  -1.14214  -1.13842  -1.13838  -1.13827
  Beta  occ. eigenvalues --   -1.13818  -1.13794  -1.13773  -1.13651  -1.13624
  Beta  occ. eigenvalues --   -1.13583  -1.13418  -1.13413  -1.13328  -1.13184
  Beta  occ. eigenvalues --   -1.13128  -1.13122  -1.13072  -1.13067  -1.13023
  Beta  occ. eigenvalues --   -0.17016  -0.13642  -0.10837
  Beta virt. eigenvalues --   -0.07693  -0.06509  -0.04973  -0.04573  -0.03054
  Beta virt. eigenvalues --   -0.02287  -0.02209  -0.01765  -0.01076  -0.00621
  Beta virt. eigenvalues --   -0.00136   0.00073   0.00233   0.00379   0.00567

 Mulliken charges and spin densities:
               1          2
     1  Na   0.921089   0.060454
     2  Na  -0.142539   0.317065
     3  Na   0.429558   0.048460
     4  Na  -0.866871   0.184843
     5  Na   0.026472   0.134836
     6  Na  -0.320594  -0.056495
     7  Na  -0.047115   0.310838
 Sum of Mulliken charges =  -0.00000   1.00000

 Dipole moment (field-independent basis, Debye):
    X=              0.3464    Y=             -0.0851    Z=              0.1167  Tot=              0.3753
 Quadrupole moment (field-independent basis, Debye-Ang):
   XX=            -48.4557   YY=            -76.9502   ZZ=            -69.8892
   XY=             -0.1069   XZ=             -1.2528   YZ=             -1.4336

 Normal termination of Gaussian 16 at Sun Dec  3 15:17:48 2023.
