 Gaussian 16, Revision B.01,
 Gaussian 16:  ES64L-G16RevB.01 20-Dec-2017

 -------------------------
 #P B3LYP/6-311+g(d) force
 -------------------------

 -----
 DPGEN
 -----
 Symbolic Z-matrix:
 Charge =  0 Multiplicity = 2

                         Standard orientation:
 ---------------------------------------------------------------------
 Center     Atomic      Atomic             Coordinates (Angstroms)
 Number     Number       Type             X           Y           Z
 ---------------------------------------------------------------------
      1         11           0       -0.445364   -0.563557    2.238704
      2         11           0       -1.566177   -2.768202   -0.604563
      3         11           0        0.594747    0.440353   -1.469643
      4         11           0        2.382815   -1.937521   -0.194279
      5         11           0        2.783091    1.377449    0.321719
      6         11           0       -0.964612    3.047135   -0.176435
      7         11           0       -2.784499    0.404342   -0.115504
 ---------------------------------------------------------------------

 SCF Done:  E(UB3LYP) =  -1136.13268237     A.U. after   19 cycles

 The electronic state is 2-A.
 Alpha  occ. eigenvalues --  -38.44237 -38.44093 -38.43752 -38.43705 -38.43596
 Alpha  occ. eigenvalues --  -38.43517 -38.43265  -2.20092  -2.19926  -2.19594
 Alpha  occ. eigenvalues --   -2.19506  -2.19476  -2.19356  -2.19253  -1.13835
 Alpha  occ. eigenvalues --   -1.13738  -1.13715  -1.13623  -1.13583  -1.13544
 Alpha  occ. eigenvalues --   -1.13258  -1.13229  -1.13214  -1.13193  -1.13174
 Alpha  occ. eigenvalues --   -1.13162  -1.13148  -1.13140  -1.13108  -1.13040
 Alpha  occ. eigenvalues --   -1.13002  -1.12984  -1.12936  -1.12891  -1.12862
 Alpha  occ. eigenvalues --   -0.18317  -0.13193  -0.12402  -0.10602
 Alpha virt. eigenvalues --   -0.05643  -0.05227  -0.04964  -0.03387  -0.02891
 Alpha virt. eigenvalues --   -0.02441  -0.01380  -0.01279  -0.00532  -0.00418
 Alpha virt. eigenvalues --   -0.00034   0.00351   0.00780   0.00818   0.00867

  Beta  occ. eigenvalues --  -38.44232 -38.44087 -38.43692 -38.43652 -38.43590
  Beta  occ. eigenvalues --  -38.43516 -38.43223  -2.20085  -2.19920  -2.19484
  Beta  occ. eigenvalues --   -2.19468  -2.19408  -2.19356  -2.19177  -1.13828
  Beta  occ. eigenvalues --   -1.13720  -1.13713  -1.13612  -1.13564  -1.13542
  Beta  occ. eigenvalues --   -1.13187  -1.13183  -1.13144  -1.13136  -1.13128
  Beta  occ. eigenvalues --   -1.13109  -1.13105  -1.13083  -1.13071  -1.13030
  Beta  occ. eigenvalues --   -1.12991  -1.12986  -1.12879  -1.12839  -1.12809
  Beta  occ. eigenvalues --   -0.17645  -0.12999  -0.12192
  Beta virt. eigenvalues --   -0.06724  -0.05624  -0.05138  -0.04842  -0.02625
  Beta virt. eigenvalues --   -0.02196  -0.01456  -0.01304  -0.01189  -0.00551
  Beta virt. eigenvalues --   -0.00439   0.00148   0.00402   0.00805   0.00877

 Mulliken charges and spin densities:
               1          2
     1  Na  -0.591646   0.647072
     2  Na  -0.015602   0.033572
     3  Na   0.038502   0.239201
     4  Na   0.113539  -0.011147
     5  Na   0.065607   0.047871
     6  Na   0.134409  -0.026551
     7  Na   0.255192   0.069981
 Sum of Mulliken charges =  -0.00000   1.00000

 Dipole moment (field-independent basis, Debye):
    X=              0.4907    Y=             -0.0545    Z=              0.1733  Tot=              0.5232
 Quadrupole moment (field-independent basis, Debye-Ang):
   XX=            -59.6081   YY=            -60.1223   ZZ=            -74.6064
   XY=              0.0290   XZ=              1.9669   YZ=              2.1756

 Normal termination of Gaussian 16 at Thu Dec  7 05:46:31 2023.
