 Gaussian 16, Revision B.01,
 Gaussian 16:  ES64L-G16RevB.01 20-Dec-2017

 -------------------------
 #P B3LYP/6-311+g(d) force
 -------------------------

 -----
 DPGEN
 -----
 Symbolic Z-matrix:
 Charge =  0 Multiplicity = 2

                         Standard orientation:
 ---------------------------------------------------------------------
 Center     Atomic      Atomic             Coordinates (Angstroms)
 Number     Number       Type             X           Y           Z
 ---------------------------------------------------------------------
      1         11           0        3.427590   -0.430547   -1.327241
      2         11           0       -1.858366    0.340130    2.039966
      3         11           0        1.549377   -1.554814    1.650519
      4         11           0        2.043608    1.833538    0.230219
      5         11           0       -1.163650    2.077165   -0.583312
      6         11           0       -3.486884   -0.681528   -1.211737
      7         11           0       -0.511676   -1.583944   -0.798414
 ---------------------------------------------------------------------

 SCF Done:  E(UB3LYP) =  -1136.12344456     A.U. after   23 cycles

 The electronic state is 2-A.
 Alpha  occ. eigenvalues --  -38.44933 -38.44836 -38.44507 -38.43757 -38.43317
 Alpha  occ. eigenvalues --  -38.43153 -38.42882  -2.20759  -2.20683  -2.20355
 Alpha  occ. eigenvalues --   -2.19611  -2.19212  -2.19019  -2.18755  -1.14446
 Alpha  occ. eigenvalues --   -1.14414  -1.14364  -1.14354  -1.14322  -1.14305
 Alpha  occ. eigenvalues --   -1.14038  -1.13998  -1.13968  -1.13314  -1.13265
 Alpha  occ. eigenvalues --   -1.13218  -1.12899  -1.12883  -1.12839  -1.12708
 Alpha  occ. eigenvalues --   -1.12687  -1.12666  -1.12446  -1.12433  -1.12365
 Alpha  occ. eigenvalues --   -0.18233  -0.14136  -0.11422  -0.11097
 Alpha virt. eigenvalues --   -0.06358  -0.05375  -0.04708  -0.03176  -0.02663
 Alpha virt. eigenvalues --   -0.02607  -0.02152  -0.01312  -0.00512  -0.00043
 Alpha virt. eigenvalues --    0.00194   0.00228   0.00393   0.00505   0.00635

  Beta  occ. eigenvalues --  -38.44901 -38.44775 -38.44462 -38.43715 -38.43303
  Beta  occ. eigenvalues --  -38.43155 -38.42880  -2.20699  -2.20571  -2.20272
  Beta  occ. eigenvalues --   -2.19534  -2.19191  -2.19025  -2.18752  -1.14405
  Beta  occ. eigenvalues --   -1.14371  -1.14325  -1.14280  -1.14231  -1.14225
  Beta  occ. eigenvalues --   -1.13975  -1.13941  -1.13913  -1.13265  -1.13213
  Beta  occ. eigenvalues --   -1.13149  -1.12878  -1.12847  -1.12825  -1.12711
  Beta  occ. eigenvalues --   -1.12677  -1.12671  -1.12445  -1.12417  -1.12363
  Beta  occ. eigenvalues --   -0.17589  -0.13762  -0.10918
  Beta virt. eigenvalues --   -0.07692  -0.06079  -0.04911  -0.04449  -0.03043
  Beta virt. eigenvalues --   -0.02186  -0.01894  -0.01836  -0.00883  -0.00380
  Beta virt. eigenvalues --    0.00065   0.00266   0.00310   0.00467   0.00699

 Mulliken charges and spin densities:
               1          2
     1  Na   0.354054  -0.017766
     2  Na  -0.093878   0.217354
     3  Na   0.175111   0.347188
     4  Na  -0.322470   0.098042
     5  Na   0.012468   0.136919
     6  Na   0.503399   0.107619
     7  Na  -0.628683   0.110645
 Sum of Mulliken charges =  -0.00000   1.00000

 Dipole moment (field-independent basis, Debye):
    X=             -0.2508    Y=             -0.4213    Z=              0.0597  Tot=              0.4939
 Quadrupole moment (field-independent basis, Debye-Ang):
   XX=            -50.4529   YY=            -80.5260   ZZ=            -63.7473
   XY=             -2.1260   XZ=             -2.2003   YZ=              0.4940

 Normal termination of Gaussian 16 at Fri Dec  8 16:55:46 2023.
