 Gaussian 16, Revision B.01,
 Gaussian 16:  ES64L-G16RevB.01 20-Dec-2017

 -------------------------
 #P B3LYP/6-311+g(d) force
 -------------------------

 -----
 DPGEN
 -----
 Symbolic Z-matrix:
 Charge =  0 Multiplicity = 2

                         Standard orientation:
 ---------------------------------------------------------------------
 Center     Atomic      Atomic             Coordinates (Angstroms)
 Number     Number       Type             X           Y           Z
 ---------------------------------------------------------------------
      1         11           0        0.584209    2.544612   -0.800132
      2         11           0       -2.859117    1.715824    0.356179
      3         11           0        3.553317    0.943925    0.595663
      4         11           0       -0.201596   -0.614704   -1.683305
      5         11           0        2.827107   -2.256942   -0.259761
      6         11           0       -3.423799   -1.767110   -0.212086
      7         11           0       -0.480121   -0.565604    2.003442
 ---------------------------------------------------------------------

 SCF Done:  E(UB3LYP) =  -1136.11832052     A.U. after   24 cycles

 The electronic state is 2-A.
 Alpha  occ. eigenvalues --  -38.45158 -38.45139 -38.44774 -38.44766 -38.44108
 Alpha  occ. eigenvalues --  -38.43662 -38.42395  -2.20931  -2.20923  -2.20557
 Alpha  occ. eigenvalues --   -2.20544  -2.19884  -2.19529  -2.18218  -1.14607
 Alpha  occ. eigenvalues --   -1.14605  -1.14576  -1.14575  -1.14570  -1.14530
 Alpha  occ. eigenvalues --   -1.14244  -1.14229  -1.14212  -1.14209  -1.14192
 Alpha  occ. eigenvalues --   -1.14167  -1.13554  -1.13547  -1.13536  -1.13214
 Alpha  occ. eigenvalues --   -1.13163  -1.13143  -1.11912  -1.11876  -1.11852
 Alpha  occ. eigenvalues --   -0.17563  -0.13672  -0.11232  -0.10515
 Alpha virt. eigenvalues --   -0.07090  -0.06294  -0.03889  -0.03512  -0.02697
 Alpha virt. eigenvalues --   -0.02554  -0.02443  -0.01687  -0.00952  -0.00414
 Alpha virt. eigenvalues --   -0.00066   0.00150   0.00331   0.00472   0.00555

  Beta  occ. eigenvalues --  -38.45144 -38.45075 -38.44779 -38.44757 -38.44111
  Beta  occ. eigenvalues --  -38.43576 -38.42384  -2.20906  -2.20805  -2.20556
  Beta  occ. eigenvalues --   -2.20541  -2.19892  -2.19371  -2.18200  -1.14583
  Beta  occ. eigenvalues --   -1.14561  -1.14558  -1.14524  -1.14485  -1.14446
  Beta  occ. eigenvalues --   -1.14240  -1.14217  -1.14207  -1.14202  -1.14186
  Beta  occ. eigenvalues --   -1.14164  -1.13559  -1.13544  -1.13538  -1.13106
  Beta  occ. eigenvalues --   -1.13044  -1.13034  -1.11893  -1.11852  -1.11842
  Beta  occ. eigenvalues --   -0.16865  -0.13513  -0.11045
  Beta virt. eigenvalues --   -0.06935  -0.06684  -0.06228  -0.03727  -0.03002
  Beta virt. eigenvalues --   -0.02406  -0.02025  -0.01743  -0.01356  -0.00998
  Beta virt. eigenvalues --   -0.00221  -0.00022   0.00193   0.00470   0.00607

 Mulliken charges and spin densities:
               1          2
     1  Na  -0.027277  -0.087621
     2  Na   0.122225   0.084020
     3  Na  -0.085005   0.116131
     4  Na  -0.299902   0.548943
     5  Na   0.253299  -0.038745
     6  Na   0.249607  -0.043701
     7  Na  -0.212947   0.420974
 Sum of Mulliken charges =  -0.00000   1.00000

 Dipole moment (field-independent basis, Debye):
    X=             -0.4864    Y=             -0.3168    Z=              0.5075  Tot=              0.7710
 Quadrupole moment (field-independent basis, Debye-Ang):
   XX=            -48.4759   YY=            -70.5786   ZZ=            -74.9739
   XY=              0.9244   XZ=              1.4735   YZ=              1.4424

 Normal termination of Gaussian 16 at Fri Dec  8 02:37:52 2023.
