 Gaussian 16, Revision B.01,
 Gaussian 16:  ES64L-G16RevB.01 20-Dec-2017

 -------------------------
 #P B3LYP/6-311+g(d) force
 -------------------------

 -----
 DPGEN
 -----
 Symbolic Z-matrix:
 Charge =  0 Multiplicity = 2

                         Standard orientation:
 ---------------------------------------------------------------------
 Center     Atomic      Atomic             Coordinates (Angstroms)
 Number     Number       Type             X           Y           Z
 ---------------------------------------------------------------------
      1         11           0       -0.571060    0.717721    1.192682
      2         11           0       -2.193533    3.226383   -0.253000
      3         11           0       -4.130318    0.106892   -0.534520
      4         11           0        0.125050   -1.477254   -1.212898
      5         11           0        3.103477    0.106087    1.156321
      6         11           0       -1.786612   -3.093693    0.499711
      7         11           0        5.452997    0.413864   -0.848297
 ---------------------------------------------------------------------

 SCF Done:  E(UB3LYP) =  -1136.11591033     A.U. after   19 cycles

 The electronic state is 2-A.
 Alpha  occ. eigenvalues --  -38.44986 -38.44768 -38.43998 -38.43873 -38.43841
 Alpha  occ. eigenvalues --  -38.43794 -38.43556  -2.20831  -2.20547  -2.19821
 Alpha  occ. eigenvalues --   -2.19755  -2.19661  -2.19581  -2.19367  -1.14516
 Alpha  occ. eigenvalues --   -1.14509  -1.14452  -1.14227  -1.14186  -1.14147
 Alpha  occ. eigenvalues --   -1.13498  -1.13472  -1.13459  -1.13454  -1.13403
 Alpha  occ. eigenvalues --   -1.13379  -1.13340  -1.13294  -1.13293  -1.13252
 Alpha  occ. eigenvalues --   -1.13240  -1.13210  -1.13037  -1.13033  -1.13009
 Alpha  occ. eigenvalues --   -0.17044  -0.13563  -0.12151  -0.10743
 Alpha virt. eigenvalues --   -0.06336  -0.05740  -0.04634  -0.03572  -0.02731
 Alpha virt. eigenvalues --   -0.02315  -0.01978  -0.01492  -0.01233  -0.00705
 Alpha virt. eigenvalues --   -0.00450  -0.00015   0.00275   0.00451   0.00648

  Beta  occ. eigenvalues --  -38.44980 -38.44698 -38.43993 -38.43819 -38.43799
  Beta  occ. eigenvalues --  -38.43767 -38.43561  -2.20821  -2.20415  -2.19813
  Beta  occ. eigenvalues --   -2.19658  -2.19593  -2.19523  -2.19383  -1.14513
  Beta  occ. eigenvalues --   -1.14498  -1.14436  -1.14138  -1.14099  -1.14053
  Beta  occ. eigenvalues --   -1.13496  -1.13465  -1.13438  -1.13396  -1.13339
  Beta  occ. eigenvalues --   -1.13312  -1.13262  -1.13259  -1.13226  -1.13214
  Beta  occ. eigenvalues --   -1.13199  -1.13198  -1.13055  -1.13046  -1.12964
  Beta  occ. eigenvalues --   -0.16465  -0.12856  -0.12028
  Beta virt. eigenvalues --   -0.07391  -0.06075  -0.05248  -0.04330  -0.03237
  Beta virt. eigenvalues --   -0.02432  -0.02233  -0.01499  -0.01240  -0.01032
  Beta virt. eigenvalues --   -0.00548  -0.00134   0.00153   0.00430   0.00541

 Mulliken charges and spin densities:
               1          2
     1  Na  -0.496393   0.220252
     2  Na   0.377782  -0.068807
     3  Na   0.123707   0.449905
     4  Na  -0.098772  -0.069617
     5  Na  -0.133384  -0.003738
     6  Na   0.209527   0.118371
     7  Na   0.017533   0.353635
 Sum of Mulliken charges =  -0.00000   1.00000

 Dipole moment (field-independent basis, Debye):
    X=             -0.9907    Y=             -0.4139    Z=             -0.5302  Tot=              1.1975
 Quadrupole moment (field-independent basis, Debye-Ang):
   XX=            -71.5101   YY=            -67.7105   ZZ=            -63.5774
   XY=              1.1807   XZ=             -3.7517   YZ=             -3.6037

 Normal termination of Gaussian 16 at Tue Nov 28 21:13:44 2023.
