 Gaussian 16, Revision B.01,
 Gaussian 16:  ES64L-G16RevB.01 20-Dec-2017

 -------------------------
 #P B3LYP/6-311+g(d) force
 -------------------------

 -----
 DPGEN
 -----
 Symbolic Z-matrix:
 Charge =  0 Multiplicity = 2

                         Standard orientation:
 ---------------------------------------------------------------------
 Center     Atomic      Atomic             Coordinates (Angstroms)
 Number     Number       Type             X           Y           Z
 ---------------------------------------------------------------------
      1         11           0       -0.910191    0.720391    2.074277
      2         11           0       -2.988926    0.645334   -0.469198
      3         11           0        0.500770    3.066999   -0.208412
      4         11           0        3.420741    0.244482   -0.207654
      5         11           0        1.453995   -2.089049    0.748863
      6         11           0       -1.489853   -2.184962   -0.158008
      7         11           0        0.013464   -0.403196   -1.779868
 ---------------------------------------------------------------------

 SCF Done:  E(UB3LYP) =  -1136.12650033     A.U. after   20 cycles

 The electronic state is 2-A.
 Alpha  occ. eigenvalues --  -38.44415 -38.44289 -38.43809 -38.43804 -38.43790
 Alpha  occ. eigenvalues --  -38.43285 -38.43234  -2.20206  -2.20158  -2.19784
 Alpha  occ. eigenvalues --   -2.19679  -2.19558  -2.19276  -2.19153  -1.13895
 Alpha  occ. eigenvalues --   -1.13869  -1.13849  -1.13836  -1.13831  -1.13789
 Alpha  occ. eigenvalues --   -1.13589  -1.13411  -1.13385  -1.13334  -1.13326
 Alpha  occ. eigenvalues --   -1.13298  -1.13238  -1.13219  -1.13190  -1.12997
 Alpha  occ. eigenvalues --   -1.12934  -1.12884  -1.12809  -1.12785  -1.12768
 Alpha  occ. eigenvalues --   -0.18711  -0.13136  -0.12266  -0.11120
 Alpha virt. eigenvalues --   -0.06164  -0.04781  -0.04429  -0.03530  -0.03151
 Alpha virt. eigenvalues --   -0.02690  -0.01636  -0.00842  -0.00437  -0.00117
 Alpha virt. eigenvalues --    0.00039   0.00363   0.00642   0.00836   0.00920

  Beta  occ. eigenvalues --  -38.44416 -38.44277 -38.43790 -38.43736 -38.43729
  Beta  occ. eigenvalues --  -38.43272 -38.43214  -2.20210  -2.20142  -2.19660
  Beta  occ. eigenvalues --   -2.19560  -2.19531  -2.19259  -2.19118  -1.13895
  Beta  occ. eigenvalues --   -1.13866  -1.13842  -1.13839  -1.13790  -1.13775
  Beta  occ. eigenvalues --   -1.13513  -1.13325  -1.13289  -1.13247  -1.13233
  Beta  occ. eigenvalues --   -1.13224  -1.13218  -1.13197  -1.13171  -1.12981
  Beta  occ. eigenvalues --   -1.12899  -1.12852  -1.12788  -1.12749  -1.12736
  Beta  occ. eigenvalues --   -0.17947  -0.12932  -0.12040
  Beta virt. eigenvalues --   -0.07184  -0.06134  -0.04697  -0.04281  -0.02846
  Beta virt. eigenvalues --   -0.02392  -0.01723  -0.01562  -0.00783  -0.00435
  Beta virt. eigenvalues --   -0.00002   0.00093   0.00401   0.00780   0.00857

 Mulliken charges and spin densities:
               1          2
     1  Na  -0.310641   0.462539
     2  Na   0.249490  -0.058543
     3  Na  -0.227758  -0.127762
     4  Na   0.021879  -0.055356
     5  Na  -0.160395   0.161617
     6  Na   0.564559   0.288220
     7  Na  -0.137135   0.329285
 Sum of Mulliken charges =  -0.00000   1.00000

 Dipole moment (field-independent basis, Debye):
    X=              0.0201    Y=              0.4326    Z=              0.0050  Tot=              0.4331
 Quadrupole moment (field-independent basis, Debye-Ang):
   XX=            -56.5040   YY=            -67.3690   ZZ=            -71.3984
   XY=              0.3464   XZ=              0.9200   YZ=             -2.1030

 Normal termination of Gaussian 16 at Tue Dec  5 16:08:40 2023.
