 Gaussian 16, Revision B.01,
 Gaussian 16:  ES64L-G16RevB.01 20-Dec-2017

 -------------------------
 #P B3LYP/6-311+g(d) force
 -------------------------

 -----
 DPGEN
 -----
 Symbolic Z-matrix:
 Charge =  0 Multiplicity = 2

                         Standard orientation:
 ---------------------------------------------------------------------
 Center     Atomic      Atomic             Coordinates (Angstroms)
 Number     Number       Type             X           Y           Z
 ---------------------------------------------------------------------
      1         11           0        2.375607    1.895781    0.200514
      2         11           0       -0.289359    0.058779    2.096658
      3         11           0        0.595538   -0.470242   -1.482632
      4         11           0       -1.193918    2.348563   -0.884704
      5         11           0       -3.565905    0.054658    0.367971
      6         11           0       -1.795187   -2.443300   -0.427398
      7         11           0        3.873224   -1.444238    0.129591
 ---------------------------------------------------------------------

 SCF Done:  E(UB3LYP) =  -1136.12189000     A.U. after   24 cycles

 The electronic state is 2-A.
 Alpha  occ. eigenvalues --  -38.45180 -38.44913 -38.44586 -38.44176 -38.43510
 Alpha  occ. eigenvalues --  -38.43411 -38.42751  -2.21005  -2.20653  -2.20411
 Alpha  occ. eigenvalues --   -2.19996  -2.19431  -2.19266  -2.18597  -1.14675
 Alpha  occ. eigenvalues --   -1.14666  -1.14649  -1.14330  -1.14324  -1.14290
 Alpha  occ. eigenvalues --   -1.14088  -1.14040  -1.14026  -1.13687  -1.13677
 Alpha  occ. eigenvalues --   -1.13603  -1.13137  -1.13088  -1.13048  -1.12927
 Alpha  occ. eigenvalues --   -1.12920  -1.12905  -1.12279  -1.12249  -1.12228
 Alpha  occ. eigenvalues --   -0.18117  -0.13667  -0.11365  -0.10710
 Alpha virt. eigenvalues --   -0.07177  -0.05575  -0.03996  -0.03395  -0.02779
 Alpha virt. eigenvalues --   -0.02422  -0.02367  -0.01503  -0.00721  -0.00321
 Alpha virt. eigenvalues --   -0.00019   0.00117   0.00387   0.00616   0.00703

  Beta  occ. eigenvalues --  -38.45174 -38.44928 -38.44504 -38.44172 -38.43444
  Beta  occ. eigenvalues --  -38.43395 -38.42727  -2.20997  -2.20682  -2.20259
  Beta  occ. eigenvalues --   -2.19991  -2.19313  -2.19240  -2.18554  -1.14672
  Beta  occ. eigenvalues --   -1.14648  -1.14638  -1.14348  -1.14340  -1.14310
  Beta  occ. eigenvalues --   -1.13982  -1.13936  -1.13914  -1.13679  -1.13661
  Beta  occ. eigenvalues --   -1.13603  -1.13060  -1.13004  -1.12955  -1.12907
  Beta  occ. eigenvalues --   -1.12899  -1.12864  -1.12245  -1.12212  -1.12198
  Beta  occ. eigenvalues --   -0.17370  -0.13572  -0.11114
  Beta virt. eigenvalues --   -0.07072  -0.06753  -0.05557  -0.03749  -0.02915
  Beta virt. eigenvalues --   -0.02477  -0.01819  -0.01528  -0.01351  -0.00683
  Beta virt. eigenvalues --   -0.00191   0.00017   0.00143   0.00562   0.00678

 Mulliken charges and spin densities:
               1          2
     1  Na   0.256940   0.036499
     2  Na  -0.319309   0.581296
     3  Na  -0.081867   0.311546
     4  Na  -0.167863   0.019838
     5  Na   0.222530   0.151943
     6  Na   0.099774   0.004754
     7  Na  -0.010205  -0.105876
 Sum of Mulliken charges =  -0.00000   1.00000

 Dipole moment (field-independent basis, Debye):
    X=              0.2110    Y=              0.0861    Z=              0.4632  Tot=              0.5162
 Quadrupole moment (field-independent basis, Debye-Ang):
   XX=            -48.1770   YY=            -70.5231   ZZ=            -74.6398
   XY=             -1.4444   XZ=              1.2345   YZ=             -0.5005

 Normal termination of Gaussian 16 at Thu Dec  7 07:54:31 2023.
