 Gaussian 16, Revision B.01,
 Gaussian 16:  ES64L-G16RevB.01 20-Dec-2017

 -------------------------
 #P B3LYP/6-311+g(d) force
 -------------------------

 -----
 DPGEN
 -----
 Symbolic Z-matrix:
 Charge =  0 Multiplicity = 2

                         Standard orientation:
 ---------------------------------------------------------------------
 Center     Atomic      Atomic             Coordinates (Angstroms)
 Number     Number       Type             X           Y           Z
 ---------------------------------------------------------------------
      1         11           0       -3.971848    0.369608   -0.470799
      2         11           0       -2.697459   -2.695872   -0.355491
      3         11           0        0.371869   -3.173386    1.345598
      4         11           0        3.067626   -2.361522   -1.141309
      5         11           0        3.783434    0.934339    0.413128
      6         11           0        1.171114    3.809701   -0.356003
      7         11           0       -1.724737    3.117133    0.564875
 ---------------------------------------------------------------------

 SCF Done:  E(UB3LYP) =  -1136.10640006     A.U. after   24 cycles

 The electronic state is 2-A.
 Alpha  occ. eigenvalues --  -38.45354 -38.44997 -38.44721 -38.44657 -38.44263
 Alpha  occ. eigenvalues --  -38.44107 -38.43602  -2.21085  -2.20746  -2.20494
 Alpha  occ. eigenvalues --   -2.20451  -2.20053  -2.19910  -2.19412  -1.14771
 Alpha  occ. eigenvalues --   -1.14745  -1.14725  -1.14418  -1.14399  -1.14362
 Alpha  occ. eigenvalues --   -1.14178  -1.14169  -1.14144  -1.14139  -1.14117
 Alpha  occ. eigenvalues --   -1.14096  -1.13708  -1.13695  -1.13673  -1.13570
 Alpha  occ. eigenvalues --   -1.13563  -1.13543  -1.13062  -1.13054  -1.13049
 Alpha  occ. eigenvalues --   -0.15425  -0.13594  -0.13450  -0.10437
 Alpha virt. eigenvalues --   -0.07561  -0.05543  -0.03986  -0.03535  -0.03023
 Alpha virt. eigenvalues --   -0.02666  -0.02526  -0.01604  -0.01547  -0.00872
 Alpha virt. eigenvalues --   -0.00251  -0.00192   0.00173   0.00433   0.00540

  Beta  occ. eigenvalues --  -38.45358 -38.44951 -38.44718 -38.44639 -38.44193
  Beta  occ. eigenvalues --  -38.44080 -38.43542  -2.21096  -2.20661  -2.20497
  Beta  occ. eigenvalues --   -2.20424  -2.19924  -2.19863  -2.19299  -1.14781
  Beta  occ. eigenvalues --   -1.14756  -1.14710  -1.14361  -1.14343  -1.14300
  Beta  occ. eigenvalues --   -1.14185  -1.14177  -1.14115  -1.14102  -1.14100
  Beta  occ. eigenvalues --   -1.14057  -1.13620  -1.13608  -1.13585  -1.13537
  Beta  occ. eigenvalues --   -1.13531  -1.13503  -1.12986  -1.12981  -1.12972
  Beta  occ. eigenvalues --   -0.14906  -0.12916  -0.12732
  Beta virt. eigenvalues --   -0.07692  -0.07326  -0.05209  -0.03492  -0.03346
  Beta virt. eigenvalues --   -0.02574  -0.02481  -0.02227  -0.01483  -0.01415
  Beta virt. eigenvalues --   -0.00643  -0.00097   0.00061   0.00361   0.00410

 Mulliken charges and spin densities:
               1          2
     1  Na   0.223359   0.290310
     2  Na  -0.062979   0.007530
     3  Na  -0.068293   0.342576
     4  Na   0.181950  -0.036700
     5  Na  -0.125276   0.241043
     6  Na   0.055143   0.078206
     7  Na  -0.203905   0.077034
 Sum of Mulliken charges =  -0.00000   1.00000

 Dipole moment (field-independent basis, Debye):
    X=              0.9146    Y=             -0.3025    Z=             -0.1877  Tot=              0.9815
 Quadrupole moment (field-independent basis, Debye-Ang):
   XX=            -67.7879   YY=            -66.5812   ZZ=            -67.8136
   XY=             -0.0470   XZ=             -0.9888   YZ=              3.5292

 Normal termination of Gaussian 16 at Mon Dec  4 05:30:45 2023.
