 Gaussian 16, Revision B.01,
 Gaussian 16:  ES64L-G16RevB.01 20-Dec-2017

 -------------------------
 #P B3LYP/6-311+g(d) force
 -------------------------

 -----
 DPGEN
 -----
 Symbolic Z-matrix:
 Charge =  0 Multiplicity = 2

                         Standard orientation:
 ---------------------------------------------------------------------
 Center     Atomic      Atomic             Coordinates (Angstroms)
 Number     Number       Type             X           Y           Z
 ---------------------------------------------------------------------
      1         11           0        2.131527   -0.105999    2.020751
      2         11           0       -0.669364    2.491964   -0.307246
      3         11           0       -3.526879    0.505454    0.757000
      4         11           0       -1.204607   -0.827196   -1.781444
      5         11           0        2.307110    1.780977   -0.492519
      6         11           0        1.722288   -1.752908   -1.209383
      7         11           0       -0.760076   -2.092292    1.012841
 ---------------------------------------------------------------------

 SCF Done:  E(UB3LYP) =  -1136.12958341     A.U. after   20 cycles

 The electronic state is 2-A.
 Alpha  occ. eigenvalues --  -38.44334 -38.44332 -38.43889 -38.43640 -38.43617
 Alpha  occ. eigenvalues --  -38.43384 -38.43367  -2.20186  -2.20120  -2.19817
 Alpha  occ. eigenvalues --   -2.19523  -2.19518  -2.19256  -2.19218  -1.13848
 Alpha  occ. eigenvalues --   -1.13838  -1.13805  -1.13792  -1.13768  -1.13754
 Alpha  occ. eigenvalues --   -1.13555  -1.13484  -1.13431  -1.13215  -1.13191
 Alpha  occ. eigenvalues --   -1.13183  -1.13167  -1.13137  -1.13107  -1.13029
 Alpha  occ. eigenvalues --   -1.12923  -1.12896  -1.12881  -1.12868  -1.12795
 Alpha  occ. eigenvalues --   -0.18321  -0.13272  -0.12231  -0.11401
 Alpha virt. eigenvalues --   -0.05772  -0.04878  -0.04713  -0.03778  -0.03075
 Alpha virt. eigenvalues --   -0.02847  -0.01497  -0.00646  -0.00437  -0.00073
 Alpha virt. eigenvalues --    0.00108   0.00371   0.00496   0.00654   0.00880

  Beta  occ. eigenvalues --  -38.44318 -38.44268 -38.43841 -38.43617 -38.43585
  Beta  occ. eigenvalues --  -38.43378 -38.43363  -2.20090  -2.20067  -2.19731
  Beta  occ. eigenvalues --   -2.19484  -2.19464  -2.19250  -2.19209  -1.13769
  Beta  occ. eigenvalues --   -1.13768  -1.13753  -1.13747  -1.13737  -1.13723
  Beta  occ. eigenvalues --   -1.13505  -1.13410  -1.13363  -1.13189  -1.13149
  Beta  occ. eigenvalues --   -1.13134  -1.13126  -1.13090  -1.13073  -1.13023
  Beta  occ. eigenvalues --   -1.12907  -1.12888  -1.12864  -1.12861  -1.12791
  Beta  occ. eigenvalues --   -0.17623  -0.13048  -0.12006
  Beta virt. eigenvalues --   -0.07594  -0.05520  -0.04800  -0.04199  -0.03510
  Beta virt. eigenvalues --   -0.02500  -0.01918  -0.01390  -0.00607  -0.00112
  Beta virt. eigenvalues --    0.00001   0.00145   0.00443   0.00658   0.00788

 Mulliken charges and spin densities:
               1          2
     1  Na  -0.020860   0.234203
     2  Na  -0.084800  -0.035268
     3  Na   0.264190  -0.025943
     4  Na  -0.225868   0.325752
     5  Na  -0.152586   0.090917
     6  Na   0.447349   0.036640
     7  Na  -0.227424   0.373699
 Sum of Mulliken charges =  -0.00000   1.00000

 Dipole moment (field-independent basis, Debye):
    X=             -0.3108    Y=             -0.2739    Z=              0.3320  Tot=              0.5309
 Quadrupole moment (field-independent basis, Debye-Ang):
   XX=            -57.9977   YY=            -72.5187   ZZ=            -66.4314
   XY=             -0.8846   XZ=             -2.2602   YZ=             -0.2516

 Normal termination of Gaussian 16 at Sun Dec  3 19:40:06 2023.
