 Gaussian 16, Revision B.01,
 Gaussian 16:  ES64L-G16RevB.01 20-Dec-2017

 -------------------------
 #P B3LYP/6-311+g(d) force
 -------------------------

 -----
 DPGEN
 -----
 Symbolic Z-matrix:
 Charge =  0 Multiplicity = 2

                         Standard orientation:
 ---------------------------------------------------------------------
 Center     Atomic      Atomic             Coordinates (Angstroms)
 Number     Number       Type             X           Y           Z
 ---------------------------------------------------------------------
      1         11           0       -0.121166   -0.221566   -1.823811
      2         11           0        2.219981    2.060164   -0.150569
      3         11           0       -2.999553   -0.570727   -0.325988
      4         11           0        0.010157   -0.082823    1.840590
      5         11           0       -0.232116   -2.521300    0.361534
      6         11           0        2.693865   -1.124779   -0.151221
      7         11           0       -1.571167    2.461030    0.249464
 ---------------------------------------------------------------------

 SCF Done:  E(UB3LYP) =  -1136.13477134     A.U. after   19 cycles

 The electronic state is 2-A.
 Alpha  occ. eigenvalues --  -38.43917 -38.43636 -38.43572 -38.43533 -38.43505
 Alpha  occ. eigenvalues --  -38.43421 -38.42957  -2.19792  -2.19546  -2.19539
 Alpha  occ. eigenvalues --   -2.19486  -2.19411  -2.19263  -2.18946  -1.13489
 Alpha  occ. eigenvalues --   -1.13445  -1.13432  -1.13322  -1.13252  -1.13222
 Alpha  occ. eigenvalues --   -1.13206  -1.13183  -1.13158  -1.13126  -1.13115
 Alpha  occ. eigenvalues --   -1.13096  -1.13074  -1.13058  -1.13041  -1.12941
 Alpha  occ. eigenvalues --   -1.12923  -1.12892  -1.12629  -1.12590  -1.12534
 Alpha  occ. eigenvalues --   -0.19275  -0.13317  -0.12401  -0.11119
 Alpha virt. eigenvalues --   -0.05483  -0.05135  -0.04306  -0.03371  -0.02917
 Alpha virt. eigenvalues --   -0.02683  -0.01488  -0.00927  -0.00173  -0.00049
 Alpha virt. eigenvalues --    0.00076   0.00363   0.00835   0.00933   0.00955

  Beta  occ. eigenvalues --  -38.43908 -38.43630 -38.43571 -38.43445 -38.43428
  Beta  occ. eigenvalues --  -38.43416 -38.42939  -2.19779  -2.19538  -2.19411
  Beta  occ. eigenvalues --   -2.19378  -2.19344  -2.19256  -2.18921  -1.13469
  Beta  occ. eigenvalues --   -1.13428  -1.13419  -1.13255  -1.13226  -1.13196
  Beta  occ. eigenvalues --   -1.13167  -1.13090  -1.13071  -1.13066  -1.13051
  Beta  occ. eigenvalues --   -1.13037  -1.13016  -1.13010  -1.12989  -1.12923
  Beta  occ. eigenvalues --   -1.12906  -1.12891  -1.12605  -1.12536  -1.12515
  Beta  occ. eigenvalues --   -0.18524  -0.13047  -0.12125
  Beta virt. eigenvalues --   -0.07151  -0.05433  -0.05139  -0.04294  -0.02554
  Beta virt. eigenvalues --   -0.02117  -0.01606  -0.01386  -0.00871  -0.00199
  Beta virt. eigenvalues --   -0.00033   0.00131   0.00389   0.00898   0.00924

 Mulliken charges and spin densities:
               1          2
     1  Na  -0.404298   0.647208
     2  Na  -0.118415  -0.104885
     3  Na   0.188523  -0.021934
     4  Na  -0.385061   0.598925
     5  Na   0.611476   0.031698
     6  Na   0.191771  -0.042435
     7  Na  -0.083996  -0.108576
 Sum of Mulliken charges =  -0.00000   1.00000

 Dipole moment (field-independent basis, Debye):
    X=             -0.1048    Y=              0.1685    Z=             -0.1343  Tot=              0.2396
 Quadrupole moment (field-independent basis, Debye-Ang):
   XX=            -56.4920   YY=            -65.0917   ZZ=            -72.7297
   XY=              0.1119   XZ=             -0.1104   YZ=              0.0186

 Normal termination of Gaussian 16 at Fri Dec  8 04:13:30 2023.
