 Gaussian 16, Revision B.01,
 Gaussian 16:  ES64L-G16RevB.01 20-Dec-2017

 -------------------------
 #P B3LYP/6-311+g(d) force
 -------------------------

 -----
 DPGEN
 -----
 Symbolic Z-matrix:
 Charge =  0 Multiplicity = 2

                         Standard orientation:
 ---------------------------------------------------------------------
 Center     Atomic      Atomic             Coordinates (Angstroms)
 Number     Number       Type             X           Y           Z
 ---------------------------------------------------------------------
      1         11           0        4.256708    0.990560    0.227222
      2         11           0        0.799461    2.747518   -0.256037
      3         11           0        6.019796   -1.363513    0.157296
      4         11           0       -4.612044   -0.569160    1.238411
      5         11           0       -1.200860    0.373432   -0.015513
      6         11           0       -6.992660   -0.388314   -0.724687
      7         11           0        1.729599   -1.790523   -0.626692
 ---------------------------------------------------------------------

 SCF Done:  E(UB3LYP) =  -1136.10954110     A.U. after   20 cycles

 The electronic state is 2-A.
 Alpha  occ. eigenvalues --  -38.44999 -38.44915 -38.44419 -38.44366 -38.44092
 Alpha  occ. eigenvalues --  -38.43915 -38.43800  -2.20779  -2.20694  -2.20231
 Alpha  occ. eigenvalues --   -2.20168  -2.19936  -2.19732  -2.19630  -1.14451
 Alpha  occ. eigenvalues --   -1.14425  -1.14372  -1.14371  -1.14349  -1.14346
 Alpha  occ. eigenvalues --   -1.13992  -1.13880  -1.13860  -1.13825  -1.13823
 Alpha  occ. eigenvalues --   -1.13810  -1.13599  -1.13584  -1.13540  -1.13464
 Alpha  occ. eigenvalues --   -1.13410  -1.13376  -1.13277  -1.13262  -1.13230
 Alpha  occ. eigenvalues --   -0.16097  -0.14038  -0.12408  -0.10817
 Alpha virt. eigenvalues --   -0.07170  -0.05419  -0.04259  -0.03639  -0.03085
 Alpha virt. eigenvalues --   -0.02629  -0.02251  -0.01835  -0.01354  -0.00868
 Alpha virt. eigenvalues --   -0.00410  -0.00061   0.00143   0.00273   0.00510

  Beta  occ. eigenvalues --  -38.44914 -38.44906 -38.44422 -38.44366 -38.44066
  Beta  occ. eigenvalues --  -38.43915 -38.43739  -2.20692  -2.20605  -2.20236
  Beta  occ. eigenvalues --   -2.20167  -2.19889  -2.19736  -2.19515  -1.14370
  Beta  occ. eigenvalues --   -1.14348  -1.14345  -1.14333  -1.14308  -1.14244
  Beta  occ. eigenvalues --   -1.13988  -1.13884  -1.13858  -1.13826  -1.13822
  Beta  occ. eigenvalues --   -1.13809  -1.13569  -1.13551  -1.13500  -1.13445
  Beta  occ. eigenvalues --   -1.13415  -1.13365  -1.13199  -1.13181  -1.13168
  Beta  occ. eigenvalues --   -0.15426  -0.13977  -0.12264
  Beta virt. eigenvalues --   -0.07197  -0.06667  -0.05172  -0.03739  -0.03449
  Beta virt. eigenvalues --   -0.02821  -0.02331  -0.01842  -0.01768  -0.01134
  Beta virt. eigenvalues --   -0.00628  -0.00062   0.00043   0.00407   0.00424

 Mulliken charges and spin densities:
               1          2
     1  Na  -0.924019   0.163594
     2  Na   0.909868   0.489825
     3  Na   0.887396  -0.068363
     4  Na  -0.432280  -0.047469
     5  Na  -1.181757  -0.128599
     6  Na   0.338103   0.007815
     7  Na   0.402688   0.583196
 Sum of Mulliken charges =  -0.00000   1.00000

 Dipole moment (field-independent basis, Debye):
    X=             -0.5577    Y=             -0.7306    Z=             -0.3188  Tot=              0.9729
 Quadrupole moment (field-independent basis, Debye-Ang):
   XX=            -48.3178   YY=            -70.2765   ZZ=            -69.7434
   XY=             -5.9701   XZ=              5.1714   YZ=             -0.6155

 Normal termination of Gaussian 16 at Sun Dec  3 23:24:40 2023.
