 Gaussian 16, Revision B.01,
 Gaussian 16:  ES64L-G16RevB.01 20-Dec-2017

 -------------------------
 #P B3LYP/6-311+g(d) force
 -------------------------

 -----
 DPGEN
 -----
 Symbolic Z-matrix:
 Charge =  0 Multiplicity = 2

                         Standard orientation:
 ---------------------------------------------------------------------
 Center     Atomic      Atomic             Coordinates (Angstroms)
 Number     Number       Type             X           Y           Z
 ---------------------------------------------------------------------
      1         11           0        3.287323   -1.423737    0.156209
      2         11           0        2.045336    2.029550    0.269920
      3         11           0        0.765537   -0.213691   -1.772028
      4         11           0       -1.033576    2.091108   -0.496285
      5         11           0       -1.752109   -2.010481   -0.783521
      6         11           0        0.137926   -0.640875    2.080345
      7         11           0       -3.450438    0.168126    0.545360
 ---------------------------------------------------------------------

 SCF Done:  E(UB3LYP) =  -1136.12559868     A.U. after   21 cycles

 The electronic state is 2-A.
 Alpha  occ. eigenvalues --  -38.44862 -38.44560 -38.44436 -38.43710 -38.43535
 Alpha  occ. eigenvalues --  -38.43476 -38.42434  -2.20714  -2.20385  -2.20227
 Alpha  occ. eigenvalues --   -2.19592  -2.19510  -2.19361  -2.18358  -1.14399
 Alpha  occ. eigenvalues --   -1.14374  -1.14350  -1.14058  -1.14033  -1.13994
 Alpha  occ. eigenvalues --   -1.13908  -1.13885  -1.13869  -1.13310  -1.13241
 Alpha  occ. eigenvalues --   -1.13225  -1.13192  -1.13154  -1.13120  -1.13039
 Alpha  occ. eigenvalues --   -1.13018  -1.12981  -1.12056  -1.12013  -1.11990
 Alpha  occ. eigenvalues --   -0.18714  -0.13798  -0.11477  -0.11285
 Alpha virt. eigenvalues --   -0.06659  -0.05231  -0.04091  -0.03315  -0.02915
 Alpha virt. eigenvalues --   -0.02697  -0.02167  -0.01001  -0.00448  -0.00083
 Alpha virt. eigenvalues --    0.00179   0.00224   0.00407   0.00708   0.00809

  Beta  occ. eigenvalues --  -38.44856 -38.44484 -38.44443 -38.43684 -38.43470
  Beta  occ. eigenvalues --  -38.43456 -38.42425  -2.20704  -2.20247  -2.20240
  Beta  occ. eigenvalues --   -2.19548  -2.19368  -2.19353  -2.18346  -1.14393
  Beta  occ. eigenvalues --   -1.14369  -1.14332  -1.13966  -1.13932  -1.13909
  Beta  occ. eigenvalues --   -1.13898  -1.13894  -1.13868  -1.13258  -1.13212
  Beta  occ. eigenvalues --   -1.13183  -1.13113  -1.13073  -1.13028  -1.13021
  Beta  occ. eigenvalues --   -1.12974  -1.12973  -1.12043  -1.11989  -1.11980
  Beta  occ. eigenvalues --   -0.17948  -0.13658  -0.11246
  Beta virt. eigenvalues --   -0.07342  -0.06459  -0.05198  -0.03588  -0.03059
  Beta virt. eigenvalues --   -0.02182  -0.02046  -0.01723  -0.00908  -0.00298
  Beta virt. eigenvalues --   -0.00014   0.00186   0.00260   0.00594   0.00768

 Mulliken charges and spin densities:
               1          2
     1  Na   0.059736  -0.034390
     2  Na   0.107326   0.122510
     3  Na   0.352932   0.129276
     4  Na  -0.385674   0.107011
     5  Na  -0.078347   0.112195
     6  Na  -0.421998   0.483051
     7  Na   0.366024   0.080347
 Sum of Mulliken charges =  -0.00000   1.00000

 Dipole moment (field-independent basis, Debye):
    X=              0.0658    Y=             -0.2883    Z=              0.5712  Tot=              0.6432
 Quadrupole moment (field-independent basis, Debye-Ang):
   XX=            -50.1153   YY=            -73.5874   ZZ=            -70.9210
   XY=             -0.4799   XZ=             -0.4911   YZ=              1.6855

 Normal termination of Gaussian 16 at Thu Dec  7 02:18:27 2023.
