 Gaussian 16, Revision B.01,
 Gaussian 16:  ES64L-G16RevB.01 20-Dec-2017

 -------------------------
 #P B3LYP/6-311+g(d) force
 -------------------------

 -----
 DPGEN
 -----
 Symbolic Z-matrix:
 Charge =  0 Multiplicity = 2

                         Standard orientation:
 ---------------------------------------------------------------------
 Center     Atomic      Atomic             Coordinates (Angstroms)
 Number     Number       Type             X           Y           Z
 ---------------------------------------------------------------------
      1         11           0        3.231118    0.277033    0.883069
      2         11           0       -2.293725    1.962796   -1.415139
      3         11           0        1.121286    3.068377   -0.450483
      4         11           0       -3.678106   -0.999878    0.564274
      5         11           0        2.366187   -2.087010   -1.387585
      6         11           0       -0.182220    0.452602    2.050931
      7         11           0       -0.564540   -2.673920   -0.245066
 ---------------------------------------------------------------------

 SCF Done:  E(UB3LYP) =  -1136.12229910     A.U. after   20 cycles

 The electronic state is 2-A.
 Alpha  occ. eigenvalues --  -38.44636 -38.44607 -38.44582 -38.44363 -38.44160
 Alpha  occ. eigenvalues --  -38.44026 -38.43452  -2.20437  -2.20406  -2.20346
 Alpha  occ. eigenvalues --   -2.20133  -2.19922  -2.19828  -2.19286  -1.14119
 Alpha  occ. eigenvalues --   -1.14092  -1.14084  -1.14070  -1.14045  -1.14026
 Alpha  occ. eigenvalues --   -1.14018  -1.14005  -1.13987  -1.13804  -1.13777
 Alpha  occ. eigenvalues --   -1.13752  -1.13607  -1.13587  -1.13557  -1.13522
 Alpha  occ. eigenvalues --   -1.13506  -1.13461  -1.12946  -1.12926  -1.12921
 Alpha  occ. eigenvalues --   -0.16921  -0.13211  -0.12557  -0.10679
 Alpha virt. eigenvalues --   -0.06558  -0.05854  -0.04426  -0.03714  -0.03315
 Alpha virt. eigenvalues --   -0.02176  -0.02043  -0.01298  -0.00787  -0.00476
 Alpha virt. eigenvalues --   -0.00412   0.00134   0.00267   0.00473   0.00696

  Beta  occ. eigenvalues --  -38.44596 -38.44579 -38.44564 -38.44304 -38.44160
  Beta  occ. eigenvalues --  -38.44018 -38.43415  -2.20389  -2.20342  -2.20302
  Beta  occ. eigenvalues --   -2.20023  -2.19923  -2.19818  -2.19217  -1.14067
  Beta  occ. eigenvalues --   -1.14064  -1.14030  -1.14016  -1.14015  -1.13998
  Beta  occ. eigenvalues --   -1.13995  -1.13983  -1.13933  -1.13729  -1.13706
  Beta  occ. eigenvalues --   -1.13672  -1.13608  -1.13590  -1.13539  -1.13514
  Beta  occ. eigenvalues --   -1.13496  -1.13439  -1.12897  -1.12881  -1.12877
  Beta  occ. eigenvalues --   -0.16356  -0.12996  -0.12040
  Beta virt. eigenvalues --   -0.07260  -0.06464  -0.05633  -0.03866  -0.03445
  Beta virt. eigenvalues --   -0.02703  -0.01978  -0.01574  -0.01198  -0.00734
  Beta virt. eigenvalues --   -0.00342  -0.00180   0.00325   0.00359   0.00569

 Mulliken charges and spin densities:
               1          2
     1  Na   0.204148  -0.001574
     2  Na  -0.113436   0.301695
     3  Na  -0.114490   0.067377
     4  Na   0.471890   0.033627
     5  Na   0.182993   0.186057
     6  Na  -0.153389   0.360601
     7  Na  -0.477716   0.052217
 Sum of Mulliken charges =  -0.00000   1.00000

 Dipole moment (field-independent basis, Debye):
    X=             -0.2233    Y=              0.2160    Z=              0.2778  Tot=              0.4168
 Quadrupole moment (field-independent basis, Debye-Ang):
   XX=            -54.3182   YY=            -72.3354   ZZ=            -71.4508
   XY=              4.6474   XZ=             -0.3731   YZ=             -0.8600

 Normal termination of Gaussian 16 at Sun Dec  3 20:17:05 2023.
