 Gaussian 16, Revision B.01,
 Gaussian 16:  ES64L-G16RevB.01 20-Dec-2017

 -------------------------
 #P B3LYP/6-311+g(d) force
 -------------------------

 -----
 DPGEN
 -----
 Symbolic Z-matrix:
 Charge =  0 Multiplicity = 2

                         Standard orientation:
 ---------------------------------------------------------------------
 Center     Atomic      Atomic             Coordinates (Angstroms)
 Number     Number       Type             X           Y           Z
 ---------------------------------------------------------------------
      1         11           0        3.708182    0.221729    0.114194
      2         11           0       -0.270083   -0.614299   -1.944430
      3         11           0       -2.757976    1.760273   -0.253642
      4         11           0        0.839170    2.178369   -0.497329
      5         11           0       -2.249548   -1.746737    0.356349
      6         11           0       -0.145772    0.307750    2.327480
      7         11           0        0.876028   -2.107085   -0.102621
 ---------------------------------------------------------------------

 SCF Done:  E(UB3LYP) =  -1136.12335501     A.U. after   20 cycles

 The electronic state is 2-A.
 Alpha  occ. eigenvalues --  -38.44685 -38.44596 -38.44272 -38.43693 -38.43534
 Alpha  occ. eigenvalues --  -38.43151 -38.43077  -2.20451  -2.20447  -2.20286
 Alpha  occ. eigenvalues --   -2.19493  -2.19441  -2.19068  -2.19013  -1.14169
 Alpha  occ. eigenvalues --   -1.14124  -1.14113  -1.14111  -1.14086  -1.14078
 Alpha  occ. eigenvalues --   -1.14057  -1.13886  -1.13866  -1.13164  -1.13161
 Alpha  occ. eigenvalues --   -1.13139  -1.13130  -1.13107  -1.13062  -1.12782
 Alpha  occ. eigenvalues --   -1.12723  -1.12697  -1.12695  -1.12609  -1.12605
 Alpha  occ. eigenvalues --   -0.18815  -0.12943  -0.11929  -0.11621
 Alpha virt. eigenvalues --   -0.06255  -0.04755  -0.03686  -0.03512  -0.03425
 Alpha virt. eigenvalues --   -0.02940  -0.01999  -0.00948  -0.00217   0.00086
 Alpha virt. eigenvalues --    0.00220   0.00282   0.00530   0.00793   0.00918

  Beta  occ. eigenvalues --  -38.44691 -38.44498 -38.44197 -38.43692 -38.43524
  Beta  occ. eigenvalues --  -38.43136 -38.43066  -2.20462  -2.20267  -2.20150
  Beta  occ. eigenvalues --   -2.19494  -2.19427  -2.19052  -2.18990  -1.14130
  Beta  occ. eigenvalues --   -1.14117  -1.14094  -1.14080  -1.13992  -1.13945
  Beta  occ. eigenvalues --   -1.13931  -1.13788  -1.13770  -1.13166  -1.13144
  Beta  occ. eigenvalues --   -1.13140  -1.13125  -1.13071  -1.13049  -1.12753
  Beta  occ. eigenvalues --   -1.12702  -1.12661  -1.12657  -1.12605  -1.12593
  Beta  occ. eigenvalues --   -0.17993  -0.12800  -0.11691
  Beta virt. eigenvalues --   -0.07584  -0.06140  -0.04752  -0.03600  -0.02741
  Beta virt. eigenvalues --   -0.02578  -0.02000  -0.01909  -0.00892  -0.00047
  Beta virt. eigenvalues --    0.00068   0.00196   0.00299   0.00752   0.00859

 Mulliken charges and spin densities:
               1          2
     1  Na  -0.023418  -0.110633
     2  Na  -0.373064   0.290533
     3  Na   0.051638  -0.079728
     4  Na   0.070585   0.060505
     5  Na   0.339935   0.071969
     6  Na  -0.674763   0.563168
     7  Na   0.609087   0.204185
 Sum of Mulliken charges =  -0.00000   1.00000

 Dipole moment (field-independent basis, Debye):
    X=              0.2408    Y=              0.1742    Z=              0.4169  Tot=              0.5120
 Quadrupole moment (field-independent basis, Debye-Ang):
   XX=            -52.8474   YY=            -73.0580   ZZ=            -68.6456
   XY=              0.2317   XZ=              0.4735   YZ=             -1.6770

 Normal termination of Gaussian 16 at Fri Dec  8 07:45:34 2023.
