 Gaussian 16, Revision B.01,
 Gaussian 16:  ES64L-G16RevB.01 20-Dec-2017

 -------------------------
 #P B3LYP/6-311+g(d) force
 -------------------------

 -----
 DPGEN
 -----
 Symbolic Z-matrix:
 Charge =  0 Multiplicity = 2

                         Standard orientation:
 ---------------------------------------------------------------------
 Center     Atomic      Atomic             Coordinates (Angstroms)
 Number     Number       Type             X           Y           Z
 ---------------------------------------------------------------------
      1         11           0       -3.869911    1.671834   -0.194642
      2         11           0       -0.726142   -3.012859    1.598456
      3         11           0        4.169830   -0.148361   -0.428640
      4         11           0       -0.647131    3.312264    0.902410
      5         11           0        1.906820   -2.558211   -0.333340
      6         11           0        2.648032    2.362709   -0.320069
      7         11           0       -3.481499   -1.627377   -1.224175
 ---------------------------------------------------------------------

 SCF Done:  E(UB3LYP) =  -1136.10710992     A.U. after   22 cycles

 The electronic state is 2-A.
 Alpha  occ. eigenvalues --  -38.45142 -38.44753 -38.44751 -38.44613 -38.44320
 Alpha  occ. eigenvalues --  -38.43957 -38.43944  -2.20904  -2.20563  -2.20505
 Alpha  occ. eigenvalues --   -2.20410  -2.20105  -2.19818  -2.19737  -1.14572
 Alpha  occ. eigenvalues --   -1.14550  -1.14527  -1.14290  -1.14227  -1.14213
 Alpha  occ. eigenvalues --   -1.14190  -1.14172  -1.14143  -1.14091  -1.14081
 Alpha  occ. eigenvalues --   -1.14066  -1.13762  -1.13744  -1.13737  -1.13479
 Alpha  occ. eigenvalues --   -1.13445  -1.13440  -1.13395  -1.13386  -1.13357
 Alpha  occ. eigenvalues --   -0.15783  -0.13938  -0.13120  -0.10808
 Alpha virt. eigenvalues --   -0.07306  -0.05324  -0.04047  -0.03566  -0.03528
 Alpha virt. eigenvalues --   -0.02364  -0.02172  -0.01722  -0.01162  -0.01011
 Alpha virt. eigenvalues --   -0.00447  -0.00137  -0.00048   0.00507   0.00626

  Beta  occ. eigenvalues --  -38.45087 -38.44750 -38.44747 -38.44604 -38.44276
  Beta  occ. eigenvalues --  -38.43901 -38.43890  -2.20806  -2.20562  -2.20504
  Beta  occ. eigenvalues --   -2.20399  -2.20026  -2.19739  -2.19613  -1.14506
  Beta  occ. eigenvalues --   -1.14486  -1.14447  -1.14267  -1.14231  -1.14196
  Beta  occ. eigenvalues --   -1.14193  -1.14175  -1.14113  -1.14085  -1.14075
  Beta  occ. eigenvalues --   -1.14030  -1.13708  -1.13691  -1.13680  -1.13430
  Beta  occ. eigenvalues --   -1.13394  -1.13386  -1.13310  -1.13302  -1.13275
  Beta  occ. eigenvalues --   -0.15304  -0.13254  -0.12354
  Beta virt. eigenvalues --   -0.07676  -0.07416  -0.04889  -0.03584  -0.03390
  Beta virt. eigenvalues --   -0.03132  -0.02132  -0.01936  -0.01613  -0.00866
  Beta virt. eigenvalues --   -0.00841  -0.00256   0.00123   0.00213   0.00484

 Mulliken charges and spin densities:
               1          2
     1  Na  -0.010567  -0.013458
     2  Na   0.121541   0.175388
     3  Na   0.672476   0.204313
     4  Na  -0.031257   0.315312
     5  Na  -0.489347   0.046588
     6  Na  -0.375383   0.017008
     7  Na   0.112537   0.254849
 Sum of Mulliken charges =  -0.00000   1.00000

 Dipole moment (field-independent basis, Debye):
    X=             -0.2970    Y=             -0.6001    Z=             -0.1406  Tot=              0.6841
 Quadrupole moment (field-independent basis, Debye-Ang):
   XX=            -63.6224   YY=            -68.5989   ZZ=            -69.1738
   XY=             -0.0083   XZ=             -1.8695   YZ=              1.7670

 Normal termination of Gaussian 16 at Mon Dec  4 01:25:25 2023.
