 Gaussian 16, Revision B.01,
 Gaussian 16:  ES64L-G16RevB.01 20-Dec-2017

 -------------------------
 #P B3LYP/6-311+g(d) force
 -------------------------

 -----
 DPGEN
 -----
 Symbolic Z-matrix:
 Charge =  0 Multiplicity = 2

                         Standard orientation:
 ---------------------------------------------------------------------
 Center     Atomic      Atomic             Coordinates (Angstroms)
 Number     Number       Type             X           Y           Z
 ---------------------------------------------------------------------
      1         11           0        3.801682    1.255051   -0.386352
      2         11           0       -0.006112   -2.128087   -1.425466
      3         11           0        2.146664   -1.119290    0.973064
      4         11           0       -0.981577   -1.420061    1.724599
      5         11           0       -2.196941    2.165430    0.804893
      6         11           0       -2.875360   -0.282100   -1.011424
      7         11           0        0.111644    1.529056   -0.679314
 ---------------------------------------------------------------------

 SCF Done:  E(UB3LYP) =  -1136.12515170     A.U. after   21 cycles

 The electronic state is 2-A.
 Alpha  occ. eigenvalues --  -38.44466 -38.44213 -38.43833 -38.43727 -38.43555
 Alpha  occ. eigenvalues --  -38.43372 -38.43353  -2.20373  -2.20010  -2.19765
 Alpha  occ. eigenvalues --   -2.19647  -2.19466  -2.19264  -2.19260  -1.14049
 Alpha  occ. eigenvalues --   -1.14044  -1.14005  -1.13698  -1.13667  -1.13664
 Alpha  occ. eigenvalues --   -1.13643  -1.13427  -1.13400  -1.13275  -1.13248
 Alpha  occ. eigenvalues --   -1.13193  -1.13173  -1.13142  -1.13088  -1.12946
 Alpha  occ. eigenvalues --   -1.12933  -1.12918  -1.12900  -1.12887  -1.12843
 Alpha  occ. eigenvalues --   -0.18718  -0.13759  -0.12062  -0.10993
 Alpha virt. eigenvalues --   -0.06477  -0.05069  -0.04245  -0.03505  -0.02906
 Alpha virt. eigenvalues --   -0.02305  -0.02097  -0.00944  -0.00542  -0.00154
 Alpha virt. eigenvalues --    0.00143   0.00229   0.00403   0.00729   0.00906

  Beta  occ. eigenvalues --  -38.44436 -38.44213 -38.43818 -38.43710 -38.43534
  Beta  occ. eigenvalues --  -38.43333 -38.43292  -2.20320  -2.20012  -2.19739
  Beta  occ. eigenvalues --   -2.19618  -2.19431  -2.19189  -2.19153  -1.14015
  Beta  occ. eigenvalues --   -1.13987  -1.13964  -1.13699  -1.13665  -1.13651
  Beta  occ. eigenvalues --   -1.13630  -1.13416  -1.13366  -1.13255  -1.13215
  Beta  occ. eigenvalues --   -1.13175  -1.13143  -1.13109  -1.13056  -1.12898
  Beta  occ. eigenvalues --   -1.12864  -1.12852  -1.12828  -1.12813  -1.12771
  Beta  occ. eigenvalues --   -0.18017  -0.13606  -0.11828
  Beta virt. eigenvalues --   -0.07036  -0.06351  -0.04961  -0.03885  -0.03021
  Beta virt. eigenvalues --   -0.02354  -0.02109  -0.01368  -0.00834  -0.00276
  Beta virt. eigenvalues --   -0.00034   0.00184   0.00277   0.00539   0.00772

 Mulliken charges and spin densities:
               1          2
     1  Na   0.200305  -0.027192
     2  Na  -0.044059   0.268306
     3  Na   0.264554   0.047498
     4  Na  -0.483562   0.359555
     5  Na   1.090182  -0.025801
     6  Na   0.566350   0.137125
     7  Na  -1.593770   0.240509
 Sum of Mulliken charges =  -0.00000   1.00000

 Dipole moment (field-independent basis, Debye):
    X=             -0.1530    Y=             -0.0600    Z=             -0.1098  Tot=              0.1976
 Quadrupole moment (field-independent basis, Debye-Ang):
   XX=            -53.1025   YY=            -71.1945   ZZ=            -70.4275
   XY=              0.5019   XZ=             -1.2257   YZ=              1.3699

 Normal termination of Gaussian 16 at Sat Dec  9 07:05:01 2023.
