 Gaussian 16, Revision B.01,
 Gaussian 16:  ES64L-G16RevB.01 20-Dec-2017

 -------------------------
 #P B3LYP/6-311+g(d) force
 -------------------------

 -----
 DPGEN
 -----
 Symbolic Z-matrix:
 Charge =  0 Multiplicity = 2

                         Standard orientation:
 ---------------------------------------------------------------------
 Center     Atomic      Atomic             Coordinates (Angstroms)
 Number     Number       Type             X           Y           Z
 ---------------------------------------------------------------------
      1         11           0        4.957344    0.132982    0.514303
      2         11           0       -1.169694   -3.276117   -0.223074
      3         11           0        2.636617   -2.221194   -0.170368
      4         11           0        2.062285    1.764626   -0.225772
      5         11           0       -0.821866    3.593777   -0.526224
      6         11           0       -3.663106    2.077869    0.583058
      7         11           0       -4.001579   -2.071943    0.048077
 ---------------------------------------------------------------------

 SCF Done:  E(UB3LYP) =  -1136.11113340     A.U. after   26 cycles

 The electronic state is 2-A.
 Alpha  occ. eigenvalues --  -38.45670 -38.45230 -38.44977 -38.44429 -38.44236
 Alpha  occ. eigenvalues --  -38.43609 -38.43441  -2.21445  -2.21029  -2.20726
 Alpha  occ. eigenvalues --   -2.20209  -2.20077  -2.19412  -2.19249  -1.15136
 Alpha  occ. eigenvalues --   -1.15123  -1.15054  -1.14723  -1.14715  -1.14633
 Alpha  occ. eigenvalues --   -1.14408  -1.14390  -1.14350  -1.13905  -1.13881
 Alpha  occ. eigenvalues --   -1.13845  -1.13739  -1.13720  -1.13690  -1.13079
 Alpha  occ. eigenvalues --   -1.13077  -1.13047  -1.12913  -1.12913  -1.12894
 Alpha  occ. eigenvalues --   -0.16046  -0.13847  -0.13161  -0.10557
 Alpha virt. eigenvalues --   -0.07799  -0.05279  -0.04363  -0.03711  -0.03081
 Alpha virt. eigenvalues --   -0.02467  -0.02373  -0.01855  -0.01238  -0.00726
 Alpha virt. eigenvalues --   -0.00607  -0.00104   0.00118   0.00446   0.00527

  Beta  occ. eigenvalues --  -38.45640 -38.45192 -38.44956 -38.44438 -38.44180
  Beta  occ. eigenvalues --  -38.43593 -38.43425  -2.21395  -2.20965  -2.20686
  Beta  occ. eigenvalues --   -2.20223  -2.19972  -2.19380  -2.19220  -1.15107
  Beta  occ. eigenvalues --   -1.15091  -1.14982  -1.14682  -1.14673  -1.14556
  Beta  occ. eigenvalues --   -1.14380  -1.14363  -1.14321  -1.13922  -1.13891
  Beta  occ. eigenvalues --   -1.13847  -1.13664  -1.13648  -1.13626  -1.13058
  Beta  occ. eigenvalues --   -1.13057  -1.13023  -1.12896  -1.12892  -1.12864
  Beta  occ. eigenvalues --   -0.15449  -0.13654  -0.12848
  Beta virt. eigenvalues --   -0.07481  -0.07134  -0.04762  -0.03934  -0.03433
  Beta virt. eigenvalues --   -0.02765  -0.02310  -0.02112  -0.01801  -0.01084
  Beta virt. eigenvalues --   -0.00385  -0.00368   0.00226   0.00352   0.00464

 Mulliken charges and spin densities:
               1          2
     1  Na   2.092053   0.561410
     2  Na  -0.206717  -0.066147
     3  Na  -0.056985   0.190528
     4  Na  -1.420178   0.434301
     5  Na  -0.136335  -0.403538
     6  Na  -0.172126   0.128134
     7  Na  -0.099712   0.155312
 Sum of Mulliken charges =  -0.00000   1.00000

 Dipole moment (field-independent basis, Debye):
    X=              1.4047    Y=              0.0778    Z=              0.1612  Tot=              1.4161
 Quadrupole moment (field-independent basis, Debye-Ang):
   XX=            -57.1343   YY=            -67.7786   ZZ=            -73.3814
   XY=             -1.9148   XZ=              0.0945   YZ=              0.4162

 Normal termination of Gaussian 16 at Sun Dec  3 14:27:11 2023.
