 Gaussian 16, Revision B.01,
 Gaussian 16:  ES64L-G16RevB.01 20-Dec-2017

 -------------------------
 #P B3LYP/6-311+g(d) force
 -------------------------

 -----
 DPGEN
 -----
 Symbolic Z-matrix:
 Charge =  0 Multiplicity = 2

                         Standard orientation:
 ---------------------------------------------------------------------
 Center     Atomic      Atomic             Coordinates (Angstroms)
 Number     Number       Type             X           Y           Z
 ---------------------------------------------------------------------
      1         11           0        2.897363   -1.342836    0.135329
      2         11           0        2.000945    1.921339    0.124781
      3         11           0       -1.482470    2.425507   -0.120110
      4         11           0        0.187575    0.408151   -1.895228
      5         11           0       -3.043636   -0.509838    0.456124
      6         11           0        0.217609   -0.243834    1.943568
      7         11           0       -0.777386   -2.658489   -0.644464
 ---------------------------------------------------------------------

 SCF Done:  E(UB3LYP) =  -1136.13732917     A.U. after   19 cycles

 The electronic state is 2-A.
 Alpha  occ. eigenvalues --  -38.43939 -38.43833 -38.43766 -38.43568 -38.43473
 Alpha  occ. eigenvalues --  -38.43321 -38.43132  -2.19767  -2.19682  -2.19679
 Alpha  occ. eigenvalues --   -2.19532  -2.19390  -2.19166  -2.19014  -1.13455
 Alpha  occ. eigenvalues --   -1.13433  -1.13410  -1.13365  -1.13352  -1.13342
 Alpha  occ. eigenvalues --   -1.13335  -1.13314  -1.13287  -1.13258  -1.13185
 Alpha  occ. eigenvalues --   -1.13159  -1.13059  -1.13037  -1.12989  -1.12847
 Alpha  occ. eigenvalues --   -1.12820  -1.12795  -1.12700  -1.12667  -1.12642
 Alpha  occ. eigenvalues --   -0.18860  -0.13167  -0.12299  -0.11186
 Alpha virt. eigenvalues --   -0.05563  -0.05073  -0.04360  -0.03415  -0.03094
 Alpha virt. eigenvalues --   -0.02796  -0.01477  -0.00944  -0.00230  -0.00021
 Alpha virt. eigenvalues --    0.00010   0.00378   0.00819   0.00916   0.00932

  Beta  occ. eigenvalues --  -38.43937 -38.43827 -38.43688 -38.43486 -38.43464
  Beta  occ. eigenvalues --  -38.43304 -38.43128  -2.19767  -2.19671  -2.19540
  Beta  occ. eigenvalues --   -2.19385  -2.19375  -2.19138  -2.19010  -1.13443
  Beta  occ. eigenvalues --   -1.13429  -1.13401  -1.13342  -1.13335  -1.13319
  Beta  occ. eigenvalues --   -1.13270  -1.13218  -1.13189  -1.13181  -1.13089
  Beta  occ. eigenvalues --   -1.13052  -1.13032  -1.13000  -1.12967  -1.12821
  Beta  occ. eigenvalues --   -1.12786  -1.12780  -1.12690  -1.12652  -1.12634
  Beta  occ. eigenvalues --   -0.18105  -0.12923  -0.12045
  Beta virt. eigenvalues --   -0.07268  -0.05484  -0.05071  -0.04272  -0.02649
  Beta virt. eigenvalues --   -0.02323  -0.01763  -0.01379  -0.00899  -0.00191
  Beta virt. eigenvalues --   -0.00057   0.00101   0.00396   0.00876   0.00922

 Mulliken charges and spin densities:
               1          2
     1  Na   0.097638  -0.087992
     2  Na   0.283870  -0.074880
     3  Na   0.140712  -0.042996
     4  Na  -0.201703   0.585847
     5  Na   0.041714   0.007063
     6  Na  -0.360131   0.604510
     7  Na  -0.002100   0.008448
 Sum of Mulliken charges =  -0.00000   1.00000

 Dipole moment (field-independent basis, Debye):
    X=              0.2043    Y=             -0.1389    Z=              0.1461  Tot=              0.2870
 Quadrupole moment (field-independent basis, Debye-Ang):
   XX=            -57.2818   YY=            -65.7626   ZZ=            -71.7449
   XY=             -0.9287   XZ=             -0.6409   YZ=              1.3965

 Normal termination of Gaussian 16 at Tue Dec  5 12:41:20 2023.
