 Gaussian 16, Revision B.01,
 Gaussian 16:  ES64L-G16RevB.01 20-Dec-2017

 -------------------------
 #P B3LYP/6-311+g(d) force
 -------------------------

 -----
 DPGEN
 -----
 Symbolic Z-matrix:
 Charge =  0 Multiplicity = 2

                         Standard orientation:
 ---------------------------------------------------------------------
 Center     Atomic      Atomic             Coordinates (Angstroms)
 Number     Number       Type             X           Y           Z
 ---------------------------------------------------------------------
      1         11           0        3.422286   -1.083456   -0.609849
      2         11           0       -3.264055   -0.490715   -0.565080
      3         11           0        1.951740    1.260695    1.037046
      4         11           0       -0.420427    2.912960   -0.525146
      5         11           0       -1.109598    0.407489    1.692719
      6         11           0       -0.469490   -2.758298    0.662065
      7         11           0       -0.110455   -0.248677   -1.691755
 ---------------------------------------------------------------------

 SCF Done:  E(UB3LYP) =  -1136.13135475     A.U. after   21 cycles

 The electronic state is 2-A.
 Alpha  occ. eigenvalues --  -38.44603 -38.44025 -38.43893 -38.43503 -38.43290
 Alpha  occ. eigenvalues --  -38.43224 -38.43199  -2.20436  -2.19839  -2.19686
 Alpha  occ. eigenvalues --   -2.19441  -2.19205  -2.19202  -2.19062  -1.14124
 Alpha  occ. eigenvalues --   -1.14105  -1.14049  -1.13531  -1.13513  -1.13444
 Alpha  occ. eigenvalues --   -1.13379  -1.13345  -1.13316  -1.13132  -1.13090
 Alpha  occ. eigenvalues --   -1.13056  -1.12962  -1.12876  -1.12855  -1.12849
 Alpha  occ. eigenvalues --   -1.12836  -1.12788  -1.12734  -1.12697  -1.12691
 Alpha  occ. eigenvalues --   -0.18601  -0.13082  -0.12059  -0.11016
 Alpha virt. eigenvalues --   -0.06195  -0.04679  -0.04504  -0.03312  -0.02916
 Alpha virt. eigenvalues --   -0.02558  -0.01862  -0.01024  -0.00543   0.00037
 Alpha virt. eigenvalues --    0.00114   0.00337   0.00493   0.00810   0.00920

  Beta  occ. eigenvalues --  -38.44591 -38.44007 -38.43890 -38.43438 -38.43270
  Beta  occ. eigenvalues --  -38.43192 -38.43157  -2.20417  -2.19809  -2.19681
  Beta  occ. eigenvalues --   -2.19322  -2.19170  -2.19082  -2.19053  -1.14105
  Beta  occ. eigenvalues --   -1.14082  -1.14032  -1.13509  -1.13474  -1.13427
  Beta  occ. eigenvalues --   -1.13377  -1.13334  -1.13313  -1.13053  -1.13006
  Beta  occ. eigenvalues --   -1.12962  -1.12908  -1.12843  -1.12810  -1.12786
  Beta  occ. eigenvalues --   -1.12763  -1.12722  -1.12716  -1.12678  -1.12664
  Beta  occ. eigenvalues --   -0.17856  -0.12882  -0.11835
  Beta virt. eigenvalues --   -0.07088  -0.06105  -0.04563  -0.04355  -0.02742
  Beta virt. eigenvalues --   -0.02283  -0.01785  -0.01514  -0.00959  -0.00338
  Beta virt. eigenvalues --    0.00077   0.00129   0.00368   0.00597   0.00840

 Mulliken charges and spin densities:
               1          2
     1  Na   0.198118  -0.055744
     2  Na   0.178034   0.002878
     3  Na  -0.170887   0.033537
     4  Na   0.087915   0.033428
     5  Na   0.305090   0.426823
     6  Na  -0.245707  -0.044165
     7  Na  -0.352563   0.603241
 Sum of Mulliken charges =  -0.00000   1.00000

 Dipole moment (field-independent basis, Debye):
    X=             -0.6361    Y=             -0.3283    Z=             -0.1962  Tot=              0.7422
 Quadrupole moment (field-independent basis, Debye-Ang):
   XX=            -55.9929   YY=            -65.1361   ZZ=            -71.8330
   XY=             -0.6392   XZ=              0.9705   YZ=             -1.2737

 Normal termination of Gaussian 16 at Tue Dec  5 16:46:18 2023.
