 Gaussian 16, Revision B.01,
 Gaussian 16:  ES64L-G16RevB.01 20-Dec-2017

 -------------------------
 #P B3LYP/6-311+g(d) force
 -------------------------

 -----
 DPGEN
 -----
 Symbolic Z-matrix:
 Charge =  0 Multiplicity = 2

                         Standard orientation:
 ---------------------------------------------------------------------
 Center     Atomic      Atomic             Coordinates (Angstroms)
 Number     Number       Type             X           Y           Z
 ---------------------------------------------------------------------
      1         11           0        3.914276   -0.506888   -1.154848
      2         11           0        0.333055    2.810496    0.091950
      3         11           0       -2.560700    1.564674   -1.055142
      4         11           0        2.408888   -0.559544    1.717116
      5         11           0       -2.523151   -2.478450   -0.582153
      6         11           0        0.236387   -0.661422   -0.997089
      7         11           0       -1.808755   -0.168866    1.980166
 ---------------------------------------------------------------------

 SCF Done:  E(UB3LYP) =  -1136.12693597     A.U. after   21 cycles

 The electronic state is 2-A.
 Alpha  occ. eigenvalues --  -38.44622 -38.44429 -38.44333 -38.44012 -38.43675
 Alpha  occ. eigenvalues --  -38.43052 -38.43027  -2.20425  -2.20254  -2.20170
 Alpha  occ. eigenvalues --   -2.19853  -2.19585  -2.18858  -2.18848  -1.14101
 Alpha  occ. eigenvalues --   -1.14076  -1.14067  -1.13933  -1.13905  -1.13864
 Alpha  occ. eigenvalues --   -1.13844  -1.13822  -1.13779  -1.13539  -1.13512
 Alpha  occ. eigenvalues --   -1.13461  -1.13304  -1.13246  -1.13204  -1.12536
 Alpha  occ. eigenvalues --   -1.12526  -1.12518  -1.12501  -1.12494  -1.12486
 Alpha  occ. eigenvalues --   -0.17807  -0.13710  -0.11326  -0.10780
 Alpha virt. eigenvalues --   -0.06329  -0.05308  -0.04844  -0.03271  -0.02615
 Alpha virt. eigenvalues --   -0.02376  -0.02155  -0.01139  -0.00903  -0.00302
 Alpha virt. eigenvalues --    0.00001   0.00208   0.00277   0.00547   0.00735

  Beta  occ. eigenvalues --  -38.44603 -38.44397 -38.44272 -38.43990 -38.43648
  Beta  occ. eigenvalues --  -38.43051 -38.43022  -2.20390  -2.20197  -2.20057
  Beta  occ. eigenvalues --   -2.19813  -2.19539  -2.18859  -2.18841  -1.14075
  Beta  occ. eigenvalues --   -1.14051  -1.14041  -1.13894  -1.13868  -1.13808
  Beta  occ. eigenvalues --   -1.13765  -1.13739  -1.13698  -1.13501  -1.13488
  Beta  occ. eigenvalues --   -1.13434  -1.13244  -1.13216  -1.13172  -1.12537
  Beta  occ. eigenvalues --   -1.12518  -1.12507  -1.12494  -1.12486  -1.12484
  Beta  occ. eigenvalues --   -0.17139  -0.13528  -0.11182
  Beta virt. eigenvalues --   -0.07076  -0.06094  -0.04778  -0.04621  -0.03149
  Beta virt. eigenvalues --   -0.02147  -0.01842  -0.01738  -0.00876  -0.00592
  Beta virt. eigenvalues --   -0.00216   0.00210   0.00263   0.00396   0.00605

 Mulliken charges and spin densities:
               1          2
     1  Na   0.358178   0.074164
     2  Na  -0.097522   0.054192
     3  Na   0.148917   0.009552
     4  Na  -0.019167   0.180770
     5  Na   0.235652  -0.041928
     6  Na  -0.724080   0.324182
     7  Na   0.098022   0.399069
 Sum of Mulliken charges =  -0.00000   1.00000

 Dipole moment (field-independent basis, Debye):
    X=              0.6555    Y=              0.1463    Z=              0.0301  Tot=              0.6723
 Quadrupole moment (field-independent basis, Debye-Ang):
   XX=            -51.4712   YY=            -74.1031   ZZ=            -67.6468
   XY=              0.2294   XZ=             -0.9369   YZ=              0.7445

 Normal termination of Gaussian 16 at Tue Dec  5 19:11:31 2023.
