 Gaussian 16, Revision B.01,
 Gaussian 16:  ES64L-G16RevB.01 20-Dec-2017

 -------------------------
 #P B3LYP/6-311+g(d) force
 -------------------------

 -----
 DPGEN
 -----
 Symbolic Z-matrix:
 Charge =  0 Multiplicity = 2

                         Standard orientation:
 ---------------------------------------------------------------------
 Center     Atomic      Atomic             Coordinates (Angstroms)
 Number     Number       Type             X           Y           Z
 ---------------------------------------------------------------------
      1         11           0       -3.308509    0.025938   -0.232325
      2         11           0        0.249851   -0.233969    2.010764
      3         11           0        2.815133   -1.857236   -0.063210
      4         11           0       -0.084093    0.333686   -1.816593
      5         11           0       -0.658473    2.955024    0.487070
      6         11           0        2.521514    1.347815   -0.374016
      7         11           0       -1.535423   -2.571259   -0.011691
 ---------------------------------------------------------------------

 SCF Done:  E(UB3LYP) =  -1136.13446573     A.U. after   20 cycles

 The electronic state is 2-A.
 Alpha  occ. eigenvalues --  -38.44403 -38.43906 -38.43757 -38.43724 -38.43716
 Alpha  occ. eigenvalues --  -38.43592 -38.43131  -2.20224  -2.19714  -2.19654
 Alpha  occ. eigenvalues --   -2.19633  -2.19589  -2.19429  -2.18950  -1.13904
 Alpha  occ. eigenvalues --   -1.13891  -1.13860  -1.13439  -1.13408  -1.13377
 Alpha  occ. eigenvalues --   -1.13358  -1.13316  -1.13291  -1.13258  -1.13256
 Alpha  occ. eigenvalues --   -1.13242  -1.13232  -1.13223  -1.13203  -1.13098
 Alpha  occ. eigenvalues --   -1.13092  -1.13067  -1.12620  -1.12607  -1.12596
 Alpha  occ. eigenvalues --   -0.18325  -0.13317  -0.12021  -0.10847
 Alpha virt. eigenvalues --   -0.05869  -0.05194  -0.04604  -0.03385  -0.02931
 Alpha virt. eigenvalues --   -0.02609  -0.01699  -0.01143  -0.00452  -0.00326
 Alpha virt. eigenvalues --   -0.00032   0.00355   0.00733   0.00855   0.00863

  Beta  occ. eigenvalues --  -38.44400 -38.43907 -38.43744 -38.43658 -38.43626
  Beta  occ. eigenvalues --  -38.43589 -38.43120  -2.20220  -2.19718  -2.19633
  Beta  occ. eigenvalues --   -2.19513  -2.19428  -2.19422  -2.18933  -1.13903
  Beta  occ. eigenvalues --   -1.13874  -1.13857  -1.13430  -1.13383  -1.13360
  Beta  occ. eigenvalues --   -1.13356  -1.13274  -1.13238  -1.13219  -1.13169
  Beta  occ. eigenvalues --   -1.13159  -1.13149  -1.13117  -1.13090  -1.13082
  Beta  occ. eigenvalues --   -1.13079  -1.13053  -1.12602  -1.12588  -1.12581
  Beta  occ. eigenvalues --   -0.17595  -0.13090  -0.11809
  Beta virt. eigenvalues --   -0.06968  -0.05783  -0.05174  -0.04522  -0.02631
  Beta virt. eigenvalues --   -0.02183  -0.01630  -0.01591  -0.01052  -0.00495
  Beta virt. eigenvalues --   -0.00340   0.00102   0.00384   0.00807   0.00865

 Mulliken charges and spin densities:
               1          2
     1  Na   0.112302  -0.046785
     2  Na  -0.285866   0.767299
     3  Na  -0.067374  -0.131660
     4  Na  -0.033655   0.473419
     5  Na  -0.078290  -0.032641
     6  Na   0.388570   0.085634
     7  Na  -0.035687  -0.115266
 Sum of Mulliken charges =  -0.00000   1.00000

 Dipole moment (field-independent basis, Debye):
    X=             -0.2155    Y=             -0.1381    Z=             -0.0192  Tot=              0.2566
 Quadrupole moment (field-independent basis, Debye-Ang):
   XX=            -56.4781   YY=            -64.3217   ZZ=            -73.7615
   XY=             -1.7578   XZ=             -0.5227   YZ=              1.1771

 Normal termination of Gaussian 16 at Tue Dec  5 16:26:48 2023.
