 Gaussian 16, Revision B.01,
 Gaussian 16:  ES64L-G16RevB.01 20-Dec-2017

 -------------------------
 #P B3LYP/6-311+g(d) force
 -------------------------

 -----
 DPGEN
 -----
 Symbolic Z-matrix:
 Charge =  0 Multiplicity = 2

                         Standard orientation:
 ---------------------------------------------------------------------
 Center     Atomic      Atomic             Coordinates (Angstroms)
 Number     Number       Type             X           Y           Z
 ---------------------------------------------------------------------
      1         11           0        1.736679   -1.855564   -0.095259
      2         11           0       -3.604292   -1.782536   -0.663177
      3         11           0        2.677365    1.841622    0.227022
      4         11           0       -0.709595    3.859332    0.258970
      5         11           0        4.813576   -0.389447   -0.447375
      6         11           0       -3.895063    1.816304   -0.082681
      7         11           0       -1.018670   -3.489711    0.802500
 ---------------------------------------------------------------------

 SCF Done:  E(UB3LYP) =  -1136.11525002     A.U. after   21 cycles

 The electronic state is 2-A.
 Alpha  occ. eigenvalues --  -38.45222 -38.44989 -38.44695 -38.44453 -38.44395
 Alpha  occ. eigenvalues --  -38.43712 -38.43525  -2.21025  -2.20802  -2.20470
 Alpha  occ. eigenvalues --   -2.20308  -2.20141  -2.19473  -2.19343  -1.14715
 Alpha  occ. eigenvalues --   -1.14708  -1.14651  -1.14497  -1.14490  -1.14406
 Alpha  occ. eigenvalues --   -1.14150  -1.14133  -1.14092  -1.13969  -1.13946
 Alpha  occ. eigenvalues --   -1.13922  -1.13828  -1.13813  -1.13764  -1.13145
 Alpha  occ. eigenvalues --   -1.13130  -1.13095  -1.13009  -1.12999  -1.12986
 Alpha  occ. eigenvalues --   -0.16184  -0.14078  -0.12891  -0.10829
 Alpha virt. eigenvalues --   -0.07086  -0.05439  -0.04455  -0.03529  -0.03021
 Alpha virt. eigenvalues --   -0.02527  -0.02300  -0.01845  -0.01400  -0.00603
 Alpha virt. eigenvalues --   -0.00396  -0.00077   0.00076   0.00542   0.00604

  Beta  occ. eigenvalues --  -38.45200 -38.44958 -38.44664 -38.44406 -38.44383
  Beta  occ. eigenvalues --  -38.43671 -38.43504  -2.20988  -2.20749  -2.20414
  Beta  occ. eigenvalues --   -2.20221  -2.20122  -2.19398  -2.19306  -1.14693
  Beta  occ. eigenvalues --   -1.14687  -1.14589  -1.14462  -1.14458  -1.14343
  Beta  occ. eigenvalues --   -1.14114  -1.14097  -1.14040  -1.13907  -1.13886
  Beta  occ. eigenvalues --   -1.13869  -1.13817  -1.13802  -1.13736  -1.13095
  Beta  occ. eigenvalues --   -1.13079  -1.13043  -1.12977  -1.12971  -1.12961
  Beta  occ. eigenvalues --   -0.15679  -0.13585  -0.12319
  Beta virt. eigenvalues --   -0.07439  -0.07039  -0.05003  -0.04146  -0.03221
  Beta virt. eigenvalues --   -0.02662  -0.02362  -0.01993  -0.01711  -0.01172
  Beta virt. eigenvalues --   -0.00292  -0.00086   0.00145   0.00273   0.00580

 Mulliken charges and spin densities:
               1          2
     1  Na  -1.417352   0.272489
     2  Na  -0.044056   0.123038
     3  Na  -0.334359   0.296167
     4  Na  -0.231889  -0.004245
     5  Na   1.777489   0.391935
     6  Na  -0.055602   0.093587
     7  Na   0.305770  -0.172972
 Sum of Mulliken charges =  -0.00000   1.00000

 Dipole moment (field-independent basis, Debye):
    X=              1.6125    Y=             -0.7114    Z=             -0.1672  Tot=              1.7703
 Quadrupole moment (field-independent basis, Debye-Ang):
   XX=            -56.7967   YY=            -68.1676   ZZ=            -72.4342
   XY=              0.8513   XZ=             -0.9119   YZ=              0.5410

 Normal termination of Gaussian 16 at Sun Dec  3 19:55:44 2023.
