 Gaussian 16, Revision B.01,
 Gaussian 16:  ES64L-G16RevB.01 20-Dec-2017

 -------------------------
 #P B3LYP/6-311+g(d) force
 -------------------------

 -----
 DPGEN
 -----
 Symbolic Z-matrix:
 Charge =  0 Multiplicity = 2

                         Standard orientation:
 ---------------------------------------------------------------------
 Center     Atomic      Atomic             Coordinates (Angstroms)
 Number     Number       Type             X           Y           Z
 ---------------------------------------------------------------------
      1         11           0       -0.109228   -1.469902   -0.502777
      2         11           0        3.200651   -1.929906   -0.647068
      3         11           0        0.951590   -0.103122    2.575802
      4         11           0       -0.236567    2.190201   -1.058778
      5         11           0       -4.237573   -0.790093   -1.100770
      6         11           0       -2.517025    0.533352    1.374665
      7         11           0        2.948154    1.569471   -0.641073
 ---------------------------------------------------------------------

 SCF Done:  E(UB3LYP) =  -1136.11766415     A.U. after   25 cycles

 The electronic state is 2-A.
 Alpha  occ. eigenvalues --  -38.45368 -38.44940 -38.44476 -38.44445 -38.44048
 Alpha  occ. eigenvalues --  -38.43302 -38.42788  -2.21180  -2.20727  -2.20300
 Alpha  occ. eigenvalues --   -2.20285  -2.19867  -2.19119  -2.18615  -1.14845
 Alpha  occ. eigenvalues --   -1.14802  -1.14787  -1.14395  -1.14374  -1.14351
 Alpha  occ. eigenvalues --   -1.14022  -1.13990  -1.13964  -1.13945  -1.13924
 Alpha  occ. eigenvalues --   -1.13900  -1.13549  -1.13523  -1.13501  -1.12788
 Alpha  occ. eigenvalues --   -1.12778  -1.12752  -1.12308  -1.12263  -1.12243
 Alpha  occ. eigenvalues --   -0.17751  -0.13863  -0.11724  -0.10830
 Alpha virt. eigenvalues --   -0.06972  -0.05596  -0.04433  -0.03412  -0.02716
 Alpha virt. eigenvalues --   -0.02633  -0.02290  -0.01575  -0.01048  -0.00413
 Alpha virt. eigenvalues --   -0.00028   0.00155   0.00253   0.00501   0.00644

  Beta  occ. eigenvalues --  -38.45261 -38.44898 -38.44482 -38.44429 -38.44035
  Beta  occ. eigenvalues --  -38.43290 -38.42774  -2.20984  -2.20647  -2.20315
  Beta  occ. eigenvalues --   -2.20262  -2.19844  -2.19096  -2.18588  -1.14708
  Beta  occ. eigenvalues --   -1.14670  -1.14643  -1.14342  -1.14318  -1.14298
  Beta  occ. eigenvalues --   -1.14007  -1.14000  -1.13953  -1.13930  -1.13916
  Beta  occ. eigenvalues --   -1.13871  -1.13527  -1.13510  -1.13482  -1.12775
  Beta  occ. eigenvalues --   -1.12758  -1.12739  -1.12290  -1.12241  -1.12226
  Beta  occ. eigenvalues --   -0.17092  -0.13487  -0.10703
  Beta virt. eigenvalues --   -0.07881  -0.06681  -0.05222  -0.04116  -0.03001
  Beta virt. eigenvalues --   -0.02533  -0.02061  -0.01855  -0.01285  -0.00706
  Beta virt. eigenvalues --   -0.00254   0.00036   0.00210   0.00374   0.00601

 Mulliken charges and spin densities:
               1          2
     1  Na  -1.137483   0.090919
     2  Na   0.503601   0.058841
     3  Na   0.056842   0.369107
     4  Na  -0.097564   0.019066
     5  Na   0.474167   0.201795
     6  Na   0.364961   0.137698
     7  Na  -0.164524   0.122575
 Sum of Mulliken charges =  -0.00000   1.00000

 Dipole moment (field-independent basis, Debye):
    X=             -0.5929    Y=              0.0017    Z=              0.5872  Tot=              0.8345
 Quadrupole moment (field-independent basis, Debye-Ang):
   XX=            -51.1953   YY=            -80.4758   ZZ=            -65.0594
   XY=              0.8646   XZ=              3.8242   YZ=              3.5257

 Normal termination of Gaussian 16 at Sun Dec  3 16:07:52 2023.
