 Gaussian 16, Revision B.01,
 Gaussian 16:  ES64L-G16RevB.01 20-Dec-2017

 -------------------------
 #P B3LYP/6-311+g(d) force
 -------------------------

 -----
 DPGEN
 -----
 Symbolic Z-matrix:
 Charge =  0 Multiplicity = 2

                         Standard orientation:
 ---------------------------------------------------------------------
 Center     Atomic      Atomic             Coordinates (Angstroms)
 Number     Number       Type             X           Y           Z
 ---------------------------------------------------------------------
      1         11           0       -2.989200    0.642126   -1.057064
      2         11           0       -0.414815   -0.931634   -0.090905
      3         11           0       -0.646396    2.652915    0.844272
      4         11           0        2.805578   -0.155752    1.658340
      5         11           0       -3.035697   -1.845356    0.858903
      6         11           0        1.802752    1.510240   -1.166906
      7         11           0        2.477778   -1.872539   -1.046641
 ---------------------------------------------------------------------

 SCF Done:  E(UB3LYP) =  -1136.12017869     A.U. after   23 cycles

 The electronic state is 2-A.
 Alpha  occ. eigenvalues --  -38.45021 -38.44149 -38.43899 -38.43854 -38.43623
 Alpha  occ. eigenvalues --  -38.43345 -38.43042  -2.20887  -2.20034  -2.19783
 Alpha  occ. eigenvalues --   -2.19725  -2.19520  -2.19379  -2.18859  -1.14590
 Alpha  occ. eigenvalues --   -1.14554  -1.14500  -1.13777  -1.13665  -1.13653
 Alpha  occ. eigenvalues --   -1.13479  -1.13463  -1.13413  -1.13378  -1.13372
 Alpha  occ. eigenvalues --   -1.13348  -1.13228  -1.13152  -1.13142  -1.13072
 Alpha  occ. eigenvalues --   -1.13020  -1.13002  -1.12534  -1.12519  -1.12501
 Alpha  occ. eigenvalues --   -0.18310  -0.14493  -0.11680  -0.10054
 Alpha virt. eigenvalues --   -0.06188  -0.05809  -0.04804  -0.03389  -0.02458
 Alpha virt. eigenvalues --   -0.02210  -0.01801  -0.01064  -0.00793  -0.00273
 Alpha virt. eigenvalues --    0.00009   0.00265   0.00389   0.00438   0.00703

  Beta  occ. eigenvalues --  -38.45016 -38.44139 -38.43874 -38.43784 -38.43594
  Beta  occ. eigenvalues --  -38.43325 -38.43039  -2.20879  -2.20014  -2.19742
  Beta  occ. eigenvalues --   -2.19593  -2.19470  -2.19349  -2.18855  -1.14584
  Beta  occ. eigenvalues --   -1.14541  -1.14497  -1.13763  -1.13652  -1.13636
  Beta  occ. eigenvalues --   -1.13454  -1.13410  -1.13369  -1.13294  -1.13287
  Beta  occ. eigenvalues --   -1.13260  -1.13193  -1.13113  -1.13083  -1.13012
  Beta  occ. eigenvalues --   -1.12996  -1.12983  -1.12531  -1.12517  -1.12487
  Beta  occ. eigenvalues --   -0.17721  -0.14231  -0.11530
  Beta virt. eigenvalues --   -0.06455  -0.05907  -0.05607  -0.04370  -0.03161
  Beta virt. eigenvalues --   -0.02082  -0.01997  -0.01068  -0.00957  -0.00519
  Beta virt. eigenvalues --   -0.00087   0.00208   0.00335   0.00537   0.00581

 Mulliken charges and spin densities:
               1          2
     1  Na   0.484743  -0.099831
     2  Na  -2.517562   0.552527
     3  Na  -0.156219   0.088530
     4  Na  -0.106108   0.324129
     5  Na   0.045480  -0.138948
     6  Na   0.892004   0.276905
     7  Na   1.357663  -0.003313
 Sum of Mulliken charges =  -0.00000   1.00000

 Dipole moment (field-independent basis, Debye):
    X=             -0.9508    Y=              0.0312    Z=             -0.4090  Tot=              1.0355
 Quadrupole moment (field-independent basis, Debye-Ang):
   XX=            -52.9870   YY=            -70.1739   ZZ=            -70.6633
   XY=             -1.3685   XZ=             -1.3794   YZ=             -1.4448

 Normal termination of Gaussian 16 at Fri Dec  8 05:57:34 2023.
