 Gaussian 16, Revision B.01,
 Gaussian 16:  ES64L-G16RevB.01 20-Dec-2017

 -------------------------
 #P B3LYP/6-311+g(d) force
 -------------------------

 -----
 DPGEN
 -----
 Symbolic Z-matrix:
 Charge =  0 Multiplicity = 2

                         Standard orientation:
 ---------------------------------------------------------------------
 Center     Atomic      Atomic             Coordinates (Angstroms)
 Number     Number       Type             X           Y           Z
 ---------------------------------------------------------------------
      1         11           0       -3.169357   -0.302590    0.292463
      2         11           0       -1.357695    2.880907   -0.062876
      3         11           0        2.817962    1.614200    0.134672
      4         11           0       -0.268287    0.364077   -1.465415
      5         11           0        2.745138   -1.557334   -0.178037
      6         11           0        0.234702   -0.186111    1.487253
      7         11           0       -1.002462   -2.813149   -0.208060
 ---------------------------------------------------------------------

 SCF Done:  E(UB3LYP) =  -1136.13138178     A.U. after   24 cycles

 The electronic state is 2-A.
 Alpha  occ. eigenvalues --  -38.44396 -38.44346 -38.44156 -38.43567 -38.43222
 Alpha  occ. eigenvalues --  -38.43001 -38.42657  -2.20243  -2.20185  -2.20011
 Alpha  occ. eigenvalues --   -2.19404  -2.19083  -2.19007  -2.18681  -1.13917
 Alpha  occ. eigenvalues --   -1.13906  -1.13882  -1.13877  -1.13852  -1.13825
 Alpha  occ. eigenvalues --   -1.13686  -1.13661  -1.13637  -1.13120  -1.13053
 Alpha  occ. eigenvalues --   -1.13034  -1.12801  -1.12753  -1.12746  -1.12722
 Alpha  occ. eigenvalues --   -1.12623  -1.12602  -1.12377  -1.12292  -1.12283
 Alpha  occ. eigenvalues --   -0.18791  -0.13604  -0.12326  -0.09766
 Alpha virt. eigenvalues --   -0.06080  -0.05515  -0.04746  -0.03085  -0.02383
 Alpha virt. eigenvalues --   -0.01974  -0.01575  -0.01363  -0.00687  -0.00520
 Alpha virt. eigenvalues --    0.00052   0.00329   0.00738   0.00789   0.00839

  Beta  occ. eigenvalues --  -38.44385 -38.44340 -38.44150 -38.43563 -38.43214
  Beta  occ. eigenvalues --  -38.42940 -38.42589  -2.20226  -2.20177  -2.20004
  Beta  occ. eigenvalues --   -2.19400  -2.19073  -2.18898  -2.18559  -1.13902
  Beta  occ. eigenvalues --   -1.13881  -1.13877  -1.13866  -1.13834  -1.13810
  Beta  occ. eigenvalues --   -1.13677  -1.13650  -1.13621  -1.13109  -1.13036
  Beta  occ. eigenvalues --   -1.13031  -1.12772  -1.12731  -1.12700  -1.12688
  Beta  occ. eigenvalues --   -1.12547  -1.12522  -1.12286  -1.12199  -1.12198
  Beta  occ. eigenvalues --   -0.18113  -0.13351  -0.12070
  Beta virt. eigenvalues --   -0.06084  -0.05908  -0.05492  -0.04725  -0.02317
  Beta virt. eigenvalues --   -0.01864  -0.01689  -0.01300  -0.00817  -0.00638
  Beta virt. eigenvalues --   -0.00511   0.00206   0.00384   0.00786   0.00796

 Mulliken charges and spin densities:
               1          2
     1  Na   0.211711   0.065512
     2  Na   0.153424  -0.099024
     3  Na   0.196403  -0.058197
     4  Na  -0.465843   0.567707
     5  Na   0.198423   0.039328
     6  Na  -0.375016   0.474247
     7  Na   0.080897   0.010427
 Sum of Mulliken charges =  -0.00000   1.00000

 Dipole moment (field-independent basis, Debye):
    X=              0.1831    Y=              0.1209    Z=              0.0210  Tot=              0.2204
 Quadrupole moment (field-independent basis, Debye-Ang):
   XX=            -50.8958   YY=            -59.7397   ZZ=            -79.1365
   XY=              0.1718   XZ=             -1.2356   YZ=              1.4522

 Normal termination of Gaussian 16 at Wed Nov 29 00:34:00 2023.
