 Gaussian 16, Revision B.01,
 Gaussian 16:  ES64L-G16RevB.01 20-Dec-2017

 -------------------------
 #P B3LYP/6-311+g(d) force
 -------------------------

 -----
 DPGEN
 -----
 Symbolic Z-matrix:
 Charge =  0 Multiplicity = 2

                         Standard orientation:
 ---------------------------------------------------------------------
 Center     Atomic      Atomic             Coordinates (Angstroms)
 Number     Number       Type             X           Y           Z
 ---------------------------------------------------------------------
      1         11           0       -0.210545   -0.162643    2.043897
      2         11           0        0.322643    3.116915   -0.199023
      3         11           0        1.698526   -2.544308   -0.111510
      4         11           0       -2.014974   -2.490391   -0.192233
      5         11           0       -2.898968    1.414505    0.004870
      6         11           0       -0.055394   -0.081129   -1.616030
      7         11           0        3.158712    0.747051    0.070029
 ---------------------------------------------------------------------

 SCF Done:  E(UB3LYP) =  -1136.13865802     A.U. after   19 cycles

 The electronic state is 2-A.
 Alpha  occ. eigenvalues --  -38.44039 -38.43948 -38.43822 -38.43817 -38.43815
 Alpha  occ. eigenvalues --  -38.43474 -38.43139  -2.19835  -2.19758  -2.19650
 Alpha  occ. eigenvalues --   -2.19619  -2.19610  -2.19337  -2.19080  -1.13511
 Alpha  occ. eigenvalues --   -1.13498  -1.13474  -1.13439  -1.13419  -1.13394
 Alpha  occ. eigenvalues --   -1.13341  -1.13319  -1.13302  -1.13288  -1.13286
 Alpha  occ. eigenvalues --   -1.13282  -1.13266  -1.13251  -1.13238  -1.13008
 Alpha  occ. eigenvalues --   -1.12961  -1.12954  -1.12770  -1.12711  -1.12705
 Alpha  occ. eigenvalues --   -0.18190  -0.12688  -0.12541  -0.10401
 Alpha virt. eigenvalues --   -0.05630  -0.05366  -0.05147  -0.02937  -0.02859
 Alpha virt. eigenvalues --   -0.02410  -0.01474  -0.01433  -0.00693  -0.00656
 Alpha virt. eigenvalues --   -0.00008   0.00349   0.00793   0.00807   0.00826

  Beta  occ. eigenvalues --  -38.44037 -38.43942 -38.43817 -38.43816 -38.43812
  Beta  occ. eigenvalues --  -38.43377 -38.43078  -2.19834  -2.19751  -2.19644
  Beta  occ. eigenvalues --   -2.19616  -2.19611  -2.19159  -2.18969  -1.13500
  Beta  occ. eigenvalues --   -1.13489  -1.13476  -1.13426  -1.13403  -1.13390
  Beta  occ. eigenvalues --   -1.13334  -1.13295  -1.13294  -1.13287  -1.13276
  Beta  occ. eigenvalues --   -1.13268  -1.13266  -1.13252  -1.13240  -1.12888
  Beta  occ. eigenvalues --   -1.12836  -1.12826  -1.12691  -1.12630  -1.12623
  Beta  occ. eigenvalues --   -0.17477  -0.12471  -0.12340
  Beta virt. eigenvalues --   -0.06508  -0.05648  -0.05365  -0.05038  -0.02179
  Beta virt. eigenvalues --   -0.02134  -0.01386  -0.01365  -0.01332  -0.00746
  Beta virt. eigenvalues --   -0.00722   0.00140   0.00380   0.00799   0.00821

 Mulliken charges and spin densities:
               1          2
     1  Na  -0.408246   0.853141
     2  Na   0.040191  -0.074286
     3  Na   0.178179  -0.060017
     4  Na   0.183297  -0.095966
     5  Na   0.097326  -0.096213
     6  Na  -0.083898   0.535243
     7  Na  -0.006850  -0.061904
 Sum of Mulliken charges =  -0.00000   1.00000

 Dipole moment (field-independent basis, Debye):
    X=             -0.1689    Y=             -0.0586    Z=              0.0538  Tot=              0.1867
 Quadrupole moment (field-independent basis, Debye-Ang):
   XX=            -57.2316   YY=            -58.5585   ZZ=            -76.5131
   XY=              0.2130   XZ=              0.4273   YZ=              0.2138

 Normal termination of Gaussian 16 at Tue Dec  5 13:56:46 2023.
