 Gaussian 16, Revision B.01,
 Gaussian 16:  ES64L-G16RevB.01 20-Dec-2017

 -------------------------
 #P B3LYP/6-311+g(d) force
 -------------------------

 -----
 DPGEN
 -----
 Symbolic Z-matrix:
 Charge =  0 Multiplicity = 2

                         Standard orientation:
 ---------------------------------------------------------------------
 Center     Atomic      Atomic             Coordinates (Angstroms)
 Number     Number       Type             X           Y           Z
 ---------------------------------------------------------------------
      1         11           0        3.019351   -0.185817   -0.259822
      2         11           0        1.438437    2.550319   -0.152704
      3         11           0        0.226832   -0.025907    2.188858
      4         11           0        0.697366   -2.878427   -0.023960
      5         11           0       -2.085083    2.265152   -0.205127
      6         11           0       -0.314672   -0.568501   -1.693533
      7         11           0       -2.982231   -1.156820    0.146287
 ---------------------------------------------------------------------

 SCF Done:  E(UB3LYP) =  -1136.13643646     A.U. after   19 cycles

 The electronic state is 2-A.
 Alpha  occ. eigenvalues --  -38.44229 -38.43858 -38.43842 -38.43728 -38.43568
 Alpha  occ. eigenvalues --  -38.43397 -38.43291  -2.20041  -2.19716  -2.19699
 Alpha  occ. eigenvalues --   -2.19538  -2.19433  -2.19350  -2.19142  -1.13728
 Alpha  occ. eigenvalues --   -1.13702  -1.13674  -1.13410  -1.13379  -1.13363
 Alpha  occ. eigenvalues --   -1.13349  -1.13326  -1.13317  -1.13226  -1.13214
 Alpha  occ. eigenvalues --   -1.13201  -1.13177  -1.13086  -1.13050  -1.13005
 Alpha  occ. eigenvalues --   -1.12970  -1.12947  -1.12812  -1.12800  -1.12787
 Alpha  occ. eigenvalues --   -0.18465  -0.12975  -0.12477  -0.10849
 Alpha virt. eigenvalues --   -0.05743  -0.05157  -0.04720  -0.03246  -0.02999
 Alpha virt. eigenvalues --   -0.02729  -0.01477  -0.01104  -0.00436  -0.00338
 Alpha virt. eigenvalues --   -0.00041   0.00366   0.00804   0.00847   0.00903

  Beta  occ. eigenvalues --  -38.44227 -38.43852 -38.43739 -38.43726 -38.43561
  Beta  occ. eigenvalues --  -38.43340 -38.43287  -2.20040  -2.19707  -2.19536
  Beta  occ. eigenvalues --   -2.19509  -2.19425  -2.19246  -2.19138  -1.13721
  Beta  occ. eigenvalues --   -1.13690  -1.13675  -1.13406  -1.13357  -1.13345
  Beta  occ. eigenvalues --   -1.13231  -1.13210  -1.13197  -1.13194  -1.13186
  Beta  occ. eigenvalues --   -1.13184  -1.13179  -1.13058  -1.13045  -1.12939
  Beta  occ. eigenvalues --   -1.12897  -1.12880  -1.12811  -1.12787  -1.12776
  Beta  occ. eigenvalues --   -0.17737  -0.12778  -0.12262
  Beta virt. eigenvalues --   -0.06910  -0.05725  -0.05134  -0.04632  -0.02481
  Beta virt. eigenvalues --   -0.02216  -0.01663  -0.01388  -0.01043  -0.00495
  Beta virt. eigenvalues --   -0.00378   0.00123   0.00401   0.00829   0.00894

 Mulliken charges and spin densities:
               1          2
     1  Na   0.203680   0.004575
     2  Na  -0.021676  -0.030084
     3  Na  -0.547261   0.773862
     4  Na   0.343631  -0.046852
     5  Na  -0.020535  -0.054542
     6  Na  -0.112750   0.417083
     7  Na   0.154912  -0.064041
 Sum of Mulliken charges =  -0.00000   1.00000

 Dipole moment (field-independent basis, Debye):
    X=             -0.2908    Y=             -0.2452    Z=              0.1533  Tot=              0.4101
 Quadrupole moment (field-independent basis, Debye-Ang):
   XX=            -57.9206   YY=            -63.0922   ZZ=            -73.6921
   XY=             -0.1421   XZ=             -1.1777   YZ=             -1.1767

 Normal termination of Gaussian 16 at Thu Dec  7 16:36:49 2023.
