 Gaussian 16, Revision B.01,
 Gaussian 16:  ES64L-G16RevB.01 20-Dec-2017

 -------------------------
 #P B3LYP/6-311+g(d) force
 -------------------------

 -----
 DPGEN
 -----
 Symbolic Z-matrix:
 Charge =  0 Multiplicity = 2

                         Standard orientation:
 ---------------------------------------------------------------------
 Center     Atomic      Atomic             Coordinates (Angstroms)
 Number     Number       Type             X           Y           Z
 ---------------------------------------------------------------------
      1         11           0       -1.135965   -1.697995    0.913985
      2         11           0        1.586148    0.754283    1.911072
      3         11           0        1.083564    3.250573   -0.507737
      4         11           0       -2.250407    1.291602   -0.369338
      5         11           0       -4.467405   -0.732883   -0.396792
      6         11           0        2.731293    0.049181   -0.868514
      7         11           0        2.452774   -2.914761   -0.682675
 ---------------------------------------------------------------------

 SCF Done:  E(UB3LYP) =  -1136.12030348     A.U. after   21 cycles

 The electronic state is 2-A.
 Alpha  occ. eigenvalues --  -38.44656 -38.44603 -38.44448 -38.44135 -38.43735
 Alpha  occ. eigenvalues --  -38.43487 -38.43481  -2.20492  -2.20460  -2.20295
 Alpha  occ. eigenvalues --   -2.19948  -2.19654  -2.19315  -2.19287  -1.14233
 Alpha  occ. eigenvalues --   -1.14176  -1.14137  -1.14117  -1.14111  -1.14052
 Alpha  occ. eigenvalues --   -1.13979  -1.13966  -1.13878  -1.13646  -1.13617
 Alpha  occ. eigenvalues --   -1.13535  -1.13352  -1.13345  -1.13292  -1.12969
 Alpha  occ. eigenvalues --   -1.12960  -1.12956  -1.12943  -1.12927  -1.12924
 Alpha  occ. eigenvalues --   -0.17380  -0.14233  -0.12162  -0.10381
 Alpha virt. eigenvalues --   -0.06534  -0.05490  -0.04717  -0.03480  -0.02778
 Alpha virt. eigenvalues --   -0.02395  -0.01847  -0.01308  -0.01094  -0.00768
 Alpha virt. eigenvalues --   -0.00222   0.00223   0.00277   0.00643   0.00683

  Beta  occ. eigenvalues --  -38.44636 -38.44551 -38.44440 -38.44088 -38.43700
  Beta  occ. eigenvalues --  -38.43474 -38.43462  -2.20454  -2.20366  -2.20283
  Beta  occ. eigenvalues --   -2.19863  -2.19592  -2.19274  -2.19271  -1.14208
  Beta  occ. eigenvalues --   -1.14112  -1.14112  -1.14089  -1.14039  -1.13979
  Beta  occ. eigenvalues --   -1.13971  -1.13941  -1.13866  -1.13589  -1.13548
  Beta  occ. eigenvalues --   -1.13476  -1.13307  -1.13299  -1.13242  -1.12947
  Beta  occ. eigenvalues --   -1.12937  -1.12934  -1.12924  -1.12914  -1.12892
  Beta  occ. eigenvalues --   -0.16799  -0.13903  -0.11889
  Beta virt. eigenvalues --   -0.06796  -0.06363  -0.05138  -0.04546  -0.03079
  Beta virt. eigenvalues --   -0.02355  -0.02227  -0.01232  -0.01162  -0.00985
  Beta virt. eigenvalues --   -0.00481   0.00081   0.00315   0.00432   0.00700

 Mulliken charges and spin densities:
               1          2
     1  Na  -0.638931   0.223520
     2  Na  -0.053742   0.288191
     3  Na   0.308233   0.092189
     4  Na  -0.902406   0.051431
     5  Na   1.173643   0.069167
     6  Na  -0.272248   0.376233
     7  Na   0.385451  -0.100731
 Sum of Mulliken charges =  -0.00000   1.00000

 Dipole moment (field-independent basis, Debye):
    X=             -1.3916    Y=             -0.1266    Z=              0.3909  Tot=              1.4509
 Quadrupole moment (field-independent basis, Debye-Ang):
   XX=            -60.5189   YY=            -63.9525   ZZ=            -72.1122
   XY=              5.5409   XZ=              3.4712   YZ=             -0.2234

 Normal termination of Gaussian 16 at Tue Nov 28 20:41:46 2023.
