 Gaussian 16, Revision B.01,
 Gaussian 16:  ES64L-G16RevB.01 20-Dec-2017

 -------------------------
 #P B3LYP/6-311+g(d) force
 -------------------------

 -----
 DPGEN
 -----
 Symbolic Z-matrix:
 Charge =  0 Multiplicity = 2

                         Standard orientation:
 ---------------------------------------------------------------------
 Center     Atomic      Atomic             Coordinates (Angstroms)
 Number     Number       Type             X           Y           Z
 ---------------------------------------------------------------------
      1         11           0        2.038273    0.087248    1.358601
      2         11           0       -0.175051   -2.568698   -0.494035
      3         11           0       -1.357813    0.067362    1.258134
      4         11           0        1.116581    2.517512   -0.987780
      5         11           0       -1.855453    3.215282   -0.173245
      6         11           0       -3.844845   -2.038769   -0.448827
      7         11           0        4.078308   -1.279937   -0.512848
 ---------------------------------------------------------------------

 SCF Done:  E(UB3LYP) =  -1136.11897247     A.U. after   21 cycles

 The electronic state is 2-A.
 Alpha  occ. eigenvalues --  -38.45168 -38.44646 -38.44200 -38.44130 -38.44115
 Alpha  occ. eigenvalues --  -38.43456 -38.43212  -2.20932  -2.20456  -2.19979
 Alpha  occ. eigenvalues --   -2.19945  -2.19927  -2.19366  -2.19118  -1.14637
 Alpha  occ. eigenvalues --   -1.14624  -1.14525  -1.14136  -1.14116  -1.14100
 Alpha  occ. eigenvalues --   -1.13643  -1.13636  -1.13619  -1.13608  -1.13598
 Alpha  occ. eigenvalues --   -1.13590  -1.13584  -1.13563  -1.13560  -1.13044
 Alpha  occ. eigenvalues --   -1.13021  -1.13006  -1.12817  -1.12775  -1.12721
 Alpha  occ. eigenvalues --   -0.17330  -0.13201  -0.12941  -0.09965
 Alpha virt. eigenvalues --   -0.06518  -0.06311  -0.04330  -0.03402  -0.02906
 Alpha virt. eigenvalues --   -0.02356  -0.02084  -0.01441  -0.01034  -0.00744
 Alpha virt. eigenvalues --   -0.00104   0.00231   0.00255   0.00493   0.00621

  Beta  occ. eigenvalues --  -38.45174 -38.44630 -38.44160 -38.44124 -38.44075
  Beta  occ. eigenvalues --  -38.43418 -38.43157  -2.20946  -2.20427  -2.19933
  Beta  occ. eigenvalues --   -2.19902  -2.19852  -2.19304  -2.19023  -1.14649
  Beta  occ. eigenvalues --   -1.14614  -1.14535  -1.14116  -1.14088  -1.14078
  Beta  occ. eigenvalues --   -1.13593  -1.13589  -1.13589  -1.13583  -1.13577
  Beta  occ. eigenvalues --   -1.13571  -1.13542  -1.13511  -1.13508  -1.13006
  Beta  occ. eigenvalues --   -1.12976  -1.12922  -1.12752  -1.12696  -1.12646
  Beta  occ. eigenvalues --   -0.16712  -0.12902  -0.12656
  Beta virt. eigenvalues --   -0.06477  -0.06305  -0.06093  -0.04076  -0.03053
  Beta virt. eigenvalues --   -0.02526  -0.02159  -0.01859  -0.01032  -0.00648
  Beta virt. eigenvalues --   -0.00619   0.00065   0.00317   0.00361   0.00591

 Mulliken charges and spin densities:
               1          2
     1  Na   0.182003   0.177829
     2  Na  -0.191474  -0.130791
     3  Na  -0.499233   0.307635
     4  Na  -0.153914   0.099174
     5  Na   0.287875  -0.010057
     6  Na   0.319204   0.261415
     7  Na   0.055539   0.294795
 Sum of Mulliken charges =  -0.00000   1.00000

 Dipole moment (field-independent basis, Debye):
    X=             -0.4042    Y=             -0.1247    Z=             -0.2146  Tot=              0.4744
 Quadrupole moment (field-independent basis, Debye-Ang):
   XX=            -59.7459   YY=            -67.2636   ZZ=            -72.1782
   XY=             -3.4987   XZ=             -1.7716   YZ=              2.6870

 Normal termination of Gaussian 16 at Wed Nov 29 02:57:34 2023.
