 Gaussian 16, Revision B.01,
 Gaussian 16:  ES64L-G16RevB.01 20-Dec-2017

 -------------------------
 #P B3LYP/6-311+g(d) force
 -------------------------

 -----
 DPGEN
 -----
 Symbolic Z-matrix:
 Charge =  0 Multiplicity = 2

                         Standard orientation:
 ---------------------------------------------------------------------
 Center     Atomic      Atomic             Coordinates (Angstroms)
 Number     Number       Type             X           Y           Z
 ---------------------------------------------------------------------
      1         11           0        0.255369   -0.302090   -1.726198
      2         11           0        3.080098    1.109013   -0.359689
      3         11           0       -1.746007   -2.604247   -0.180971
      4         11           0       -0.588592    3.277469   -0.174461
      5         11           0       -3.461630    0.359536    0.081065
      6         11           0        0.301687    0.398449    1.984139
      7         11           0        2.159075   -2.238129    0.376115
 ---------------------------------------------------------------------

 SCF Done:  E(UB3LYP) =  -1136.13214598     A.U. after   20 cycles

 The electronic state is 2-A.
 Alpha  occ. eigenvalues --  -38.44627 -38.44480 -38.43858 -38.43842 -38.43600
 Alpha  occ. eigenvalues --  -38.43548 -38.43496  -2.20386  -2.20289  -2.19673
 Alpha  occ. eigenvalues --   -2.19613  -2.19450  -2.19394  -2.19360  -1.14068
 Alpha  occ. eigenvalues --   -1.14043  -1.14025  -1.13967  -1.13946  -1.13922
 Alpha  occ. eigenvalues --   -1.13347  -1.13341  -1.13310  -1.13293  -1.13273
 Alpha  occ. eigenvalues --   -1.13256  -1.13126  -1.13086  -1.13084  -1.13062
 Alpha  occ. eigenvalues --   -1.13059  -1.13023  -1.13020  -1.13000  -1.12990
 Alpha  occ. eigenvalues --   -0.17889  -0.12956  -0.12093  -0.10405
 Alpha virt. eigenvalues --   -0.06176  -0.05407  -0.04939  -0.03119  -0.02794
 Alpha virt. eigenvalues --   -0.02383  -0.01793  -0.01314  -0.00900  -0.00675
 Alpha virt. eigenvalues --   -0.00039   0.00336   0.00721   0.00751   0.00802

  Beta  occ. eigenvalues --  -38.44630 -38.44467 -38.43860 -38.43830 -38.43545
  Beta  occ. eigenvalues --  -38.43515 -38.43431  -2.20392  -2.20269  -2.19654
  Beta  occ. eigenvalues --   -2.19618  -2.19358  -2.19294  -2.19275  -1.14064
  Beta  occ. eigenvalues --   -1.14047  -1.14031  -1.13944  -1.13919  -1.13912
  Beta  occ. eigenvalues --   -1.13337  -1.13301  -1.13297  -1.13284  -1.13276
  Beta  occ. eigenvalues --   -1.13260  -1.13051  -1.13023  -1.13013  -1.12995
  Beta  occ. eigenvalues --   -1.12986  -1.12976  -1.12945  -1.12937  -1.12922
  Beta  occ. eigenvalues --   -0.17174  -0.12778  -0.11905
  Beta virt. eigenvalues --   -0.06534  -0.06140  -0.05356  -0.04844  -0.02426
  Beta virt. eigenvalues --   -0.02106  -0.01702  -0.01401  -0.01196  -0.00920
  Beta virt. eigenvalues --   -0.00721   0.00117   0.00380   0.00754   0.00787

 Mulliken charges and spin densities:
               1          2
     1  Na   0.105553   0.615143
     2  Na   0.174734  -0.049431
     3  Na   0.035713  -0.072490
     4  Na  -0.165920  -0.149835
     5  Na  -0.083169  -0.095139
     6  Na  -0.203555   0.709138
     7  Na   0.136644   0.042614
 Sum of Mulliken charges =  -0.00000   1.00000

 Dipole moment (field-independent basis, Debye):
    X=              0.1144    Y=              0.1183    Z=              0.0180  Tot=              0.1655
 Quadrupole moment (field-independent basis, Debye-Ang):
   XX=            -54.4261   YY=            -62.1547   ZZ=            -76.3583
   XY=             -0.4805   XZ=             -0.3040   YZ=             -1.6677

 Normal termination of Gaussian 16 at Thu Dec  7 20:57:44 2023.
