 Gaussian 16, Revision B.01,
 Gaussian 16:  ES64L-G16RevB.01 20-Dec-2017

 -------------------------
 #P B3LYP/6-311+g(d) force
 -------------------------

 -----
 DPGEN
 -----
 Symbolic Z-matrix:
 Charge =  0 Multiplicity = 2

                         Standard orientation:
 ---------------------------------------------------------------------
 Center     Atomic      Atomic             Coordinates (Angstroms)
 Number     Number       Type             X           Y           Z
 ---------------------------------------------------------------------
      1         11           0        3.113777   -1.006807   -1.696909
      2         11           0       -0.386291   -1.066023   -0.725005
      3         11           0       -3.347461   -2.258700   -0.136798
      4         11           0        1.174832    2.333411   -0.468502
      5         11           0        2.318725   -0.899518    1.773567
      6         11           0       -0.454125    0.772053    2.043905
      7         11           0       -2.419457    2.125584   -0.790257
 ---------------------------------------------------------------------

 SCF Done:  E(UB3LYP) =  -1136.12666387     A.U. after   22 cycles

 The electronic state is 2-A.
 Alpha  occ. eigenvalues --  -38.44529 -38.44328 -38.44210 -38.44181 -38.43757
 Alpha  occ. eigenvalues --  -38.43225 -38.42907  -2.20313  -2.20180  -2.20094
 Alpha  occ. eigenvalues --   -2.20016  -2.19588  -2.19001  -2.18820  -1.14002
 Alpha  occ. eigenvalues --   -1.13961  -1.13927  -1.13903  -1.13831  -1.13799
 Alpha  occ. eigenvalues --   -1.13779  -1.13720  -1.13690  -1.13678  -1.13662
 Alpha  occ. eigenvalues --   -1.13632  -1.13275  -1.13265  -1.13189  -1.12687
 Alpha  occ. eigenvalues --   -1.12664  -1.12646  -1.12548  -1.12485  -1.12411
 Alpha  occ. eigenvalues --   -0.18109  -0.13034  -0.11725  -0.11361
 Alpha virt. eigenvalues --   -0.05786  -0.05429  -0.04775  -0.03190  -0.02923
 Alpha virt. eigenvalues --   -0.02475  -0.01872  -0.01194  -0.00892  -0.00129
 Alpha virt. eigenvalues --    0.00187   0.00245   0.00348   0.00422   0.00715

  Beta  occ. eigenvalues --  -38.44513 -38.44280 -38.44160 -38.44113 -38.43739
  Beta  occ. eigenvalues --  -38.43232 -38.42895  -2.20284  -2.20096  -2.19973
  Beta  occ. eigenvalues --   -2.19924  -2.19558  -2.19015  -2.18800  -1.13978
  Beta  occ. eigenvalues --   -1.13944  -1.13907  -1.13821  -1.13777  -1.13731
  Beta  occ. eigenvalues --   -1.13704  -1.13638  -1.13611  -1.13595  -1.13582
  Beta  occ. eigenvalues --   -1.13574  -1.13253  -1.13229  -1.13169  -1.12695
  Beta  occ. eigenvalues --   -1.12671  -1.12655  -1.12516  -1.12467  -1.12402
  Beta  occ. eigenvalues --   -0.17354  -0.12777  -0.11269
  Beta virt. eigenvalues --   -0.07695  -0.05618  -0.05293  -0.04187  -0.02990
  Beta virt. eigenvalues --   -0.02155  -0.01955  -0.01731  -0.01102  -0.00469
  Beta virt. eigenvalues --   -0.00073   0.00230   0.00368   0.00440   0.00562

 Mulliken charges and spin densities:
               1          2
     1  Na   0.772192   0.153069
     2  Na  -1.891295   0.466182
     3  Na   0.406339  -0.159643
     4  Na  -0.102736   0.233221
     5  Na   0.116517  -0.029246
     6  Na   0.417314   0.370096
     7  Na   0.281670  -0.033680
 Sum of Mulliken charges =  -0.00000   1.00000

 Dipole moment (field-independent basis, Debye):
    X=              0.4244    Y=              0.8514    Z=              0.1600  Tot=              0.9647
 Quadrupole moment (field-independent basis, Debye-Ang):
   XX=            -55.3991   YY=            -71.8969   ZZ=            -66.2751
   XY=             -3.9779   XZ=             -1.0753   YZ=             -2.7197

 Normal termination of Gaussian 16 at Thu Dec  7 05:14:21 2023.
