 Gaussian 16, Revision B.01,
 Gaussian 16:  ES64L-G16RevB.01 20-Dec-2017

 -------------------------
 #P B3LYP/6-311+g(d) force
 -------------------------

 -----
 DPGEN
 -----
 Symbolic Z-matrix:
 Charge =  0 Multiplicity = 2

                         Standard orientation:
 ---------------------------------------------------------------------
 Center     Atomic      Atomic             Coordinates (Angstroms)
 Number     Number       Type             X           Y           Z
 ---------------------------------------------------------------------
      1         11           0        1.611419   -1.520203   -0.300506
      2         11           0       -0.935037   -1.977218    0.145366
      3         11           0       -2.449922    0.386642    0.209034
      4         11           0        0.403083   -0.138727    2.017799
      5         11           0        2.069237    1.090884   -0.206905
      6         11           0       -0.303273    2.174124    0.103440
      7         11           0       -0.395507   -0.015501   -1.968228
 ---------------------------------------------------------------------

 SCF Done:  E(UB3LYP) =  -1136.07633009     A.U. after   21 cycles

 The electronic state is 2-A.
 Alpha  occ. eigenvalues --  -38.44590 -38.44495 -38.43953 -38.43920 -38.43676
 Alpha  occ. eigenvalues --  -38.43608 -38.43509  -2.20734  -2.20665  -2.20168
 Alpha  occ. eigenvalues --   -2.20082  -2.19803  -2.19752  -2.19657  -1.14536
 Alpha  occ. eigenvalues --   -1.14426  -1.14399  -1.14353  -1.14325  -1.14310
 Alpha  occ. eigenvalues --   -1.14236  -1.14035  -1.14004  -1.13723  -1.13657
 Alpha  occ. eigenvalues --   -1.13642  -1.13621  -1.13477  -1.13403  -1.13353
 Alpha  occ. eigenvalues --   -1.13306  -1.13249  -1.13219  -1.13196  -1.13097
 Alpha  occ. eigenvalues --   -0.21853  -0.13510  -0.13062  -0.12981
 Alpha virt. eigenvalues --   -0.04896  -0.04095  -0.04013  -0.03822  -0.03635
 Alpha virt. eigenvalues --   -0.03492  -0.00670  -0.00391  -0.00298   0.00320
 Alpha virt. eigenvalues --    0.00953   0.01023   0.01034   0.01140   0.01257

  Beta  occ. eigenvalues --  -38.44492 -38.44399 -38.43939 -38.43900 -38.43666
  Beta  occ. eigenvalues --  -38.43591 -38.43495  -2.20556  -2.20492  -2.20145
  Beta  occ. eigenvalues --   -2.20060  -2.19783  -2.19736  -2.19639  -1.14445
  Beta  occ. eigenvalues --   -1.14320  -1.14287  -1.14243  -1.14213  -1.14197
  Beta  occ. eigenvalues --   -1.14180  -1.14017  -1.13972  -1.13650  -1.13643
  Beta  occ. eigenvalues --   -1.13613  -1.13565  -1.13468  -1.13337  -1.13298
  Beta  occ. eigenvalues --   -1.13287  -1.13214  -1.13191  -1.13178  -1.13092
  Beta  occ. eigenvalues --   -0.20917  -0.13147  -0.12677
  Beta virt. eigenvalues --   -0.08731  -0.04879  -0.04060  -0.04005  -0.02942
  Beta virt. eigenvalues --   -0.02675  -0.02382  -0.00608  -0.00349  -0.00084
  Beta virt. eigenvalues --    0.00336   0.00948   0.01013   0.01148   0.01191

 Mulliken charges and spin densities:
               1          2
     1  Na   0.860644   0.083967
     2  Na   1.068433   0.112706
     3  Na   0.391855   0.050890
     4  Na  -1.853377   0.309440
     5  Na   0.452655   0.056105
     6  Na   0.948389   0.122257
     7  Na  -1.868599   0.264636
 Sum of Mulliken charges =  -0.00000   1.00000

 Dipole moment (field-independent basis, Debye):
    X=             -0.1786    Y=              0.0896    Z=              0.1040  Tot=              0.2253
 Quadrupole moment (field-independent basis, Debye-Ang):
   XX=            -65.6991   YY=            -70.5456   ZZ=            -63.7832
   XY=             -0.0449   XZ=             -1.1573   YZ=              0.1748

 Normal termination of Gaussian 16 at Thu Dec  7 08:44:44 2023.
