 Gaussian 16, Revision B.01,
 Gaussian 16:  ES64L-G16RevB.01 20-Dec-2017

 -------------------------
 #P B3LYP/6-311+g(d) force
 -------------------------

 -----
 DPGEN
 -----
 Symbolic Z-matrix:
 Charge =  0 Multiplicity = 2

                         Standard orientation:
 ---------------------------------------------------------------------
 Center     Atomic      Atomic             Coordinates (Angstroms)
 Number     Number       Type             X           Y           Z
 ---------------------------------------------------------------------
      1         11           0       -0.512149    0.359231    2.301143
      2         11           0        2.414548    1.060044    0.660690
      3         11           0        2.407033   -1.854991   -0.391166
      4         11           0       -0.337423    3.040495   -0.827651
      5         11           0       -2.870826    0.070457   -0.126941
      6         11           0       -1.252408   -2.651865   -0.089417
      7         11           0        0.151225   -0.023371   -1.526658
 ---------------------------------------------------------------------

 SCF Done:  E(UB3LYP) =  -1136.13375014     A.U. after   19 cycles

 The electronic state is 2-A.
 Alpha  occ. eigenvalues --  -38.44290 -38.43668 -38.43558 -38.43523 -38.43510
 Alpha  occ. eigenvalues --  -38.43339 -38.43110  -2.20153  -2.19554  -2.19428
 Alpha  occ. eigenvalues --   -2.19389  -2.19374  -2.19222  -2.19161  -1.13808
 Alpha  occ. eigenvalues --   -1.13790  -1.13766  -1.13267  -1.13223  -1.13192
 Alpha  occ. eigenvalues --   -1.13156  -1.13112  -1.13095  -1.13071  -1.13060
 Alpha  occ. eigenvalues --   -1.13031  -1.13020  -1.13016  -1.12992  -1.12953
 Alpha  occ. eigenvalues --   -1.12861  -1.12838  -1.12821  -1.12780  -1.12754
 Alpha  occ. eigenvalues --   -0.18819  -0.13017  -0.12425  -0.11436
 Alpha virt. eigenvalues --   -0.05145  -0.04870  -0.04754  -0.03450  -0.03187
 Alpha virt. eigenvalues --   -0.02869  -0.01175  -0.01090  -0.00223  -0.00000
 Alpha virt. eigenvalues --    0.00086   0.00374   0.00853   0.00910   0.00936

  Beta  occ. eigenvalues --  -38.44188 -38.43663 -38.43535 -38.43508 -38.43507
  Beta  occ. eigenvalues --  -38.43338 -38.43055  -2.19965  -2.19548  -2.19403
  Beta  occ. eigenvalues --   -2.19374  -2.19350  -2.19221  -2.19062  -1.13681
  Beta  occ. eigenvalues --   -1.13657  -1.13636  -1.13266  -1.13199  -1.13183
  Beta  occ. eigenvalues --   -1.13144  -1.13079  -1.13060  -1.13050  -1.13037
  Beta  occ. eigenvalues --   -1.13022  -1.12996  -1.12990  -1.12988  -1.12932
  Beta  occ. eigenvalues --   -1.12851  -1.12838  -1.12759  -1.12716  -1.12688
  Beta  occ. eigenvalues --   -0.18103  -0.12812  -0.12141
  Beta virt. eigenvalues --   -0.07438  -0.05112  -0.04771  -0.04651  -0.02674
  Beta virt. eigenvalues --   -0.02426  -0.01904  -0.01071  -0.01033  -0.00085
  Beta virt. eigenvalues --   -0.00028   0.00143   0.00408   0.00873   0.00941

 Mulliken charges and spin densities:
               1          2
     1  Na  -0.429871   0.483075
     2  Na   0.160670   0.244070
     3  Na   0.147119  -0.025914
     4  Na   0.116817   0.048111
     5  Na   0.252788   0.038300
     6  Na   0.009007   0.052952
     7  Na  -0.256529   0.159407
 Sum of Mulliken charges =  -0.00000   1.00000

 Dipole moment (field-independent basis, Debye):
    X=             -0.2577    Y=              0.0434    Z=              0.3686  Tot=              0.4518
 Quadrupole moment (field-independent basis, Debye-Ang):
   XX=            -62.2260   YY=            -61.9280   ZZ=            -70.9312
   XY=             -0.5296   XZ=              0.8675   YZ=             -0.6720

 Normal termination of Gaussian 16 at Tue Dec  5 21:59:28 2023.
