 Gaussian 16, Revision B.01,
 Gaussian 16:  ES64L-G16RevB.01 20-Dec-2017

 -------------------------
 #P B3LYP/6-311+g(d) force
 -------------------------

 -----
 DPGEN
 -----
 Symbolic Z-matrix:
 Charge =  0 Multiplicity = 2

                         Standard orientation:
 ---------------------------------------------------------------------
 Center     Atomic      Atomic             Coordinates (Angstroms)
 Number     Number       Type             X           Y           Z
 ---------------------------------------------------------------------
      1         11           0       -2.402675   -0.360735    0.847992
      2         11           0       -3.256526    2.542335   -0.390341
      3         11           0        3.135623    0.834138    0.056269
      4         11           0       -4.717353   -2.408494   -0.030038
      5         11           0        6.298003   -0.863992    0.170369
      6         11           0        0.097841    1.793730    0.096262
      7         11           0        0.845086   -1.536982   -0.750514
 ---------------------------------------------------------------------

 SCF Done:  E(UB3LYP) =  -1136.11120348     A.U. after   24 cycles

 The electronic state is 2-A.
 Alpha  occ. eigenvalues --  -38.45883 -38.45061 -38.44451 -38.44346 -38.43530
 Alpha  occ. eigenvalues --  -38.43282 -38.43241  -2.21691  -2.20849  -2.20276
 Alpha  occ. eigenvalues --   -2.20194  -2.19291  -2.19189  -2.19145  -1.15357
 Alpha  occ. eigenvalues --   -1.15339  -1.15298  -1.14484  -1.14483  -1.14457
 Alpha  occ. eigenvalues --   -1.13935  -1.13926  -1.13887  -1.13874  -1.13866
 Alpha  occ. eigenvalues --   -1.13853  -1.12988  -1.12960  -1.12953  -1.12899
 Alpha  occ. eigenvalues --   -1.12870  -1.12835  -1.12824  -1.12809  -1.12732
 Alpha  occ. eigenvalues --   -0.17320  -0.14234  -0.11854  -0.11225
 Alpha virt. eigenvalues --   -0.06894  -0.05627  -0.04453  -0.03506  -0.02967
 Alpha virt. eigenvalues --   -0.02722  -0.01836  -0.01455  -0.01401  -0.01125
 Alpha virt. eigenvalues --   -0.00250  -0.00059   0.00039   0.00292   0.00558

  Beta  occ. eigenvalues --  -38.45821 -38.44951 -38.44397 -38.44346 -38.43560
  Beta  occ. eigenvalues --  -38.43276 -38.43233  -2.21575  -2.20643  -2.20200
  Beta  occ. eigenvalues --   -2.20174  -2.19348  -2.19181  -2.19133  -1.15278
  Beta  occ. eigenvalues --   -1.15258  -1.15216  -1.14345  -1.14342  -1.14320
  Beta  occ. eigenvalues --   -1.13885  -1.13876  -1.13863  -1.13857  -1.13822
  Beta  occ. eigenvalues --   -1.13809  -1.13023  -1.12999  -1.12989  -1.12900
  Beta  occ. eigenvalues --   -1.12869  -1.12819  -1.12798  -1.12774  -1.12738
  Beta  occ. eigenvalues --   -0.16746  -0.13589  -0.11062
  Beta virt. eigenvalues --   -0.08268  -0.06512  -0.05284  -0.04075  -0.03292
  Beta virt. eigenvalues --   -0.02610  -0.02392  -0.01426  -0.01268  -0.01091
  Beta virt. eigenvalues --   -0.00720  -0.00143   0.00021   0.00143   0.00394

 Mulliken charges and spin densities:
               1          2
     1  Na  -0.409421  -0.105228
     2  Na   0.629704   0.268567
     3  Na  -0.291779   0.236511
     4  Na   0.118651  -0.088621
     5  Na   0.443516   0.347679
     6  Na  -0.567094   0.061836
     7  Na   0.076422   0.279256
 Sum of Mulliken charges =  -0.00000   1.00000

 Dipole moment (field-independent basis, Debye):
    X=              0.8195    Y=              0.0989    Z=             -0.8425  Tot=              1.1795
 Quadrupole moment (field-independent basis, Debye-Ang):
   XX=            -60.6151   YY=            -68.2803   ZZ=            -71.2250
   XY=             -6.1448   XZ=              3.3254   YZ=              1.6868

 Normal termination of Gaussian 16 at Tue Nov 28 22:14:21 2023.
