 Gaussian 16, Revision B.01,
 Gaussian 16:  ES64L-G16RevB.01 20-Dec-2017

 -------------------------
 #P B3LYP/6-311+g(d) force
 -------------------------

 -----
 DPGEN
 -----
 Symbolic Z-matrix:
 Charge =  0 Multiplicity = 2

                         Standard orientation:
 ---------------------------------------------------------------------
 Center     Atomic      Atomic             Coordinates (Angstroms)
 Number     Number       Type             X           Y           Z
 ---------------------------------------------------------------------
      1         11           0        1.077768   -0.033024    1.906934
      2         11           0       -2.036618   -0.545255    2.305279
      3         11           0        0.202621   -1.247074   -0.762009
      4         11           0       -1.550904    1.985520   -0.234234
      5         11           0        3.512461   -1.767841   -0.507679
      6         11           0        1.797582    2.769366   -0.816310
      7         11           0       -3.002911   -1.161692   -1.891981
 ---------------------------------------------------------------------

 SCF Done:  E(UB3LYP) =  -1136.12206799     A.U. after   26 cycles

 The electronic state is 2-A.
 Alpha  occ. eigenvalues --  -38.45087 -38.44533 -38.44280 -38.43790 -38.43428
 Alpha  occ. eigenvalues --  -38.43404 -38.43223  -2.20938  -2.20435  -2.20080
 Alpha  occ. eigenvalues --   -2.19571  -2.19261  -2.19180  -2.19144  -1.14637
 Alpha  occ. eigenvalues --   -1.14574  -1.14529  -1.14181  -1.14065  -1.14021
 Alpha  occ. eigenvalues --   -1.13749  -1.13729  -1.13692  -1.13250  -1.13228
 Alpha  occ. eigenvalues --   -1.13202  -1.12964  -1.12942  -1.12888  -1.12877
 Alpha  occ. eigenvalues --   -1.12853  -1.12822  -1.12806  -1.12803  -1.12729
 Alpha  occ. eigenvalues --   -0.18059  -0.12814  -0.12315  -0.11333
 Alpha virt. eigenvalues --   -0.05763  -0.05299  -0.04746  -0.03350  -0.02953
 Alpha virt. eigenvalues --   -0.02564  -0.01881  -0.01183  -0.00970   0.00045
 Alpha virt. eigenvalues --    0.00083   0.00201   0.00323   0.00464   0.00674

  Beta  occ. eigenvalues --  -38.45003 -38.44481 -38.44229 -38.43791 -38.43417
  Beta  occ. eigenvalues --  -38.43388 -38.43209  -2.20787  -2.20345  -2.19986
  Beta  occ. eigenvalues --   -2.19572  -2.19244  -2.19151  -2.19121  -1.14515
  Beta  occ. eigenvalues --   -1.14475  -1.14424  -1.14127  -1.13975  -1.13953
  Beta  occ. eigenvalues --   -1.13679  -1.13663  -1.13634  -1.13248  -1.13229
  Beta  occ. eigenvalues --   -1.13203  -1.12948  -1.12918  -1.12867  -1.12855
  Beta  occ. eigenvalues --   -1.12833  -1.12803  -1.12788  -1.12785  -1.12715
  Beta  occ. eigenvalues --   -0.17277  -0.12595  -0.11051
  Beta virt. eigenvalues --   -0.08314  -0.05592  -0.04982  -0.04315  -0.02954
  Beta virt. eigenvalues --   -0.02417  -0.02084  -0.01697  -0.00925  -0.00663
  Beta virt. eigenvalues --    0.00122   0.00208   0.00323   0.00365   0.00635

 Mulliken charges and spin densities:
               1          2
     1  Na   0.270442   0.238919
     2  Na   0.240062   0.184108
     3  Na  -2.341187   0.346663
     4  Na  -0.074058   0.294812
     5  Na   0.744661   0.023771
     6  Na  -0.024773  -0.024797
     7  Na   1.184852  -0.063477
 Sum of Mulliken charges =  -0.00000   1.00000

 Dipole moment (field-independent basis, Debye):
    X=             -0.4200    Y=             -0.2561    Z=              0.3804  Tot=              0.6218
 Quadrupole moment (field-independent basis, Debye-Ang):
   XX=            -53.5240   YY=            -76.2754   ZZ=            -63.8139
   XY=              0.7844   XZ=             -1.6830   YZ=             -0.8996

 Normal termination of Gaussian 16 at Wed Nov 29 01:23:53 2023.
