 Gaussian 16, Revision B.01,
 Gaussian 16:  ES64L-G16RevB.01 20-Dec-2017

 -------------------------
 #P B3LYP/6-311+g(d) force
 -------------------------

 -----
 DPGEN
 -----
 Symbolic Z-matrix:
 Charge =  0 Multiplicity = 2

                         Standard orientation:
 ---------------------------------------------------------------------
 Center     Atomic      Atomic             Coordinates (Angstroms)
 Number     Number       Type             X           Y           Z
 ---------------------------------------------------------------------
      1         11           0        2.904548   -1.316194    0.618605
      2         11           0        5.952430   -1.208450   -0.359575
      3         11           0        3.646286    1.790048    0.063547
      4         11           0        0.114260    2.089606   -0.045877
      5         11           0       -0.589982   -0.812774   -0.411953
      6         11           0       -4.354042   -0.117488    0.274725
      7         11           0       -7.673500   -0.424749   -0.139471
 ---------------------------------------------------------------------

 SCF Done:  E(UB3LYP) =  -1136.11467539     A.U. after   21 cycles

 The electronic state is 2-A.
 Alpha  occ. eigenvalues --  -38.44902 -38.44894 -38.44756 -38.44589 -38.44001
 Alpha  occ. eigenvalues --  -38.43802 -38.43613  -2.20768  -2.20693  -2.20607
 Alpha  occ. eigenvalues --   -2.20430  -2.19861  -2.19565  -2.19375  -1.14479
 Alpha  occ. eigenvalues --   -1.14456  -1.14423  -1.14353  -1.14342  -1.14286
 Alpha  occ. eigenvalues --   -1.14278  -1.14266  -1.14186  -1.14140  -1.14091
 Alpha  occ. eigenvalues --   -1.14057  -1.13519  -1.13506  -1.13482  -1.13226
 Alpha  occ. eigenvalues --   -1.13226  -1.13206  -1.13063  -1.13060  -1.12983
 Alpha  occ. eigenvalues --   -0.17171  -0.13899  -0.12164  -0.11119
 Alpha virt. eigenvalues --   -0.07085  -0.05432  -0.04769  -0.03527  -0.03201
 Alpha virt. eigenvalues --   -0.02686  -0.01963  -0.01598  -0.01383  -0.00850
 Alpha virt. eigenvalues --   -0.00575  -0.00116  -0.00012   0.00365   0.00488

  Beta  occ. eigenvalues --  -38.44887 -38.44872 -38.44678 -38.44567 -38.43960
  Beta  occ. eigenvalues --  -38.43785 -38.43617  -2.20714  -2.20680  -2.20464
  Beta  occ. eigenvalues --   -2.20393  -2.19785  -2.19534  -2.19386  -1.14430
  Beta  occ. eigenvalues --   -1.14419  -1.14391  -1.14345  -1.14325  -1.14262
  Beta  occ. eigenvalues --   -1.14190  -1.14174  -1.14111  -1.14073  -1.14069
  Beta  occ. eigenvalues --   -1.14005  -1.13469  -1.13454  -1.13429  -1.13205
  Beta  occ. eigenvalues --   -1.13204  -1.13187  -1.13070  -1.13068  -1.12979
  Beta  occ. eigenvalues --   -0.16492  -0.13769  -0.11783
  Beta virt. eigenvalues --   -0.07556  -0.06727  -0.05015  -0.04484  -0.03281
  Beta virt. eigenvalues --   -0.02656  -0.02404  -0.01686  -0.01491  -0.01323
  Beta virt. eigenvalues --   -0.00469  -0.00192   0.00046   0.00150   0.00472

 Mulliken charges and spin densities:
               1          2
     1  Na  -0.385687   0.237538
     2  Na   0.639687  -0.001778
     3  Na   0.207137   0.191349
     4  Na  -0.115005   0.297631
     5  Na  -0.445007   0.232662
     6  Na  -0.352693   0.010721
     7  Na   0.451567   0.031876
 Sum of Mulliken charges =  -0.00000   1.00000

 Dipole moment (field-independent basis, Debye):
    X=              3.0838    Y=              0.0103    Z=             -0.2830  Tot=              3.0968
 Quadrupole moment (field-independent basis, Debye-Ang):
   XX=            -53.5921   YY=            -69.8307   ZZ=            -72.6657
   XY=             -3.2993   XZ=             -1.1820   YZ=              0.4334

 Normal termination of Gaussian 16 at Wed Nov 29 03:47:15 2023.
