 Gaussian 16, Revision B.01,
 Gaussian 16:  ES64L-G16RevB.01 20-Dec-2017

 -------------------------
 #P B3LYP/6-311+g(d) force
 -------------------------

 -----
 DPGEN
 -----
 Symbolic Z-matrix:
 Charge =  0 Multiplicity = 2

                         Standard orientation:
 ---------------------------------------------------------------------
 Center     Atomic      Atomic             Coordinates (Angstroms)
 Number     Number       Type             X           Y           Z
 ---------------------------------------------------------------------
      1         11           0       -2.163451    0.707796    0.157279
      2         11           0       -7.770844   -1.690507   -0.601862
      3         11           0       -5.442493   -0.460473    0.894499
      4         11           0       -0.082850    2.728785   -0.552212
      5         11           0        3.432048    1.901831    0.336404
      6         11           0        7.449999   -2.026814    0.140279
      7         11           0        4.577592   -1.160618   -0.374387
 ---------------------------------------------------------------------

 SCF Done:  E(UB3LYP) =  -1136.10645575     A.U. after   18 cycles

 The electronic state is 2-A.
 Alpha  occ. eigenvalues --  -38.44876 -38.44832 -38.44588 -38.44348 -38.44169
 Alpha  occ. eigenvalues --  -38.44152 -38.43858  -2.20682  -2.20647  -2.20397
 Alpha  occ. eigenvalues --   -2.20154  -2.20012  -2.19981  -2.19673  -1.14339
 Alpha  occ. eigenvalues --   -1.14331  -1.14321  -1.14287  -1.14280  -1.14276
 Alpha  occ. eigenvalues --   -1.14076  -1.14034  -1.14032  -1.13938  -1.13818
 Alpha  occ. eigenvalues --   -1.13795  -1.13650  -1.13650  -1.13646  -1.13641
 Alpha  occ. eigenvalues --   -1.13639  -1.13603  -1.13339  -1.13332  -1.13328
 Alpha  occ. eigenvalues --   -0.15470  -0.14463  -0.13062  -0.11210
 Alpha virt. eigenvalues --   -0.06976  -0.05277  -0.03798  -0.03467  -0.03287
 Alpha virt. eigenvalues --   -0.02621  -0.02359  -0.02280  -0.01359  -0.00947
 Alpha virt. eigenvalues --   -0.00737  -0.00436  -0.00045   0.00400   0.00495

  Beta  occ. eigenvalues --  -38.44788 -38.44766 -38.44543 -38.44366 -38.44158
  Beta  occ. eigenvalues --  -38.44112 -38.43865  -2.20524  -2.20518  -2.20313
  Beta  occ. eigenvalues --   -2.20192  -2.19998  -2.19906  -2.19691  -1.14244
  Beta  occ. eigenvalues --   -1.14227  -1.14218  -1.14196  -1.14192  -1.14181
  Beta  occ. eigenvalues --   -1.14023  -1.13976  -1.13975  -1.13931  -1.13849
  Beta  occ. eigenvalues --   -1.13808  -1.13659  -1.13657  -1.13612  -1.13578
  Beta  occ. eigenvalues --   -1.13573  -1.13556  -1.13349  -1.13349  -1.13312
  Beta  occ. eigenvalues --   -0.14838  -0.13865  -0.12555
  Beta virt. eigenvalues --   -0.08153  -0.06422  -0.04808  -0.03610  -0.03260
  Beta virt. eigenvalues --   -0.03048  -0.02439  -0.02141  -0.02092  -0.01090
  Beta virt. eigenvalues --   -0.00509  -0.00425  -0.00235   0.00135   0.00439

 Mulliken charges and spin densities:
               1          2
     1  Na  -0.442457   0.199590
     2  Na   0.320033   0.205434
     3  Na  -0.864970  -0.072419
     4  Na   0.782598  -0.011066
     5  Na   0.023408   0.367258
     6  Na   0.554778   0.224657
     7  Na  -0.373390   0.086547
 Sum of Mulliken charges =  -0.00000   1.00000

 Dipole moment (field-independent basis, Debye):
    X=              0.8999    Y=             -0.2158    Z=             -0.1775  Tot=              0.9423
 Quadrupole moment (field-independent basis, Debye-Ang):
   XX=            -50.0926   YY=            -66.7672   ZZ=            -71.5166
   XY=              3.0386   XZ=              6.3590   YZ=              1.0154

 Normal termination of Gaussian 16 at Sun Dec  3 23:49:41 2023.
