 Gaussian 16, Revision B.01,
 Gaussian 16:  ES64L-G16RevB.01 20-Dec-2017

 -------------------------
 #P B3LYP/6-311+g(d) force
 -------------------------

 -----
 DPGEN
 -----
 Symbolic Z-matrix:
 Charge =  0 Multiplicity = 2

                         Standard orientation:
 ---------------------------------------------------------------------
 Center     Atomic      Atomic             Coordinates (Angstroms)
 Number     Number       Type             X           Y           Z
 ---------------------------------------------------------------------
      1         11           0       -2.183923   -2.177365   -0.263661
      2         11           0        1.259493   -2.809502   -0.194684
      3         11           0        0.134363   -0.202536    2.262119
      4         11           0        0.318761    0.028054   -1.425978
      5         11           0        0.382043    3.097090   -0.120450
      6         11           0       -3.054696    1.431205   -0.108910
      7         11           0        3.143959    0.633053   -0.148437
 ---------------------------------------------------------------------

 SCF Done:  E(UB3LYP) =  -1136.13530772     A.U. after   19 cycles

 The electronic state is 2-A.
 Alpha  occ. eigenvalues --  -38.44044 -38.43970 -38.43962 -38.43816 -38.43745
 Alpha  occ. eigenvalues --  -38.43703 -38.43068  -2.19870  -2.19767  -2.19736
 Alpha  occ. eigenvalues --   -2.19630  -2.19587  -2.19542  -2.19058  -1.13576
 Alpha  occ. eigenvalues --   -1.13525  -1.13498  -1.13460  -1.13432  -1.13414
 Alpha  occ. eigenvalues --   -1.13395  -1.13392  -1.13374  -1.13317  -1.13301
 Alpha  occ. eigenvalues --   -1.13283  -1.13266  -1.13245  -1.13204  -1.13194
 Alpha  occ. eigenvalues --   -1.13161  -1.13160  -1.12747  -1.12695  -1.12690
 Alpha  occ. eigenvalues --   -0.18178  -0.12748  -0.12480  -0.10538
 Alpha virt. eigenvalues --   -0.05646  -0.05397  -0.05078  -0.02937  -0.02775
 Alpha virt. eigenvalues --   -0.02591  -0.01495  -0.01365  -0.00751  -0.00646
 Alpha virt. eigenvalues --   -0.00026   0.00320   0.00789   0.00801   0.00824

  Beta  occ. eigenvalues --  -38.44039 -38.43972 -38.43959 -38.43811 -38.43739
  Beta  occ. eigenvalues --  -38.43589 -38.43023  -2.19865  -2.19764  -2.19741
  Beta  occ. eigenvalues --   -2.19623  -2.19579  -2.19331  -2.18977  -1.13567
  Beta  occ. eigenvalues --   -1.13506  -1.13497  -1.13453  -1.13419  -1.13406
  Beta  occ. eigenvalues --   -1.13398  -1.13396  -1.13377  -1.13310  -1.13282
  Beta  occ. eigenvalues --   -1.13275  -1.13261  -1.13218  -1.13203  -1.13053
  Beta  occ. eigenvalues --   -1.13013  -1.13013  -1.12686  -1.12634  -1.12630
  Beta  occ. eigenvalues --   -0.17484  -0.12541  -0.12309
  Beta virt. eigenvalues --   -0.06535  -0.05653  -0.05406  -0.04971  -0.02188
  Beta virt. eigenvalues --   -0.02082  -0.01474  -0.01415  -0.01285  -0.00790
  Beta virt. eigenvalues --   -0.00701   0.00153   0.00372   0.00803   0.00827

 Mulliken charges and spin densities:
               1          2
     1  Na   0.095655  -0.002327
     2  Na   0.362089   0.029908
     3  Na  -0.594302   0.822521
     4  Na  -0.263753   0.197011
     5  Na   0.096126  -0.021490
     6  Na  -0.029399  -0.033552
     7  Na   0.333584   0.007928
 Sum of Mulliken charges =  -0.00000   1.00000

 Dipole moment (field-independent basis, Debye):
    X=              0.1807    Y=              0.0657    Z=              0.1060  Tot=              0.2195
 Quadrupole moment (field-independent basis, Debye-Ang):
   XX=            -57.4194   YY=            -59.1334   ZZ=            -76.3538
   XY=             -0.0189   XZ=              0.2577   YZ=              0.5885

 Normal termination of Gaussian 16 at Thu Dec  7 02:56:45 2023.
