 Gaussian 16, Revision B.01,
 Gaussian 16:  ES64L-G16RevB.01 20-Dec-2017

 -------------------------
 #P B3LYP/6-311+g(d) force
 -------------------------

 -----
 DPGEN
 -----
 Symbolic Z-matrix:
 Charge =  0 Multiplicity = 2

                         Standard orientation:
 ---------------------------------------------------------------------
 Center     Atomic      Atomic             Coordinates (Angstroms)
 Number     Number       Type             X           Y           Z
 ---------------------------------------------------------------------
      1         11           0        2.057096    1.994311   -0.254462
      2         11           0        3.030618   -1.177718    0.021615
      3         11           0       -0.160415   -2.637318    0.133393
      4         11           0       -0.230058   -0.082561   -1.578012
      5         11           0       -3.180981   -0.824765   -0.075992
      6         11           0       -0.021914    0.324468    1.694379
      7         11           0       -1.494347    2.403583    0.059080
 ---------------------------------------------------------------------

 SCF Done:  E(UB3LYP) =  -1136.13484712     A.U. after   20 cycles

 The electronic state is 2-A.
 Alpha  occ. eigenvalues --  -38.44343 -38.44062 -38.43516 -38.43351 -38.43136
 Alpha  occ. eigenvalues --  -38.42939 -38.42937  -2.20173  -2.19892  -2.19408
 Alpha  occ. eigenvalues --   -2.19266  -2.19042  -2.18983  -2.18961  -1.13847
 Alpha  occ. eigenvalues --   -1.13823  -1.13818  -1.13563  -1.13555  -1.13539
 Alpha  occ. eigenvalues --   -1.13104  -1.13079  -1.13040  -1.13013  -1.12945
 Alpha  occ. eigenvalues --   -1.12865  -1.12837  -1.12728  -1.12679  -1.12643
 Alpha  occ. eigenvalues --   -1.12608  -1.12583  -1.12573  -1.12567  -1.12556
 Alpha  occ. eigenvalues --   -0.19209  -0.13302  -0.12558  -0.10399
 Alpha virt. eigenvalues --   -0.05945  -0.05197  -0.04391  -0.03032  -0.02696
 Alpha virt. eigenvalues --   -0.02032  -0.01879  -0.01150  -0.00236  -0.00186
 Alpha virt. eigenvalues --    0.00029   0.00329   0.00782   0.00884   0.00913

  Beta  occ. eigenvalues --  -38.44340 -38.44062 -38.43506 -38.43341 -38.43126
  Beta  occ. eigenvalues --  -38.42868 -38.42857  -2.20169  -2.19894  -2.19394
  Beta  occ. eigenvalues --   -2.19253  -2.19029  -2.18857  -2.18812  -1.13831
  Beta  occ. eigenvalues --   -1.13821  -1.13811  -1.13568  -1.13543  -1.13535
  Beta  occ. eigenvalues --   -1.13096  -1.13040  -1.13031  -1.12998  -1.12900
  Beta  occ. eigenvalues --   -1.12862  -1.12806  -1.12680  -1.12638  -1.12603
  Beta  occ. eigenvalues --   -1.12512  -1.12504  -1.12482  -1.12464  -1.12452
  Beta  occ. eigenvalues --   -0.18488  -0.13056  -0.12274
  Beta virt. eigenvalues --   -0.06477  -0.05912  -0.05193  -0.04387  -0.02269
  Beta virt. eigenvalues --   -0.01886  -0.01798  -0.01116  -0.00997  -0.00286
  Beta virt. eigenvalues --   -0.00219   0.00163   0.00363   0.00820   0.00885

 Mulliken charges and spin densities:
               1          2
     1  Na   0.272463  -0.038101
     2  Na  -0.009285  -0.063302
     3  Na   0.135645  -0.103201
     4  Na  -0.511095   0.659116
     5  Na   0.196803  -0.080436
     6  Na  -0.441382   0.720984
     7  Na   0.356851  -0.095061
 Sum of Mulliken charges =  -0.00000   1.00000

 Dipole moment (field-independent basis, Debye):
    X=             -0.1490    Y=             -0.0762    Z=              0.0347  Tot=              0.1709
 Quadrupole moment (field-independent basis, Debye-Ang):
   XX=            -51.0772   YY=            -63.7111   ZZ=            -76.3561
   XY=             -0.1095   XZ=             -0.3444   YZ=             -0.9527

 Normal termination of Gaussian 16 at Wed Nov 29 03:49:40 2023.
