 Gaussian 16, Revision B.01,
 Gaussian 16:  ES64L-G16RevB.01 20-Dec-2017

 -------------------------
 #P B3LYP/6-311+g(d) force
 -------------------------

 -----
 DPGEN
 -----
 Symbolic Z-matrix:
 Charge =  0 Multiplicity = 2

                         Standard orientation:
 ---------------------------------------------------------------------
 Center     Atomic      Atomic             Coordinates (Angstroms)
 Number     Number       Type             X           Y           Z
 ---------------------------------------------------------------------
      1         11           0        2.444656   -1.659373    1.550582
      2         11           0       -2.574847   -1.529540   -0.685486
      3         11           0       -0.569051    3.308734    0.262121
      4         11           0        3.081252    2.060493   -0.411410
      5         11           0        0.201815   -3.116876   -0.148838
      6         11           0       -3.447869    1.050113    0.839284
      7         11           0        0.864044   -0.113550   -1.406254
 ---------------------------------------------------------------------

 SCF Done:  E(UB3LYP) =  -1136.12152347     A.U. after   20 cycles

 The electronic state is 2-A.
 Alpha  occ. eigenvalues --  -38.45045 -38.44473 -38.44053 -38.43835 -38.43822
 Alpha  occ. eigenvalues --  -38.43809 -38.43791  -2.20784  -2.20267  -2.19928
 Alpha  occ. eigenvalues --   -2.19726  -2.19672  -2.19671  -2.19600  -1.14477
 Alpha  occ. eigenvalues --   -1.14457  -1.14398  -1.13953  -1.13921  -1.13896
 Alpha  occ. eigenvalues --   -1.13616  -1.13594  -1.13559  -1.13458  -1.13424
 Alpha  occ. eigenvalues --   -1.13393  -1.13383  -1.13330  -1.13311  -1.13302
 Alpha  occ. eigenvalues --   -1.13281  -1.13268  -1.13256  -1.13231  -1.13207
 Alpha  occ. eigenvalues --   -0.17290  -0.13358  -0.13239  -0.10279
 Alpha virt. eigenvalues --   -0.06661  -0.05748  -0.04348  -0.03651  -0.03188
 Alpha virt. eigenvalues --   -0.01930  -0.01656  -0.01392  -0.01180  -0.00911
 Alpha virt. eigenvalues --   -0.00063   0.00269   0.00333   0.00559   0.00718

  Beta  occ. eigenvalues --  -38.45034 -38.44457 -38.44021 -38.43823 -38.43791
  Beta  occ. eigenvalues --  -38.43772 -38.43734  -2.20766  -2.20240  -2.19870
  Beta  occ. eigenvalues --   -2.19714  -2.19640  -2.19566  -2.19507  -1.14466
  Beta  occ. eigenvalues --   -1.14447  -1.14369  -1.13928  -1.13900  -1.13879
  Beta  occ. eigenvalues --   -1.13575  -1.13561  -1.13512  -1.13417  -1.13403
  Beta  occ. eigenvalues --   -1.13379  -1.13351  -1.13305  -1.13270  -1.13232
  Beta  occ. eigenvalues --   -1.13206  -1.13200  -1.13185  -1.13171  -1.13163
  Beta  occ. eigenvalues --   -0.16783  -0.13057  -0.12658
  Beta virt. eigenvalues --   -0.06859  -0.06598  -0.05561  -0.04046  -0.03109
  Beta virt. eigenvalues --   -0.02571  -0.01849  -0.01360  -0.01219  -0.00997
  Beta virt. eigenvalues --   -0.00733   0.00210   0.00407   0.00498   0.00602

 Mulliken charges and spin densities:
               1          2
     1  Na  -0.375720   0.409256
     2  Na  -0.259841  -0.015092
     3  Na  -0.303544   0.065777
     4  Na   0.404142   0.055987
     5  Na   0.394068   0.126182
     6  Na   0.115136   0.187092
     7  Na   0.025758   0.170798
 Sum of Mulliken charges =  -0.00000   1.00000

 Dipole moment (field-independent basis, Debye):
    X=              0.5840    Y=              0.6495    Z=              0.0162  Tot=              0.8736
 Quadrupole moment (field-independent basis, Debye-Ang):
   XX=            -62.7343   YY=            -63.2717   ZZ=            -72.8869
   XY=              6.7836   XZ=             -0.0798   YZ=              2.1240

 Normal termination of Gaussian 16 at Sun Dec  3 19:26:04 2023.
