 Gaussian 16, Revision B.01,
 Gaussian 16:  ES64L-G16RevB.01 20-Dec-2017

 -------------------------
 #P B3LYP/6-311+g(d) force
 -------------------------

 -----
 DPGEN
 -----
 Symbolic Z-matrix:
 Charge =  0 Multiplicity = 2

                         Standard orientation:
 ---------------------------------------------------------------------
 Center     Atomic      Atomic             Coordinates (Angstroms)
 Number     Number       Type             X           Y           Z
 ---------------------------------------------------------------------
      1         11           0        2.836016    2.263970   -0.337019
      2         11           0       -0.321897    3.206280   -0.430805
      3         11           0        2.016854   -2.254652    0.480474
      4         11           0        4.853731   -0.827430    0.259463
      5         11           0       -3.656843    1.667090    0.862878
      6         11           0       -4.425999   -1.277717   -0.210322
      7         11           0       -1.301862   -2.777540   -0.624669
 ---------------------------------------------------------------------

 SCF Done:  E(UB3LYP) =  -1136.11230530     A.U. after   22 cycles

 The electronic state is 2-A.
 Alpha  occ. eigenvalues --  -38.45066 -38.44989 -38.44771 -38.44657 -38.44020
 Alpha  occ. eigenvalues --  -38.44002 -38.43611  -2.20851  -2.20767  -2.20571
 Alpha  occ. eigenvalues --   -2.20454  -2.19853  -2.19800  -2.19393  -1.14523
 Alpha  occ. eigenvalues --   -1.14515  -1.14485  -1.14448  -1.14442  -1.14386
 Alpha  occ. eigenvalues --   -1.14238  -1.14226  -1.14216  -1.14138  -1.14130
 Alpha  occ. eigenvalues --   -1.14105  -1.13505  -1.13493  -1.13474  -1.13459
 Alpha  occ. eigenvalues --   -1.13455  -1.13423  -1.13062  -1.13060  -1.13032
 Alpha  occ. eigenvalues --   -0.15834  -0.14361  -0.12970  -0.11032
 Alpha virt. eigenvalues --   -0.07437  -0.04812  -0.04317  -0.03706  -0.03552
 Alpha virt. eigenvalues --   -0.02576  -0.02128  -0.01499  -0.00945  -0.00916
 Alpha virt. eigenvalues --   -0.00714  -0.00226   0.00046   0.00529   0.00680

  Beta  occ. eigenvalues --  -38.45028 -38.44960 -38.44765 -38.44638 -38.43960
  Beta  occ. eigenvalues --  -38.43942 -38.43593  -2.20784  -2.20718  -2.20563
  Beta  occ. eigenvalues --   -2.20426  -2.19741  -2.19692  -2.19362  -1.14475
  Beta  occ. eigenvalues --   -1.14472  -1.14435  -1.14419  -1.14408  -1.14326
  Beta  occ. eigenvalues --   -1.14236  -1.14225  -1.14187  -1.14124  -1.14111
  Beta  occ. eigenvalues --   -1.14041  -1.13430  -1.13416  -1.13400  -1.13386
  Beta  occ. eigenvalues --   -1.13380  -1.13347  -1.13041  -1.13039  -1.13000
  Beta  occ. eigenvalues --   -0.15254  -0.13749  -0.12204
  Beta virt. eigenvalues --   -0.07820  -0.07547  -0.04330  -0.03854  -0.03508
  Beta virt. eigenvalues --   -0.03187  -0.02358  -0.02021  -0.01305  -0.00702
  Beta virt. eigenvalues --   -0.00535  -0.00500  -0.00082   0.00269   0.00568

 Mulliken charges and spin densities:
               1          2
     1  Na   0.010733   0.175516
     2  Na  -0.213675  -0.002272
     3  Na  -0.692535   0.112613
     4  Na   0.747465   0.295529
     5  Na  -0.051407   0.155845
     6  Na   0.414389   0.115493
     7  Na  -0.214971   0.147277
 Sum of Mulliken charges =  -0.00000   1.00000

 Dipole moment (field-independent basis, Debye):
    X=             -0.2523    Y=             -0.0411    Z=              0.1206  Tot=              0.2826
 Quadrupole moment (field-independent basis, Debye-Ang):
   XX=            -54.7290   YY=            -71.0377   ZZ=            -72.1093
   XY=              2.5085   XZ=             -0.0536   YZ=              1.0949

 Normal termination of Gaussian 16 at Sun Dec  3 18:44:05 2023.
