 Gaussian 16, Revision B.01,
 Gaussian 16:  ES64L-G16RevB.01 20-Dec-2017

 -------------------------
 #P B3LYP/6-311+g(d) force
 -------------------------

 -----
 DPGEN
 -----
 Symbolic Z-matrix:
 Charge =  0 Multiplicity = 2

                         Standard orientation:
 ---------------------------------------------------------------------
 Center     Atomic      Atomic             Coordinates (Angstroms)
 Number     Number       Type             X           Y           Z
 ---------------------------------------------------------------------
      1         11           0        1.486393    2.032761    0.191440
      2         11           0       -0.078129   -1.070740   -1.469774
      3         11           0        4.584436    1.047452   -0.378317
      4         11           0        2.755692   -1.889051    0.007786
      5         11           0       -0.195998   -0.784762    1.877102
      6         11           0       -2.979974    0.326604    0.158002
      7         11           0       -5.572421    0.337737   -0.386238
 ---------------------------------------------------------------------

 SCF Done:  E(UB3LYP) =  -1136.10758154     A.U. after   23 cycles

 The electronic state is 2-A.
 Alpha  occ. eigenvalues --  -38.45782 -38.45005 -38.44592 -38.44518 -38.43404
 Alpha  occ. eigenvalues --  -38.43222 -38.43186  -2.21634  -2.20864  -2.20459
 Alpha  occ. eigenvalues --   -2.20359  -2.19293  -2.19120  -2.19034  -1.15304
 Alpha  occ. eigenvalues --   -1.15292  -1.15260  -1.14545  -1.14515  -1.14488
 Alpha  occ. eigenvalues --   -1.14147  -1.14103  -1.14055  -1.14047  -1.14001
 Alpha  occ. eigenvalues --   -1.13961  -1.13338  -1.12899  -1.12895  -1.12761
 Alpha  occ. eigenvalues --   -1.12737  -1.12703  -1.12695  -1.12687  -1.12589
 Alpha  occ. eigenvalues --   -0.18194  -0.14045  -0.11660  -0.11189
 Alpha virt. eigenvalues --   -0.07611  -0.05412  -0.04230  -0.03358  -0.03204
 Alpha virt. eigenvalues --   -0.02347  -0.02049  -0.01713  -0.01449  -0.00826
 Alpha virt. eigenvalues --   -0.00110   0.00052   0.00271   0.00587   0.00668

  Beta  occ. eigenvalues --  -38.45759 -38.44985 -38.44526 -38.44450 -38.43380
  Beta  occ. eigenvalues --  -38.43226 -38.43183  -2.21594  -2.20831  -2.20337
  Beta  occ. eigenvalues --   -2.20234  -2.19250  -2.19116  -2.19044  -1.15277
  Beta  occ. eigenvalues --   -1.15249  -1.15225  -1.14527  -1.14477  -1.14454
  Beta  occ. eigenvalues --   -1.14057  -1.14025  -1.13968  -1.13961  -1.13921
  Beta  occ. eigenvalues --   -1.13865  -1.13307  -1.12874  -1.12868  -1.12758
  Beta  occ. eigenvalues --   -1.12735  -1.12710  -1.12697  -1.12688  -1.12559
  Beta  occ. eigenvalues --   -0.17506  -0.13734  -0.11214
  Beta virt. eigenvalues --   -0.07663  -0.07382  -0.05148  -0.03698  -0.03064
  Beta virt. eigenvalues --   -0.02713  -0.02058  -0.01755  -0.01523  -0.01123
  Beta virt. eigenvalues --   -0.00593  -0.00059   0.00198   0.00355   0.00670

 Mulliken charges and spin densities:
               1          2
     1  Na  -0.265587   0.278237
     2  Na   0.414243  -0.004082
     3  Na   0.200179  -0.061749
     4  Na   0.029658   0.412412
     5  Na   0.744437  -0.012294
     6  Na  -0.778886   0.287958
     7  Na  -0.344044   0.099518
 Sum of Mulliken charges =  -0.00000   1.00000

 Dipole moment (field-independent basis, Debye):
    X=              1.2133    Y=             -0.9961    Z=              0.3422  Tot=              1.6067
 Quadrupole moment (field-independent basis, Debye-Ang):
   XX=            -75.7524   YY=            -73.1162   ZZ=            -62.4050
   XY=             -2.0420   XZ=              1.5878   YZ=             -2.8355

 Normal termination of Gaussian 16 at Thu Dec  7 15:50:58 2023.
