 Gaussian 16, Revision B.01,
 Gaussian 16:  ES64L-G16RevB.01 20-Dec-2017

 -------------------------
 #P B3LYP/6-311+g(d) force
 -------------------------

 -----
 DPGEN
 -----
 Symbolic Z-matrix:
 Charge =  0 Multiplicity = 2

                         Standard orientation:
 ---------------------------------------------------------------------
 Center     Atomic      Atomic             Coordinates (Angstroms)
 Number     Number       Type             X           Y           Z
 ---------------------------------------------------------------------
      1         11           0        2.515923    2.207407   -0.281790
      2         11           0       -2.868641   -1.902889   -0.190606
      3         11           0        0.636889   -1.687857   -1.057599
      4         11           0        0.329335   -0.000808    1.818759
      5         11           0       -0.893051    1.532683   -1.153926
      6         11           0       -3.419490    1.126487    0.561072
      7         11           0        3.699035   -1.275023    0.304090
 ---------------------------------------------------------------------

 SCF Done:  E(UB3LYP) =  -1136.11718828     A.U. after   28 cycles

 The electronic state is 2-A.
 Alpha  occ. eigenvalues --  -38.45721 -38.44807 -38.44441 -38.44402 -38.44170
 Alpha  occ. eigenvalues --  -38.42912 -38.42811  -2.21531  -2.20603  -2.20314
 Alpha  occ. eigenvalues --   -2.20219  -2.19953  -2.18824  -2.18703  -1.15250
 Alpha  occ. eigenvalues --   -1.15173  -1.15139  -1.14278  -1.14257  -1.14232
 Alpha  occ. eigenvalues --   -1.14017  -1.13998  -1.13944  -1.13884  -1.13862
 Alpha  occ. eigenvalues --   -1.13840  -1.13634  -1.13606  -1.13601  -1.12513
 Alpha  occ. eigenvalues --   -1.12500  -1.12431  -1.12406  -1.12342  -1.12320
 Alpha  occ. eigenvalues --   -0.18226  -0.14212  -0.11280  -0.10265
 Alpha virt. eigenvalues --   -0.07337  -0.06199  -0.03938  -0.03226  -0.02992
 Alpha virt. eigenvalues --   -0.02434  -0.01934  -0.01751  -0.00738  -0.00594
 Alpha virt. eigenvalues --    0.00009   0.00123   0.00337   0.00537   0.00584

  Beta  occ. eigenvalues --  -38.45693 -38.44790 -38.44410 -38.44394 -38.44169
  Beta  occ. eigenvalues --  -38.42870 -38.42764  -2.21478  -2.20572  -2.20255
  Beta  occ. eigenvalues --   -2.20208  -2.19956  -2.18750  -2.18619  -1.15200
  Beta  occ. eigenvalues --   -1.15141  -1.15098  -1.14251  -1.14237  -1.14210
  Beta  occ. eigenvalues --   -1.13989  -1.13954  -1.13902  -1.13876  -1.13841
  Beta  occ. eigenvalues --   -1.13814  -1.13634  -1.13608  -1.13589  -1.12462
  Beta  occ. eigenvalues --   -1.12428  -1.12379  -1.12352  -1.12272  -1.12251
  Beta  occ. eigenvalues --   -0.17592  -0.13896  -0.11042
  Beta virt. eigenvalues --   -0.07071  -0.06647  -0.06211  -0.03284  -0.03070
  Beta virt. eigenvalues --   -0.02758  -0.01891  -0.01718  -0.01235  -0.00696
  Beta virt. eigenvalues --   -0.00203   0.00074   0.00131   0.00475   0.00631

 Mulliken charges and spin densities:
               1          2
     1  Na  -0.076246  -0.047503
     2  Na  -0.165786  -0.009194
     3  Na  -0.336051   0.160237
     4  Na  -0.349755   0.207831
     5  Na  -0.349752   0.092187
     6  Na   0.725672   0.388977
     7  Na   0.551917   0.207465
 Sum of Mulliken charges =  -0.00000   1.00000

 Dipole moment (field-independent basis, Debye):
    X=              0.4410    Y=             -0.0480    Z=              0.2894  Tot=              0.5297
 Quadrupole moment (field-independent basis, Debye-Ang):
   XX=            -49.0402   YY=            -74.0041   ZZ=            -72.1369
   XY=              1.5307   XZ=             -0.6668   YZ=             -0.0729

 Normal termination of Gaussian 16 at Tue Dec  5 16:09:07 2023.
