 Gaussian 16, Revision B.01,
 Gaussian 16:  ES64L-G16RevB.01 20-Dec-2017

 -------------------------
 #P B3LYP/6-311+g(d) force
 -------------------------

 -----
 DPGEN
 -----
 Symbolic Z-matrix:
 Charge =  0 Multiplicity = 2

                         Standard orientation:
 ---------------------------------------------------------------------
 Center     Atomic      Atomic             Coordinates (Angstroms)
 Number     Number       Type             X           Y           Z
 ---------------------------------------------------------------------
      1         11           0       -0.105305    2.993720    0.232633
      2         11           0       -0.138850   -0.003640   -1.638817
      3         11           0       -2.872548    0.992509   -0.205291
      4         11           0       -0.145690   -0.272331    2.214166
      5         11           0        3.030978    1.088363   -0.397622
      6         11           0        1.910124   -2.292722    0.108880
      7         11           0       -1.678709   -2.505901   -0.313949
 ---------------------------------------------------------------------

 SCF Done:  E(UB3LYP) =  -1136.13944843     A.U. after   18 cycles

 The electronic state is 2-A.
 Alpha  occ. eigenvalues --  -38.43920 -38.43692 -38.43687 -38.43678 -38.43586
 Alpha  occ. eigenvalues --  -38.43582 -38.43250  -2.19775  -2.19538  -2.19510
 Alpha  occ. eigenvalues --   -2.19491  -2.19433  -2.19411  -2.19224  -1.13431
 Alpha  occ. eigenvalues --   -1.13405  -1.13395  -1.13246  -1.13197  -1.13192
 Alpha  occ. eigenvalues --   -1.13186  -1.13178  -1.13169  -1.13160  -1.13144
 Alpha  occ. eigenvalues --   -1.13137  -1.13118  -1.13088  -1.13084  -1.13078
 Alpha  occ. eigenvalues --   -1.13053  -1.13038  -1.12900  -1.12852  -1.12843
 Alpha  occ. eigenvalues --   -0.18448  -0.12732  -0.12544  -0.10926
 Alpha virt. eigenvalues --   -0.05284  -0.05234  -0.04949  -0.03162  -0.02974
 Alpha virt. eigenvalues --   -0.02796  -0.01310  -0.01210  -0.00450  -0.00346
 Alpha virt. eigenvalues --   -0.00036   0.00360   0.00833   0.00867   0.00888

  Beta  occ. eigenvalues --  -38.43816 -38.43688 -38.43682 -38.43674 -38.43583
  Beta  occ. eigenvalues --  -38.43575 -38.43191  -2.19584  -2.19532  -2.19506
  Beta  occ. eigenvalues --   -2.19484  -2.19422  -2.19407  -2.19117  -1.13306
  Beta  occ. eigenvalues --   -1.13274  -1.13258  -1.13235  -1.13188  -1.13180
  Beta  occ. eigenvalues --   -1.13171  -1.13166  -1.13156  -1.13148  -1.13140
  Beta  occ. eigenvalues --   -1.13123  -1.13115  -1.13077  -1.13069  -1.13061
  Beta  occ. eigenvalues --   -1.13045  -1.13037  -1.12829  -1.12779  -1.12761
  Beta  occ. eigenvalues --   -0.17722  -0.12515  -0.12315
  Beta virt. eigenvalues --   -0.06983  -0.05289  -0.05222  -0.04826  -0.02359
  Beta virt. eigenvalues --   -0.02258  -0.01719  -0.01225  -0.01137  -0.00482
  Beta virt. eigenvalues --   -0.00403   0.00117   0.00390   0.00862   0.00876

 Mulliken charges and spin densities:
               1          2
     1  Na   0.018537   0.017105
     2  Na  -0.103815   0.378995
     3  Na   0.207425  -0.040098
     4  Na  -0.508067   0.732225
     5  Na   0.002565  -0.034391
     6  Na   0.138692  -0.003942
     7  Na   0.244662  -0.049895
 Sum of Mulliken charges =  -0.00000   1.00000

 Dipole moment (field-independent basis, Debye):
    X=             -0.0722    Y=             -0.0636    Z=              0.1788  Tot=              0.2030
 Quadrupole moment (field-independent basis, Debye-Ang):
   XX=            -59.4893   YY=            -61.0042   ZZ=            -73.5528
   XY=              0.1423   XZ=             -0.0475   YZ=              0.5734

 Normal termination of Gaussian 16 at Fri Dec  8 04:37:51 2023.
