 Gaussian 16, Revision B.01,
 Gaussian 16:  ES64L-G16RevB.01 20-Dec-2017

 -------------------------
 #P B3LYP/6-311+g(d) force
 -------------------------

 -----
 DPGEN
 -----
 Symbolic Z-matrix:
 Charge =  0 Multiplicity = 2

                         Standard orientation:
 ---------------------------------------------------------------------
 Center     Atomic      Atomic             Coordinates (Angstroms)
 Number     Number       Type             X           Y           Z
 ---------------------------------------------------------------------
      1         11           0       -4.090841    1.413544   -0.278469
      2         11           0       -0.763972    3.333767    0.101095
      3         11           0       -0.954323   -3.254497   -0.254512
      4         11           0        2.808116   -2.542558   -0.078333
      5         11           0        2.267089    2.826345   -0.089179
      6         11           0       -4.054193   -1.635596    0.424400
      7         11           0        4.788124   -0.141006    0.174999
 ---------------------------------------------------------------------

 SCF Done:  E(UB3LYP) =  -1136.10853738     A.U. after   20 cycles

 The electronic state is 2-A.
 Alpha  occ. eigenvalues --  -38.44904 -38.44814 -38.44808 -38.44693 -38.44293
 Alpha  occ. eigenvalues --  -38.44289 -38.44023  -2.20682  -2.20625  -2.20605
 Alpha  occ. eigenvalues --   -2.20491  -2.20114  -2.20074  -2.19824  -1.14376
 Alpha  occ. eigenvalues --   -1.14364  -1.14359  -1.14344  -1.14284  -1.14269
 Alpha  occ. eigenvalues --   -1.14260  -1.14246  -1.14194  -1.14183  -1.14152
 Alpha  occ. eigenvalues --   -1.14122  -1.13763  -1.13756  -1.13741  -1.13728
 Alpha  occ. eigenvalues --   -1.13720  -1.13690  -1.13493  -1.13482  -1.13462
 Alpha  occ. eigenvalues --   -0.15623  -0.14286  -0.13370  -0.11119
 Alpha virt. eigenvalues --   -0.07650  -0.04652  -0.04487  -0.03665  -0.03561
 Alpha virt. eigenvalues --   -0.02664  -0.02080  -0.01934  -0.01161  -0.00760
 Alpha virt. eigenvalues --   -0.00455  -0.00290   0.00019   0.00451   0.00537

  Beta  occ. eigenvalues --  -38.44900 -38.44808 -38.44759 -38.44666 -38.44241
  Beta  occ. eigenvalues --  -38.44209 -38.44008  -2.20681  -2.20613  -2.20523
  Beta  occ. eigenvalues --   -2.20444  -2.20018  -2.19924  -2.19801  -1.14365
  Beta  occ. eigenvalues --   -1.14360  -1.14336  -1.14305  -1.14286  -1.14254
  Beta  occ. eigenvalues --   -1.14203  -1.14187  -1.14142  -1.14140  -1.14124
  Beta  occ. eigenvalues --   -1.14081  -1.13698  -1.13690  -1.13677  -1.13626
  Beta  occ. eigenvalues --   -1.13619  -1.13592  -1.13472  -1.13469  -1.13433
  Beta  occ. eigenvalues --   -0.15064  -0.13632  -0.12564
  Beta virt. eigenvalues --   -0.07993  -0.07736  -0.04101  -0.04020  -0.03472
  Beta virt. eigenvalues --   -0.03217  -0.02485  -0.01923  -0.01804  -0.01004
  Beta virt. eigenvalues --   -0.00414  -0.00163   0.00087   0.00214   0.00425

 Mulliken charges and spin densities:
               1          2
     1  Na  -0.127988   0.285080
     2  Na  -0.313527  -0.068072
     3  Na  -0.108008   0.368259
     4  Na  -0.054328   0.036818
     5  Na   0.168006   0.140041
     6  Na  -0.117641   0.021662
     7  Na   0.553486   0.216211
 Sum of Mulliken charges =  -0.00000   1.00000

 Dipole moment (field-independent basis, Debye):
    X=             -0.0879    Y=              0.1102    Z=              0.0204  Tot=              0.1424
 Quadrupole moment (field-independent basis, Debye-Ang):
   XX=            -57.3236   YY=            -68.3334   ZZ=            -73.9187
   XY=              1.9363   XZ=             -0.2870   YZ=             -0.8000

 Normal termination of Gaussian 16 at Sun Dec  3 19:20:14 2023.
