 Gaussian 16, Revision B.01,
 Gaussian 16:  ES64L-G16RevB.01 20-Dec-2017

 -------------------------
 #P B3LYP/6-311+g(d) force
 -------------------------

 -----
 DPGEN
 -----
 Symbolic Z-matrix:
 Charge =  0 Multiplicity = 2

                         Standard orientation:
 ---------------------------------------------------------------------
 Center     Atomic      Atomic             Coordinates (Angstroms)
 Number     Number       Type             X           Y           Z
 ---------------------------------------------------------------------
      1         11           0       -0.379437   -0.516813   -1.555942
      2         11           0       -0.786242   -1.454916    1.132715
      3         11           0       -3.254651   -0.068535   -0.271131
      4         11           0       -0.876118    1.838432    0.256229
      5         11           0        1.280258    0.552431    1.690663
      6         11           0        2.022057    1.414737   -0.877618
      7         11           0        1.994133   -1.765338   -0.374917
 ---------------------------------------------------------------------

 SCF Done:  E(UB3LYP) =  -1136.10642934     A.U. after   21 cycles

 The electronic state is 2-A.
 Alpha  occ. eigenvalues --  -38.44330 -38.43980 -38.43688 -38.43560 -38.43255
 Alpha  occ. eigenvalues --  -38.43054 -38.42660  -2.20251  -2.20126  -2.19871
 Alpha  occ. eigenvalues --   -2.19604  -2.19361  -2.19068  -2.18753  -1.13951
 Alpha  occ. eigenvalues --   -1.13910  -1.13904  -1.13895  -1.13879  -1.13726
 Alpha  occ. eigenvalues --   -1.13650  -1.13533  -1.13526  -1.13254  -1.13234
 Alpha  occ. eigenvalues --   -1.13196  -1.13050  -1.12991  -1.12940  -1.12750
 Alpha  occ. eigenvalues --   -1.12708  -1.12669  -1.12470  -1.12421  -1.12330
 Alpha  occ. eigenvalues --   -0.20834  -0.14059  -0.12216  -0.11943
 Alpha virt. eigenvalues --   -0.05841  -0.04183  -0.03914  -0.03502  -0.02852
 Alpha virt. eigenvalues --   -0.02803  -0.01625  -0.00466  -0.00298   0.00292
 Alpha virt. eigenvalues --    0.00551   0.00733   0.00872   0.01025   0.01039

  Beta  occ. eigenvalues --  -38.44328 -38.43907 -38.43622 -38.43533 -38.43209
  Beta  occ. eigenvalues --  -38.43041 -38.42643  -2.20249  -2.19995  -2.19754
  Beta  occ. eigenvalues --   -2.19560  -2.19283  -2.19050  -2.18729  -1.13947
  Beta  occ. eigenvalues --   -1.13899  -1.13892  -1.13830  -1.13766  -1.13635
  Beta  occ. eigenvalues --   -1.13579  -1.13446  -1.13436  -1.13213  -1.13192
  Beta  occ. eigenvalues --   -1.13146  -1.12998  -1.12899  -1.12891  -1.12732
  Beta  occ. eigenvalues --   -1.12684  -1.12639  -1.12458  -1.12355  -1.12317
  Beta  occ. eigenvalues --   -0.19992  -0.13823  -0.11710
  Beta virt. eigenvalues --   -0.07865  -0.05742  -0.04186  -0.03404  -0.03161
  Beta virt. eigenvalues --   -0.02072  -0.01742  -0.01517  -0.00442  -0.00043
  Beta virt. eigenvalues --    0.00326   0.00597   0.00712   0.00995   0.01036

 Mulliken charges and spin densities:
               1          2
     1  Na  -0.033823   0.474939
     2  Na  -0.510576   0.202343
     3  Na   0.717098  -0.046190
     4  Na  -0.730775   0.107536
     5  Na   0.802623   0.275288
     6  Na  -0.088319   0.053889
     7  Na  -0.156228  -0.067806
 Sum of Mulliken charges =  -0.00000   1.00000

 Dipole moment (field-independent basis, Debye):
    X=             -0.4502    Y=             -0.0871    Z=             -0.1284  Tot=              0.4762
 Quadrupole moment (field-independent basis, Debye-Ang):
   XX=            -53.2428   YY=            -74.2759   ZZ=            -67.1891
   XY=             -0.1895   XZ=             -0.6302   YZ=             -0.9960

 Normal termination of Gaussian 16 at Tue Dec  5 11:50:54 2023.
