 Gaussian 16, Revision B.01,
 Gaussian 16:  ES64L-G16RevB.01 20-Dec-2017

 -------------------------
 #P B3LYP/6-311+g(d) force
 -------------------------

 -----
 DPGEN
 -----
 Symbolic Z-matrix:
 Charge =  0 Multiplicity = 2

                         Standard orientation:
 ---------------------------------------------------------------------
 Center     Atomic      Atomic             Coordinates (Angstroms)
 Number     Number       Type             X           Y           Z
 ---------------------------------------------------------------------
      1         11           0        0.533626    0.126383   -1.371729
      2         11           0       -0.654127   -2.140642   -0.365229
      3         11           0       -2.202479    0.353326   -1.316929
      4         11           0       -0.288816    2.152065    0.302171
      5         11           0        3.224428    0.021439   -0.367929
      6         11           0        1.067636   -0.363306    1.495071
      7         11           0       -1.680268   -0.149264    1.624571
 ---------------------------------------------------------------------

 SCF Done:  E(UB3LYP) =  -1136.08150656     A.U. after   31 cycles

 The electronic state is 2-A.
 Alpha  occ. eigenvalues --  -38.44575 -38.44403 -38.44250 -38.44174 -38.43951
 Alpha  occ. eigenvalues --  -38.42655 -38.42589  -2.20559  -2.20555  -2.20499
 Alpha  occ. eigenvalues --   -2.20347  -2.20165  -2.18748  -2.18683  -1.14578
 Alpha  occ. eigenvalues --   -1.14477  -1.14380  -1.14238  -1.14235  -1.14203
 Alpha  occ. eigenvalues --   -1.14155  -1.14134  -1.14065  -1.13933  -1.13904
 Alpha  occ. eigenvalues --   -1.13864  -1.13798  -1.13735  -1.13698  -1.12483
 Alpha  occ. eigenvalues --   -1.12418  -1.12385  -1.12339  -1.12316  -1.12237
 Alpha  occ. eigenvalues --   -0.21281  -0.13842  -0.13010  -0.11834
 Alpha virt. eigenvalues --   -0.05735  -0.04180  -0.03866  -0.03343  -0.02992
 Alpha virt. eigenvalues --   -0.02857  -0.01502  -0.00525  -0.00230   0.00299
 Alpha virt. eigenvalues --    0.00643   0.00715   0.01014   0.01054   0.01104

  Beta  occ. eigenvalues --  -38.44570 -38.44332 -38.44204 -38.44106 -38.43889
  Beta  occ. eigenvalues --  -38.42637 -38.42572  -2.20497  -2.20434  -2.20430
  Beta  occ. eigenvalues --   -2.20266  -2.20059  -2.18723  -2.18659  -1.14495
  Beta  occ. eigenvalues --   -1.14368  -1.14328  -1.14180  -1.14157  -1.14148
  Beta  occ. eigenvalues --   -1.14100  -1.14057  -1.14044  -1.13873  -1.13845
  Beta  occ. eigenvalues --   -1.13792  -1.13730  -1.13632  -1.13625  -1.12465
  Beta  occ. eigenvalues --   -1.12408  -1.12332  -1.12295  -1.12270  -1.12228
  Beta  occ. eigenvalues --   -0.20434  -0.13670  -0.11528
  Beta virt. eigenvalues --   -0.08504  -0.05654  -0.03585  -0.03336  -0.03238
  Beta virt. eigenvalues --   -0.02254  -0.02014  -0.01420  -0.00233  -0.00183
  Beta virt. eigenvalues --    0.00330   0.00711   0.00869   0.01037   0.01079

 Mulliken charges and spin densities:
               1          2
     1  Na   0.418488   0.272656
     2  Na  -1.186545   0.309059
     3  Na   1.149393  -0.190307
     4  Na  -1.254690   0.147217
     5  Na  -0.298161   0.093488
     6  Na   0.082913   0.140507
     7  Na   1.088602   0.227380
 Sum of Mulliken charges =  -0.00000   1.00000

 Dipole moment (field-independent basis, Debye):
    X=              0.2309    Y=             -0.0044    Z=              0.0429  Tot=              0.2349
 Quadrupole moment (field-independent basis, Debye-Ang):
   XX=            -55.1515   YY=            -75.6006   ZZ=            -64.2596
   XY=              0.0856   XZ=             -0.2565   YZ=              1.4660

 Normal termination of Gaussian 16 at Fri Dec  8 16:59:24 2023.
