 Gaussian 16, Revision B.01,
 Gaussian 16:  ES64L-G16RevB.01 20-Dec-2017

 -------------------------
 #P B3LYP/6-311+g(d) force
 -------------------------

 -----
 DPGEN
 -----
 Symbolic Z-matrix:
 Charge =  0 Multiplicity = 2

                         Standard orientation:
 ---------------------------------------------------------------------
 Center     Atomic      Atomic             Coordinates (Angstroms)
 Number     Number       Type             X           Y           Z
 ---------------------------------------------------------------------
      1         11           0       -3.234886   -1.225728    0.306587
      2         11           0        1.486639   -1.864062   -0.574496
      3         11           0        4.219687    0.180851    0.210170
      4         11           0        0.046748   -0.745034    1.881129
      5         11           0       -1.205825   -0.453741   -1.784345
      6         11           0       -2.211330    1.981175    0.400430
      7         11           0        0.898967    2.126539   -0.439475
 ---------------------------------------------------------------------

 SCF Done:  E(UB3LYP) =  -1136.11823115     A.U. after   27 cycles

 The electronic state is 2-A.
 Alpha  occ. eigenvalues --  -38.46129 -38.44841 -38.44509 -38.43497 -38.43333
 Alpha  occ. eigenvalues --  -38.43112 -38.42712  -2.21869  -2.20696  -2.20381
 Alpha  occ. eigenvalues --   -2.19389  -2.19307  -2.19002  -2.18558  -1.15546
 Alpha  occ. eigenvalues --   -1.15530  -1.15495  -1.14417  -1.14345  -1.14323
 Alpha  occ. eigenvalues --   -1.14100  -1.14020  -1.13975  -1.13117  -1.13080
 Alpha  occ. eigenvalues --   -1.12988  -1.12973  -1.12950  -1.12893  -1.12678
 Alpha  occ. eigenvalues --   -1.12661  -1.12646  -1.12256  -1.12235  -1.12169
 Alpha  occ. eigenvalues --   -0.18633  -0.13860  -0.11286  -0.10859
 Alpha virt. eigenvalues --   -0.07666  -0.04959  -0.03917  -0.03323  -0.03049
 Alpha virt. eigenvalues --   -0.02430  -0.02331  -0.01180  -0.00717  -0.00233
 Alpha virt. eigenvalues --   -0.00017   0.00197   0.00313   0.00742   0.00770

  Beta  occ. eigenvalues --  -38.46131 -38.44839 -38.44441 -38.43472 -38.43253
  Beta  occ. eigenvalues --  -38.43103 -38.42709  -2.21872  -2.20697  -2.20256
  Beta  occ. eigenvalues --   -2.19349  -2.19162  -2.18985  -2.18554  -1.15545
  Beta  occ. eigenvalues --   -1.15531  -1.15497  -1.14411  -1.14333  -1.14317
  Beta  occ. eigenvalues --   -1.14010  -1.13932  -1.13886  -1.13087  -1.13011
  Beta  occ. eigenvalues --   -1.12956  -1.12876  -1.12860  -1.12790  -1.12673
  Beta  occ. eigenvalues --   -1.12649  -1.12613  -1.12256  -1.12210  -1.12171
  Beta  occ. eigenvalues --   -0.17874  -0.13726  -0.11084
  Beta virt. eigenvalues --   -0.07497  -0.06891  -0.04940  -0.03538  -0.03022
  Beta virt. eigenvalues --   -0.02837  -0.01700  -0.01472  -0.01120  -0.00402
  Beta virt. eigenvalues --   -0.00199   0.00035   0.00192   0.00493   0.00785

 Mulliken charges and spin densities:
               1          2
     1  Na   0.306533   0.125851
     2  Na  -0.136899   0.178321
     3  Na   0.178166  -0.043413
     4  Na  -0.052206   0.379574
     5  Na   0.473995   0.197413
     6  Na  -0.218429   0.157492
     7  Na  -0.551162   0.004763
 Sum of Mulliken charges =  -0.00000   1.00000

 Dipole moment (field-independent basis, Debye):
    X=              1.0437    Y=             -0.2789    Z=              0.3993  Tot=              1.1517
 Quadrupole moment (field-independent basis, Debye-Ang):
   XX=            -41.0614   YY=            -77.1102   ZZ=            -72.7851
   XY=              1.6013   XZ=             -0.3163   YZ=              0.6580

 Normal termination of Gaussian 16 at Wed Nov 29 16:42:39 2023.
