 Gaussian 16, Revision B.01,
 Gaussian 16:  ES64L-G16RevB.01 20-Dec-2017

 -------------------------
 #P B3LYP/6-311+g(d) force
 -------------------------

 -----
 DPGEN
 -----
 Symbolic Z-matrix:
 Charge =  0 Multiplicity = 2

                         Standard orientation:
 ---------------------------------------------------------------------
 Center     Atomic      Atomic             Coordinates (Angstroms)
 Number     Number       Type             X           Y           Z
 ---------------------------------------------------------------------
      1         11           0       -1.557329    2.404536   -0.373911
      2         11           0        2.900803   -0.867704   -0.614285
      3         11           0        1.879982    2.667267    0.122289
      4         11           0       -0.036199    0.102688    2.140275
      5         11           0       -3.537990   -0.795964   -0.119508
      6         11           0        0.588287   -2.905075    0.423849
      7         11           0       -0.237554   -0.605747   -1.578708
 ---------------------------------------------------------------------

 SCF Done:  E(UB3LYP) =  -1136.13350042     A.U. after   20 cycles

 The electronic state is 2-A.
 Alpha  occ. eigenvalues --  -38.44311 -38.43900 -38.43854 -38.43833 -38.43713
 Alpha  occ. eigenvalues --  -38.43446 -38.43425  -2.20071  -2.19755  -2.19688
 Alpha  occ. eigenvalues --   -2.19677  -2.19590  -2.19385  -2.19222  -1.13747
 Alpha  occ. eigenvalues --   -1.13729  -1.13711  -1.13454  -1.13425  -1.13388
 Alpha  occ. eigenvalues --   -1.13377  -1.13362  -1.13351  -1.13315  -1.13306
 Alpha  occ. eigenvalues --   -1.13294  -1.13287  -1.13236  -1.13206  -1.13063
 Alpha  occ. eigenvalues --   -1.13031  -1.12990  -1.12893  -1.12877  -1.12874
 Alpha  occ. eigenvalues --   -0.18190  -0.12957  -0.12249  -0.10778
 Alpha virt. eigenvalues --   -0.05874  -0.05066  -0.04923  -0.03258  -0.02847
 Alpha virt. eigenvalues --   -0.02645  -0.01776  -0.01185  -0.00555  -0.00323
 Alpha virt. eigenvalues --   -0.00041   0.00310   0.00753   0.00802   0.00839

  Beta  occ. eigenvalues --  -38.44313 -38.43883 -38.43848 -38.43732 -38.43701
  Beta  occ. eigenvalues --  -38.43426 -38.43397  -2.20077  -2.19726  -2.19668
  Beta  occ. eigenvalues --   -2.19572  -2.19500  -2.19297  -2.19225  -1.13745
  Beta  occ. eigenvalues --   -1.13729  -1.13716  -1.13433  -1.13394  -1.13367
  Beta  occ. eigenvalues --   -1.13365  -1.13337  -1.13287  -1.13283  -1.13233
  Beta  occ. eigenvalues --   -1.13210  -1.13189  -1.13183  -1.13155  -1.13002
  Beta  occ. eigenvalues --   -1.12971  -1.12920  -1.12889  -1.12878  -1.12871
  Beta  occ. eigenvalues --   -0.17469  -0.12730  -0.12081
  Beta virt. eigenvalues --   -0.06845  -0.05834  -0.05010  -0.04822  -0.02501
  Beta virt. eigenvalues --   -0.02198  -0.01765  -0.01533  -0.01107  -0.00555
  Beta virt. eigenvalues --   -0.00326   0.00105   0.00358   0.00801   0.00823

 Mulliken charges and spin densities:
               1          2
     1  Na  -0.046149  -0.032756
     2  Na   0.157557   0.072725
     3  Na  -0.077589  -0.018584
     4  Na  -0.299007   0.676201
     5  Na   0.033613  -0.057132
     6  Na   0.152992   0.073653
     7  Na   0.078583   0.285892
 Sum of Mulliken charges =  -0.00000   1.00000

 Dipole moment (field-independent basis, Debye):
    X=             -0.2742    Y=             -0.2299    Z=              0.1173  Tot=              0.3766
 Quadrupole moment (field-independent basis, Debye-Ang):
   XX=            -56.8216   YY=            -62.7494   ZZ=            -74.2960
   XY=              0.6186   XZ=             -0.9103   YZ=             -1.3810

 Normal termination of Gaussian 16 at Fri Dec  8 06:33:02 2023.
