 Gaussian 16, Revision B.01,
 Gaussian 16:  ES64L-G16RevB.01 20-Dec-2017

 -------------------------
 #P B3LYP/6-311+g(d) force
 -------------------------

 -----
 DPGEN
 -----
 Symbolic Z-matrix:
 Charge =  0 Multiplicity = 2

                         Standard orientation:
 ---------------------------------------------------------------------
 Center     Atomic      Atomic             Coordinates (Angstroms)
 Number     Number       Type             X           Y           Z
 ---------------------------------------------------------------------
      1         11           0       -0.629446   -0.047969    1.754979
      2         11           0       -2.981998    0.204548   -1.351162
      3         11           0        3.140082   -2.328130    0.133064
      4         11           0        3.919619    1.129375    0.439916
      5         11           0        0.671306   -1.187417   -1.315974
      6         11           0       -5.014164   -0.383513    0.759319
      7         11           0        0.894601    2.613106   -0.420142
 ---------------------------------------------------------------------

 SCF Done:  E(UB3LYP) =  -1136.10839243     A.U. after   28 cycles

 The electronic state is 2-A.
 Alpha  occ. eigenvalues --  -38.47049 -38.44940 -38.44401 -38.44171 -38.43923
 Alpha  occ. eigenvalues --  -38.42762 -38.42542  -2.22793  -2.20768  -2.20215
 Alpha  occ. eigenvalues --   -2.20012  -2.19798  -2.18568  -2.18383  -1.16470
 Alpha  occ. eigenvalues --   -1.16441  -1.16418  -1.14499  -1.14431  -1.14396
 Alpha  occ. eigenvalues --   -1.13884  -1.13848  -1.13824  -1.13666  -1.13639
 Alpha  occ. eigenvalues --   -1.13630  -1.13492  -1.13452  -1.13425  -1.12253
 Alpha  occ. eigenvalues --   -1.12229  -1.12207  -1.12062  -1.12037  -1.12027
 Alpha  occ. eigenvalues --   -0.17329  -0.14292  -0.11047  -0.10973
 Alpha virt. eigenvalues --   -0.07596  -0.05147  -0.04620  -0.03486  -0.03160
 Alpha virt. eigenvalues --   -0.02203  -0.02074  -0.01755  -0.01457  -0.00607
 Alpha virt. eigenvalues --   -0.00277  -0.00000   0.00240   0.00459   0.00655

  Beta  occ. eigenvalues --  -38.47045 -38.44938 -38.44314 -38.44104 -38.43890
  Beta  occ. eigenvalues --  -38.42753 -38.42536  -2.22787  -2.20772  -2.20054
  Beta  occ. eigenvalues --   -2.19887  -2.19739  -2.18552  -2.18373  -1.16454
  Beta  occ. eigenvalues --   -1.16435  -1.16425  -1.14477  -1.14440  -1.14378
  Beta  occ. eigenvalues --   -1.13775  -1.13744  -1.13703  -1.13585  -1.13553
  Beta  occ. eigenvalues --   -1.13548  -1.13449  -1.13408  -1.13379  -1.12244
  Beta  occ. eigenvalues --   -1.12220  -1.12177  -1.12060  -1.12032  -1.12002
  Beta  occ. eigenvalues --   -0.16737  -0.13546  -0.10810
  Beta virt. eigenvalues --   -0.07617  -0.07483  -0.04528  -0.04220  -0.03207
  Beta virt. eigenvalues --   -0.02934  -0.02196  -0.01758  -0.01317  -0.01187
  Beta virt. eigenvalues --   -0.00276  -0.00121   0.00157   0.00309   0.00575

 Mulliken charges and spin densities:
               1          2
     1  Na  -0.085139  -0.205693
     2  Na   0.001130   0.064407
     3  Na   0.465159   0.190830
     4  Na  -0.008081   0.456812
     5  Na  -0.465375  -0.000356
     6  Na   0.200739   0.334977
     7  Na  -0.108433   0.159023
 Sum of Mulliken charges =  -0.00000   1.00000

 Dipole moment (field-independent basis, Debye):
    X=             -1.2424    Y=              0.0968    Z=              1.0245  Tot=              1.6132
 Quadrupole moment (field-independent basis, Debye-Ang):
   XX=            -71.2767   YY=            -80.2895   ZZ=            -57.3473
   XY=              1.0053   XZ=             -0.1399   YZ=             -5.0510

 Normal termination of Gaussian 16 at Sun Dec  3 23:39:28 2023.
