 Gaussian 16, Revision B.01,
 Gaussian 16:  ES64L-G16RevB.01 20-Dec-2017

 -------------------------
 #P B3LYP/6-311+g(d) force
 -------------------------

 -----
 DPGEN
 -----
 Symbolic Z-matrix:
 Charge =  0 Multiplicity = 2

                         Standard orientation:
 ---------------------------------------------------------------------
 Center     Atomic      Atomic             Coordinates (Angstroms)
 Number     Number       Type             X           Y           Z
 ---------------------------------------------------------------------
      1         11           0       -0.755951   -1.900088   -0.195193
      2         11           0       -2.820093    1.435064    0.488869
      3         11           0        1.658843    1.043903   -0.894688
      4         11           0        2.778700   -0.759370    2.131767
      5         11           0        2.898601   -1.816546   -1.209677
      6         11           0        0.271089    3.789831   -0.231564
      7         11           0       -4.031189   -1.792794   -0.089514
 ---------------------------------------------------------------------

 SCF Done:  E(UB3LYP) =  -1136.12098861     A.U. after   23 cycles

 The electronic state is 2-A.
 Alpha  occ. eigenvalues --  -38.45370 -38.44811 -38.44561 -38.44300 -38.43622
 Alpha  occ. eigenvalues --  -38.43485 -38.43282  -2.21121  -2.20610  -2.20370
 Alpha  occ. eigenvalues --   -2.20153  -2.19519  -2.19325  -2.19083  -1.14822
 Alpha  occ. eigenvalues --   -1.14801  -1.14718  -1.14311  -1.14305  -1.14222
 Alpha  occ. eigenvalues --   -1.14031  -1.14029  -1.13997  -1.13860  -1.13795
 Alpha  occ. eigenvalues --   -1.13783  -1.13201  -1.13195  -1.13165  -1.12967
 Alpha  occ. eigenvalues --   -1.12963  -1.12925  -1.12759  -1.12738  -1.12710
 Alpha  occ. eigenvalues --   -0.17120  -0.14182  -0.12328  -0.10091
 Alpha virt. eigenvalues --   -0.06498  -0.06185  -0.04999  -0.03343  -0.02547
 Alpha virt. eigenvalues --   -0.02214  -0.02105  -0.01601  -0.01339  -0.00805
 Alpha virt. eigenvalues --   -0.00292   0.00148   0.00262   0.00537   0.00619

  Beta  occ. eigenvalues --  -38.45363 -38.44797 -38.44563 -38.44279 -38.43602
  Beta  occ. eigenvalues --  -38.43367 -38.43283  -2.21109  -2.20586  -2.20374
  Beta  occ. eigenvalues --   -2.20119  -2.19484  -2.19104  -2.19085  -1.14814
  Beta  occ. eigenvalues --   -1.14793  -1.14711  -1.14296  -1.14278  -1.14206
  Beta  occ. eigenvalues --   -1.14033  -1.14028  -1.13998  -1.13838  -1.13767
  Beta  occ. eigenvalues --   -1.13732  -1.13180  -1.13152  -1.13138  -1.12816
  Beta  occ. eigenvalues --   -1.12811  -1.12779  -1.12757  -1.12737  -1.12712
  Beta  occ. eigenvalues --   -0.16632  -0.13890  -0.12226
  Beta virt. eigenvalues --   -0.06531  -0.06082  -0.05845  -0.04864  -0.03025
  Beta virt. eigenvalues --   -0.02396  -0.01944  -0.01524  -0.01295  -0.01239
  Beta virt. eigenvalues --   -0.00604   0.00117   0.00304   0.00601   0.00627

 Mulliken charges and spin densities:
               1          2
     1  Na  -1.132547  -0.032920
     2  Na  -0.336340   0.045267
     3  Na  -1.597362   0.171579
     4  Na  -0.109311   0.558328
     5  Na   1.996520   0.405238
     6  Na   0.543559  -0.094955
     7  Na   0.635481  -0.052537
 Sum of Mulliken charges =  -0.00000   1.00000

 Dipole moment (field-independent basis, Debye):
    X=             -1.8135    Y=             -0.7752    Z=             -0.5384  Tot=              2.0444
 Quadrupole moment (field-independent basis, Debye-Ang):
   XX=            -55.2800   YY=            -63.9849   ZZ=            -77.1347
   XY=              0.2229   XZ=             -6.0138   YZ=              2.9678

 Normal termination of Gaussian 16 at Wed Nov 29 03:56:13 2023.
