 Gaussian 16, Revision B.01,
 Gaussian 16:  ES64L-G16RevB.01 20-Dec-2017

 -------------------------
 #P B3LYP/6-311+g(d) force
 -------------------------

 -----
 DPGEN
 -----
 Symbolic Z-matrix:
 Charge =  0 Multiplicity = 2

                         Standard orientation:
 ---------------------------------------------------------------------
 Center     Atomic      Atomic             Coordinates (Angstroms)
 Number     Number       Type             X           Y           Z
 ---------------------------------------------------------------------
      1         11           0        2.268026    1.298681    0.053837
      2         11           0       -1.058753    0.783058   -0.516478
      3         11           0       -2.363717   -2.364155    0.161459
      4         11           0        1.312940   -1.789766    0.655030
      5         11           0        4.267553   -1.510425   -0.457630
      6         11           0       -4.361566   -0.307679   -0.189049
      7         11           0       -0.064483    3.890286    0.292831
 ---------------------------------------------------------------------

 SCF Done:  E(UB3LYP) =  -1136.12772018     A.U. after   19 cycles

 The electronic state is 2-A.
 Alpha  occ. eigenvalues --  -38.44099 -38.44034 -38.43908 -38.43809 -38.43606
 Alpha  occ. eigenvalues --  -38.43556 -38.43235  -2.19980  -2.19925  -2.19712
 Alpha  occ. eigenvalues --   -2.19710  -2.19498  -2.19409  -2.19143  -1.13712
 Alpha  occ. eigenvalues --   -1.13691  -1.13686  -1.13583  -1.13568  -1.13558
 Alpha  occ. eigenvalues --   -1.13430  -1.13411  -1.13389  -1.13374  -1.13350
 Alpha  occ. eigenvalues --   -1.13276  -1.13131  -1.13116  -1.13102  -1.13083
 Alpha  occ. eigenvalues --   -1.13051  -1.13037  -1.12837  -1.12812  -1.12740
 Alpha  occ. eigenvalues --   -0.17510  -0.14361  -0.12790  -0.10219
 Alpha virt. eigenvalues --   -0.05877  -0.05537  -0.04701  -0.03562  -0.02520
 Alpha virt. eigenvalues --   -0.02083  -0.01955  -0.01464  -0.01115  -0.00678
 Alpha virt. eigenvalues --    0.00032   0.00068   0.00570   0.00646   0.00718

  Beta  occ. eigenvalues --  -38.44093 -38.44016 -38.43914 -38.43795 -38.43540
  Beta  occ. eigenvalues --  -38.43504 -38.43194  -2.19970  -2.19900  -2.19722
  Beta  occ. eigenvalues --   -2.19690  -2.19375  -2.19311  -2.19074  -1.13695
  Beta  occ. eigenvalues --   -1.13681  -1.13649  -1.13574  -1.13545  -1.13518
  Beta  occ. eigenvalues --   -1.13418  -1.13394  -1.13381  -1.13363  -1.13354
  Beta  occ. eigenvalues --   -1.13272  -1.13049  -1.13030  -1.13026  -1.13021
  Beta  occ. eigenvalues --   -1.12984  -1.12969  -1.12793  -1.12770  -1.12648
  Beta  occ. eigenvalues --   -0.16914  -0.13858  -0.12561
  Beta virt. eigenvalues --   -0.06585  -0.05665  -0.05377  -0.04390  -0.02998
  Beta virt. eigenvalues --   -0.02362  -0.01924  -0.01659  -0.01307  -0.00831
  Beta virt. eigenvalues --   -0.00252   0.00218   0.00385   0.00651   0.00739

 Mulliken charges and spin densities:
               1          2
     1  Na  -0.667999   0.265036
     2  Na  -1.456920  -0.073592
     3  Na  -0.091750   0.028242
     4  Na  -0.336647   0.114191
     5  Na   1.052072   0.251316
     6  Na   0.705324   0.374818
     7  Na   0.795920   0.039989
 Sum of Mulliken charges =  -0.00000   1.00000

 Dipole moment (field-independent basis, Debye):
    X=              0.0663    Y=              0.3552    Z=              0.2133  Tot=              0.4196
 Quadrupole moment (field-independent basis, Debye-Ang):
   XX=            -68.3259   YY=            -57.9798   ZZ=            -70.9753
   XY=             -0.6975   XZ=             -1.4627   YZ=              1.2128

 Normal termination of Gaussian 16 at Tue Nov 28 21:45:50 2023.
