 Gaussian 16, Revision B.01,
 Gaussian 16:  ES64L-G16RevB.01 20-Dec-2017

 -------------------------
 #P B3LYP/6-311+g(d) force
 -------------------------

 -----
 DPGEN
 -----
 Symbolic Z-matrix:
 Charge =  0 Multiplicity = 2

                         Standard orientation:
 ---------------------------------------------------------------------
 Center     Atomic      Atomic             Coordinates (Angstroms)
 Number     Number       Type             X           Y           Z
 ---------------------------------------------------------------------
      1         11           0       -0.752398   -2.711069    0.839036
      2         11           0        1.671130    2.395691   -0.172601
      3         11           0       -3.422151   -0.268983   -0.847275
      4         11           0        0.035247   -0.726959   -1.475954
      5         11           0        1.017983   -0.281803    2.272595
      6         11           0        3.150311   -0.812879   -1.090243
      7         11           0       -1.700122    2.406002    0.474442
 ---------------------------------------------------------------------

 SCF Done:  E(UB3LYP) =  -1136.13066434     A.U. after   21 cycles

 The electronic state is 2-A.
 Alpha  occ. eigenvalues --  -38.44454 -38.44380 -38.44077 -38.43652 -38.43537
 Alpha  occ. eigenvalues --  -38.43456 -38.43314  -2.20300  -2.20213  -2.19876
 Alpha  occ. eigenvalues --   -2.19497  -2.19479  -2.19281  -2.19117  -1.13968
 Alpha  occ. eigenvalues --   -1.13926  -1.13918  -1.13915  -1.13840  -1.13833
 Alpha  occ. eigenvalues --   -1.13554  -1.13530  -1.13504  -1.13256  -1.13170
 Alpha  occ. eigenvalues --   -1.13138  -1.13120  -1.13103  -1.13080  -1.12966
 Alpha  occ. eigenvalues --   -1.12955  -1.12914  -1.12794  -1.12783  -1.12753
 Alpha  occ. eigenvalues --   -0.18011  -0.12996  -0.12111  -0.11487
 Alpha virt. eigenvalues --   -0.05790  -0.05030  -0.04640  -0.03300  -0.03138
 Alpha virt. eigenvalues --   -0.02958  -0.01754  -0.00894  -0.00654  -0.00103
 Alpha virt. eigenvalues --    0.00000   0.00308   0.00571   0.00813   0.00837

  Beta  occ. eigenvalues --  -38.44358 -38.44339 -38.44064 -38.43633 -38.43501
  Beta  occ. eigenvalues --  -38.43454 -38.43315  -2.20141  -2.20124  -2.19851
  Beta  occ. eigenvalues --   -2.19465  -2.19413  -2.19279  -2.19122  -1.13855
  Beta  occ. eigenvalues --   -1.13847  -1.13812  -1.13788  -1.13787  -1.13783
  Beta  occ. eigenvalues --   -1.13531  -1.13515  -1.13490  -1.13229  -1.13127
  Beta  occ. eigenvalues --   -1.13094  -1.13087  -1.13063  -1.13034  -1.12966
  Beta  occ. eigenvalues --   -1.12945  -1.12906  -1.12794  -1.12787  -1.12749
  Beta  occ. eigenvalues --   -0.17337  -0.12692  -0.11860
  Beta virt. eigenvalues --   -0.07621  -0.05624  -0.04938  -0.04369  -0.02884
  Beta virt. eigenvalues --   -0.02466  -0.02043  -0.01544  -0.00859  -0.00449
  Beta virt. eigenvalues --   -0.00026   0.00057   0.00367   0.00711   0.00854

 Mulliken charges and spin densities:
               1          2
     1  Na  -0.304845   0.098451
     2  Na  -0.090673   0.117008
     3  Na   0.624027   0.025382
     4  Na  -0.236481   0.175549
     5  Na   0.053267   0.491736
     6  Na   0.426190   0.112878
     7  Na  -0.471484  -0.021003
 Sum of Mulliken charges =  -0.00000   1.00000

 Dipole moment (field-independent basis, Debye):
    X=              0.3368    Y=             -0.3819    Z=              0.1799  Tot=              0.5401
 Quadrupole moment (field-independent basis, Debye-Ang):
   XX=            -56.3413   YY=            -69.0726   ZZ=            -69.7851
   XY=              0.9269   XZ=             -0.2448   YZ=             -0.0991

 Normal termination of Gaussian 16 at Sun Dec  3 18:00:13 2023.
