 Gaussian 16, Revision B.01,
 Gaussian 16:  ES64L-G16RevB.01 20-Dec-2017

 -------------------------
 #P B3LYP/6-311+g(d) force
 -------------------------

 -----
 DPGEN
 -----
 Symbolic Z-matrix:
 Charge =  0 Multiplicity = 2

                         Standard orientation:
 ---------------------------------------------------------------------
 Center     Atomic      Atomic             Coordinates (Angstroms)
 Number     Number       Type             X           Y           Z
 ---------------------------------------------------------------------
      1         11           0       -2.818112   -0.456879    1.523048
      2         11           0       -1.925795   -1.485072   -1.573266
      3         11           0        3.600933   -0.675846    0.070883
      4         11           0       -1.598776    2.267076   -0.687852
      5         11           0        0.987747    1.236155    2.012544
      6         11           0        1.337280    1.150078   -1.651044
      7         11           0        0.416722   -2.035512    0.305688
 ---------------------------------------------------------------------

 SCF Done:  E(UB3LYP) =  -1136.13023441     A.U. after   21 cycles

 The electronic state is 2-A.
 Alpha  occ. eigenvalues --  -38.44724 -38.44561 -38.44317 -38.43786 -38.43641
 Alpha  occ. eigenvalues --  -38.43017 -38.42790  -2.20532  -2.20371  -2.20132
 Alpha  occ. eigenvalues --   -2.19657  -2.19515  -2.18900  -2.18619  -1.14203
 Alpha  occ. eigenvalues --   -1.14182  -1.14159  -1.14052  -1.14010  -1.13983
 Alpha  occ. eigenvalues --   -1.13811  -1.13785  -1.13772  -1.13376  -1.13288
 Alpha  occ. eigenvalues --   -1.13277  -1.13197  -1.13158  -1.13145  -1.12610
 Alpha  occ. eigenvalues --   -1.12579  -1.12498  -1.12307  -1.12271  -1.12262
 Alpha  occ. eigenvalues --   -0.18172  -0.13429  -0.11495  -0.11409
 Alpha virt. eigenvalues --   -0.06203  -0.04951  -0.04635  -0.03308  -0.03147
 Alpha virt. eigenvalues --   -0.02845  -0.01889  -0.00769  -0.00583  -0.00118
 Alpha virt. eigenvalues --    0.00194   0.00312   0.00328   0.00613   0.00848

  Beta  occ. eigenvalues --  -38.44694 -38.44499 -38.44319 -38.43755 -38.43597
  Beta  occ. eigenvalues --  -38.43006 -38.42783  -2.20476  -2.20257  -2.20137
  Beta  occ. eigenvalues --   -2.19601  -2.19435  -2.18885  -2.18610  -1.14157
  Beta  occ. eigenvalues --   -1.14146  -1.14118  -1.13973  -1.13927  -1.13902
  Beta  occ. eigenvalues --   -1.13808  -1.13790  -1.13772  -1.13337  -1.13251
  Beta  occ. eigenvalues --   -1.13228  -1.13143  -1.13096  -1.13086  -1.12590
  Beta  occ. eigenvalues --   -1.12548  -1.12494  -1.12291  -1.12261  -1.12249
  Beta  occ. eigenvalues --   -0.17429  -0.13286  -0.11195
  Beta virt. eigenvalues --   -0.07680  -0.05954  -0.04600  -0.04282  -0.03162
  Beta virt. eigenvalues --   -0.02438  -0.02080  -0.01745  -0.00599  -0.00296
  Beta virt. eigenvalues --    0.00022   0.00301   0.00337   0.00389   0.00748

 Mulliken charges and spin densities:
               1          2
     1  Na   0.092235   0.142921
     2  Na   0.338212   0.139450
     3  Na   0.516983  -0.038664
     4  Na  -0.040860  -0.017250
     5  Na  -0.273607   0.427081
     6  Na  -0.181781   0.206299
     7  Na  -0.451182   0.140164
 Sum of Mulliken charges =  -0.00000   1.00000

 Dipole moment (field-independent basis, Debye):
    X=              0.2905    Y=             -0.0192    Z=              0.4699  Tot=              0.5528
 Quadrupole moment (field-independent basis, Debye-Ang):
   XX=            -52.7574   YY=            -77.6474   ZZ=            -64.6000
   XY=             -0.4418   XZ=             -0.8759   YZ=              1.2681

 Normal termination of Gaussian 16 at Fri Dec  8 06:44:24 2023.
