 Gaussian 16, Revision B.01,
 Gaussian 16:  ES64L-G16RevB.01 20-Dec-2017

 -------------------------
 #P B3LYP/6-311+g(d) force
 -------------------------

 -----
 DPGEN
 -----
 Symbolic Z-matrix:
 Charge =  0 Multiplicity = 2

                         Standard orientation:
 ---------------------------------------------------------------------
 Center     Atomic      Atomic             Coordinates (Angstroms)
 Number     Number       Type             X           Y           Z
 ---------------------------------------------------------------------
      1         11           0        1.878091   -2.029213   -1.168943
      2         11           0       -2.690826   -0.331221    2.111946
      3         11           0       -2.576131   -0.999294   -1.995485
      4         11           0       -0.671115    0.011811    0.080706
      5         11           0        2.107343   -0.850105    2.017005
      6         11           0        2.308963    1.365980   -0.687045
      7         11           0       -0.356327    2.832041   -0.358183
 ---------------------------------------------------------------------

 SCF Done:  E(UB3LYP) =  -1136.11224210     A.U. after   21 cycles

 The electronic state is 2-A.
 Alpha  occ. eigenvalues --  -38.44882 -38.44863 -38.44655 -38.44057 -38.43163
 Alpha  occ. eigenvalues --  -38.42508 -38.42367  -2.20694  -2.20689  -2.20484
 Alpha  occ. eigenvalues --   -2.19890  -2.19088  -2.18546  -2.18411  -1.14424
 Alpha  occ. eigenvalues --   -1.14400  -1.14318  -1.14307  -1.14297  -1.14282
 Alpha  occ. eigenvalues --   -1.14154  -1.14136  -1.14100  -1.13572  -1.13552
 Alpha  occ. eigenvalues --   -1.13504  -1.12792  -1.12766  -1.12707  -1.12369
 Alpha  occ. eigenvalues --   -1.12289  -1.12177  -1.12032  -1.12024  -1.11983
 Alpha  occ. eigenvalues --   -0.18265  -0.13295  -0.11538  -0.11377
 Alpha virt. eigenvalues --   -0.06000  -0.05159  -0.04253  -0.03477  -0.02698
 Alpha virt. eigenvalues --   -0.02567  -0.01521  -0.01100  -0.00537   0.00081
 Alpha virt. eigenvalues --    0.00250   0.00368   0.00471   0.00505   0.00759

  Beta  occ. eigenvalues --  -38.44824 -38.44810 -38.44622 -38.44039 -38.43160
  Beta  occ. eigenvalues --  -38.42507 -38.42341  -2.20591  -2.20586  -2.20422
  Beta  occ. eigenvalues --   -2.19857  -2.19084  -2.18511  -2.18411  -1.14355
  Beta  occ. eigenvalues --   -1.14324  -1.14244  -1.14240  -1.14221  -1.14210
  Beta  occ. eigenvalues --   -1.14109  -1.14094  -1.14055  -1.13545  -1.13531
  Beta  occ. eigenvalues --   -1.13475  -1.12790  -1.12751  -1.12709  -1.12361
  Beta  occ. eigenvalues --   -1.12178  -1.12161  -1.12028  -1.12017  -1.11978
  Beta  occ. eigenvalues --   -0.17582  -0.13041  -0.11219
  Beta virt. eigenvalues --   -0.07812  -0.05171  -0.04958  -0.04179  -0.03152
  Beta virt. eigenvalues --   -0.02145  -0.02086  -0.01428  -0.00537  -0.00481
  Beta virt. eigenvalues --    0.00298   0.00391   0.00435   0.00507   0.00690

 Mulliken charges and spin densities:
               1          2
     1  Na   0.051068   0.175117
     2  Na   0.218944   0.343701
     3  Na   0.431966   0.157802
     4  Na  -1.149430   0.467574
     5  Na  -0.073924  -0.011394
     6  Na   0.566871  -0.140487
     7  Na  -0.045496   0.007687
 Sum of Mulliken charges =  -0.00000   1.00000

 Dipole moment (field-independent basis, Debye):
    X=             -0.1074    Y=             -0.7256    Z=              0.2483  Tot=              0.7744
 Quadrupole moment (field-independent basis, Debye-Ang):
   XX=            -57.5817   YY=            -74.2379   ZZ=            -59.9990
   XY=             -0.9583   XZ=              0.5460   YZ=              2.8373

 Normal termination of Gaussian 16 at Thu Dec  7 08:07:09 2023.
