 Gaussian 16, Revision B.01,
 Gaussian 16:  ES64L-G16RevB.01 20-Dec-2017

 -------------------------
 #P B3LYP/6-311+g(d) force
 -------------------------

 -----
 DPGEN
 -----
 Symbolic Z-matrix:
 Charge =  0 Multiplicity = 2

                         Standard orientation:
 ---------------------------------------------------------------------
 Center     Atomic      Atomic             Coordinates (Angstroms)
 Number     Number       Type             X           Y           Z
 ---------------------------------------------------------------------
      1         11           0       -0.426033   -0.641621   -0.388981
      2         11           0       -2.241315    1.849295   -1.036430
      3         11           0       -3.308994   -1.627589   -0.290286
      4         11           0        0.834872   -1.538470    1.875404
      5         11           0        0.007239    1.955812    1.788268
      6         11           0        2.643477   -1.639077   -1.152260
      7         11           0        2.490755    1.641650   -0.795715
 ---------------------------------------------------------------------

 SCF Done:  E(UB3LYP) =  -1136.11969627     A.U. after   22 cycles

 The electronic state is 2-A.
 Alpha  occ. eigenvalues --  -38.44221 -38.44179 -38.44150 -38.44148 -38.43740
 Alpha  occ. eigenvalues --  -38.43229 -38.42712  -2.20144  -2.20001  -2.19978
 Alpha  occ. eigenvalues --   -2.19955  -2.19603  -2.19093  -2.18847  -1.13975
 Alpha  occ. eigenvalues --   -1.13729  -1.13720  -1.13693  -1.13680  -1.13659
 Alpha  occ. eigenvalues --   -1.13657  -1.13639  -1.13629  -1.13609  -1.13587
 Alpha  occ. eigenvalues --   -1.13559  -1.13281  -1.13245  -1.13227  -1.12780
 Alpha  occ. eigenvalues --   -1.12736  -1.12711  -1.12600  -1.12455  -1.12450
 Alpha  occ. eigenvalues --   -0.18384  -0.13377  -0.11548  -0.11473
 Alpha virt. eigenvalues --   -0.05874  -0.05029  -0.04037  -0.03331  -0.03191
 Alpha virt. eigenvalues --   -0.02509  -0.01709  -0.01050  -0.00502  -0.00023
 Alpha virt. eigenvalues --    0.00286   0.00344   0.00411   0.00755   0.00839

  Beta  occ. eigenvalues --  -38.44150 -38.44147 -38.44144 -38.44133 -38.43711
  Beta  occ. eigenvalues --  -38.43183 -38.42696  -2.20004  -2.19961  -2.19947
  Beta  occ. eigenvalues --   -2.19945  -2.19550  -2.19010  -2.18825  -1.13882
  Beta  occ. eigenvalues --   -1.13675  -1.13660  -1.13635  -1.13631  -1.13623
  Beta  occ. eigenvalues --   -1.13619  -1.13610  -1.13610  -1.13581  -1.13580
  Beta  occ. eigenvalues --   -1.13541  -1.13245  -1.13213  -1.13179  -1.12720
  Beta  occ. eigenvalues --   -1.12685  -1.12639  -1.12523  -1.12450  -1.12444
  Beta  occ. eigenvalues --   -0.17648  -0.12965  -0.11471
  Beta virt. eigenvalues --   -0.07548  -0.05774  -0.04782  -0.03496  -0.03117
  Beta virt. eigenvalues --   -0.02620  -0.01831  -0.01447  -0.01012  -0.00139
  Beta virt. eigenvalues --    0.00050   0.00352   0.00367   0.00471   0.00769

 Mulliken charges and spin densities:
               1          2
     1  Na  -1.992307   0.542035
     2  Na   0.113161  -0.003822
     3  Na   0.196319  -0.338973
     4  Na   0.179440   0.259110
     5  Na  -0.050288   0.148576
     6  Na   0.991069   0.207949
     7  Na   0.562606   0.185125
 Sum of Mulliken charges =  -0.00000   1.00000

 Dipole moment (field-independent basis, Debye):
    X=             -0.1199    Y=              0.1406    Z=              0.0220  Tot=              0.1861
 Quadrupole moment (field-independent basis, Debye-Ang):
   XX=            -57.1087   YY=            -67.6816   ZZ=            -66.8174
   XY=             -0.4775   XZ=             -0.6593   YZ=             -1.7310

 Normal termination of Gaussian 16 at Thu Dec  7 10:34:00 2023.
