 Gaussian 16, Revision B.01,
 Gaussian 16:  ES64L-G16RevB.01 20-Dec-2017

 -------------------------
 #P B3LYP/6-311+g(d) force
 -------------------------

 -----
 DPGEN
 -----
 Symbolic Z-matrix:
 Charge =  0 Multiplicity = 2

                         Standard orientation:
 ---------------------------------------------------------------------
 Center     Atomic      Atomic             Coordinates (Angstroms)
 Number     Number       Type             X           Y           Z
 ---------------------------------------------------------------------
      1         11           0        3.164394   -2.080182   -0.145842
      2         11           0       -3.022921    1.727570    0.199719
      3         11           0       -0.667526   -3.172614    0.778365
      4         11           0       -3.023519   -1.609256   -0.751359
      5         11           0        0.369634   -0.102473   -0.116565
      6         11           0        3.138444    1.498887   -0.208376
      7         11           0        0.041494    3.738068    0.244057
 ---------------------------------------------------------------------

 SCF Done:  E(UB3LYP) =  -1136.12581211     A.U. after   24 cycles

 The electronic state is 2-A.
 Alpha  occ. eigenvalues --  -38.44755 -38.44386 -38.44021 -38.43962 -38.43570
 Alpha  occ. eigenvalues --  -38.43469 -38.43390  -2.20572  -2.20222  -2.19867
 Alpha  occ. eigenvalues --   -2.19839  -2.19365  -2.19289  -2.19255  -1.14283
 Alpha  occ. eigenvalues --   -1.14255  -1.14171  -1.13906  -1.13885  -1.13871
 Alpha  occ. eigenvalues --   -1.13604  -1.13527  -1.13520  -1.13504  -1.13469
 Alpha  occ. eigenvalues --   -1.13448  -1.13038  -1.13011  -1.13001  -1.12957
 Alpha  occ. eigenvalues --   -1.12941  -1.12910  -1.12908  -1.12897  -1.12883
 Alpha  occ. eigenvalues --   -0.17170  -0.13844  -0.13188  -0.09528
 Alpha virt. eigenvalues --   -0.06687  -0.05680  -0.04522  -0.03101  -0.02618
 Alpha virt. eigenvalues --   -0.02198  -0.02048  -0.01724  -0.01544  -0.00257
 Alpha virt. eigenvalues --    0.00061   0.00315   0.00423   0.00532   0.00713

  Beta  occ. eigenvalues --  -38.44745 -38.44372 -38.43981 -38.43974 -38.43535
  Beta  occ. eigenvalues --  -38.43418 -38.43334  -2.20560  -2.20204  -2.19886
  Beta  occ. eigenvalues --   -2.19766  -2.19300  -2.19197  -2.19152  -1.14283
  Beta  occ. eigenvalues --   -1.14253  -1.14118  -1.13900  -1.13879  -1.13805
  Beta  occ. eigenvalues --   -1.13613  -1.13542  -1.13526  -1.13456  -1.13423
  Beta  occ. eigenvalues --   -1.13405  -1.12994  -1.12968  -1.12951  -1.12896
  Beta  occ. eigenvalues --   -1.12880  -1.12838  -1.12837  -1.12830  -1.12815
  Beta  occ. eigenvalues --   -0.16904  -0.13099  -0.12618
  Beta virt. eigenvalues --   -0.06753  -0.06297  -0.05376  -0.04335  -0.02670
  Beta virt. eigenvalues --   -0.02069  -0.02029  -0.01864  -0.01432  -0.01278
  Beta virt. eigenvalues --   -0.00131   0.00332   0.00384   0.00548   0.00667

 Mulliken charges and spin densities:
               1          2
     1  Na   0.868659   0.243719
     2  Na   0.984037   0.320932
     3  Na   1.039787   0.255515
     4  Na   1.142785   0.126439
     5  Na  -4.588963  -0.230679
     6  Na   0.367589   0.110831
     7  Na   0.186106   0.173243
 Sum of Mulliken charges =  -0.00000   1.00000

 Dipole moment (field-independent basis, Debye):
    X=              0.7458    Y=             -0.4238    Z=             -0.0348  Tot=              0.8585
 Quadrupole moment (field-independent basis, Debye-Ang):
   XX=            -64.1792   YY=            -61.9279   ZZ=            -70.9866
   XY=              1.5554   XZ=              0.7210   YZ=              0.8600

 Normal termination of Gaussian 16 at Fri Dec  8 18:56:15 2023.
