 Gaussian 16, Revision B.01,
 Gaussian 16:  ES64L-G16RevB.01 20-Dec-2017

 -------------------------
 #P B3LYP/6-311+g(d) force
 -------------------------

 -----
 DPGEN
 -----
 Symbolic Z-matrix:
 Charge =  0 Multiplicity = 2

                         Standard orientation:
 ---------------------------------------------------------------------
 Center     Atomic      Atomic             Coordinates (Angstroms)
 Number     Number       Type             X           Y           Z
 ---------------------------------------------------------------------
      1         11           0       -0.070370    0.187096    1.674423
      2         11           0       -0.191579   -0.307504   -1.667253
      3         11           0       -1.674529   -2.456323    0.244767
      4         11           0       -0.241762    2.884519   -0.277275
      5         11           0       -2.957244    0.617900    0.000691
      6         11           0        2.342588   -2.112045   -0.165353
      7         11           0        2.792895    1.186356    0.190000
 ---------------------------------------------------------------------

 SCF Done:  E(UB3LYP) =  -1136.13893708     A.U. after   19 cycles

 The electronic state is 2-A.
 Alpha  occ. eigenvalues --  -38.43944 -38.43837 -38.43787 -38.43602 -38.43147
 Alpha  occ. eigenvalues --  -38.42985 -38.42945  -2.19831  -2.19693  -2.19613
 Alpha  occ. eigenvalues --   -2.19477  -2.19020  -2.18980  -2.18937  -1.13515
 Alpha  occ. eigenvalues --   -1.13501  -1.13467  -1.13382  -1.13360  -1.13344
 Alpha  occ. eigenvalues --   -1.13285  -1.13262  -1.13243  -1.13167  -1.13145
 Alpha  occ. eigenvalues --   -1.13100  -1.12737  -1.12692  -1.12676  -1.12653
 Alpha  occ. eigenvalues --   -1.12605  -1.12600  -1.12584  -1.12560  -1.12548
 Alpha  occ. eigenvalues --   -0.18996  -0.13303  -0.12503  -0.10423
 Alpha virt. eigenvalues --   -0.05565  -0.05350  -0.04709  -0.03115  -0.02729
 Alpha virt. eigenvalues --   -0.02109  -0.01551  -0.01200  -0.00431  -0.00295
 Alpha virt. eigenvalues --    0.00040   0.00362   0.00814   0.00873   0.00894

  Beta  occ. eigenvalues --  -38.43936 -38.43832 -38.43784 -38.43593 -38.43139
  Beta  occ. eigenvalues --  -38.42911 -38.42871  -2.19821  -2.19687  -2.19610
  Beta  occ. eigenvalues --   -2.19465  -2.19009  -2.18845  -2.18802  -1.13512
  Beta  occ. eigenvalues --   -1.13473  -1.13451  -1.13377  -1.13347  -1.13333
  Beta  occ. eigenvalues --   -1.13270  -1.13256  -1.13243  -1.13161  -1.13110
  Beta  occ. eigenvalues --   -1.13091  -1.12712  -1.12662  -1.12641  -1.12598
  Beta  occ. eigenvalues --   -1.12511  -1.12502  -1.12493  -1.12466  -1.12446
  Beta  occ. eigenvalues --   -0.18277  -0.13044  -0.12245
  Beta virt. eigenvalues --   -0.06528  -0.05542  -0.05330  -0.04686  -0.02317
  Beta virt. eigenvalues --   -0.01977  -0.01472  -0.01138  -0.01077  -0.00478
  Beta virt. eigenvalues --   -0.00347   0.00170   0.00390   0.00865   0.00870

 Mulliken charges and spin densities:
               1          2
     1  Na  -0.262520   0.607821
     2  Na  -0.339121   0.698914
     3  Na   0.112889  -0.090170
     4  Na   0.044233  -0.051937
     5  Na   0.314498  -0.010480
     6  Na   0.031165  -0.111743
     7  Na   0.098857  -0.042405
 Sum of Mulliken charges =  -0.00000   1.00000

 Dipole moment (field-independent basis, Debye):
    X=             -0.0126    Y=             -0.1270    Z=              0.0171  Tot=              0.1288
 Quadrupole moment (field-independent basis, Debye-Ang):
   XX=            -55.1928   YY=            -60.6836   ZZ=            -76.1300
   XY=             -0.1394   XZ=             -0.1710   YZ=             -1.0734

 Normal termination of Gaussian 16 at Fri Dec  8 02:18:39 2023.
