 Gaussian 16, Revision B.01,
 Gaussian 16:  ES64L-G16RevB.01 20-Dec-2017

 -------------------------
 #P B3LYP/6-311+g(d) force
 -------------------------

 -----
 DPGEN
 -----
 Symbolic Z-matrix:
 Charge =  0 Multiplicity = 2

                         Standard orientation:
 ---------------------------------------------------------------------
 Center     Atomic      Atomic             Coordinates (Angstroms)
 Number     Number       Type             X           Y           Z
 ---------------------------------------------------------------------
      1         11           0       -0.736767   -1.257288    2.404466
      2         11           0        3.283176   -1.170467    0.482305
      3         11           0        0.621011   -3.162097   -0.714125
      4         11           0       -2.344271   -1.718882   -1.684267
      5         11           0       -0.339662    3.391159   -0.054751
      6         11           0        2.850812    2.435673   -0.773034
      7         11           0       -3.334299    1.481903    0.339405
 ---------------------------------------------------------------------

 SCF Done:  E(UB3LYP) =  -1136.11268005     A.U. after   21 cycles

 The electronic state is 2-A.
 Alpha  occ. eigenvalues --  -38.45146 -38.44947 -38.44614 -38.44421 -38.44397
 Alpha  occ. eigenvalues --  -38.44362 -38.44100  -2.20901  -2.20690  -2.20363
 Alpha  occ. eigenvalues --   -2.20186  -2.20180  -2.20155  -2.19862  -1.14564
 Alpha  occ. eigenvalues --   -1.14535  -1.14514  -1.14375  -1.14353  -1.14326
 Alpha  occ. eigenvalues --   -1.14035  -1.14030  -1.14011  -1.13866  -1.13864
 Alpha  occ. eigenvalues --   -1.13854  -1.13847  -1.13832  -1.13815  -1.13809
 Alpha  occ. eigenvalues --   -1.13807  -1.13778  -1.13535  -1.13523  -1.13499
 Alpha  occ. eigenvalues --   -0.16220  -0.13073  -0.12745  -0.10773
 Alpha virt. eigenvalues --   -0.07069  -0.06513  -0.04059  -0.03602  -0.03253
 Alpha virt. eigenvalues --   -0.02522  -0.01954  -0.01694  -0.01150  -0.01055
 Alpha virt. eigenvalues --   -0.00292  -0.00159   0.00156   0.00429   0.00569

  Beta  occ. eigenvalues --  -38.45054 -38.44945 -38.44614 -38.44420 -38.44349
  Beta  occ. eigenvalues --  -38.44326 -38.44092  -2.20730  -2.20687  -2.20364
  Beta  occ. eigenvalues --   -2.20180  -2.20134  -2.20057  -2.19848  -1.14447
  Beta  occ. eigenvalues --   -1.14419  -1.14392  -1.14372  -1.14350  -1.14321
  Beta  occ. eigenvalues --   -1.14034  -1.14025  -1.14013  -1.13863  -1.13855
  Beta  occ. eigenvalues --   -1.13826  -1.13817  -1.13811  -1.13767  -1.13759
  Beta  occ. eigenvalues --   -1.13730  -1.13700  -1.13525  -1.13514  -1.13488
  Beta  occ. eigenvalues --   -0.15660  -0.12882  -0.12493
  Beta virt. eigenvalues --   -0.07231  -0.06621  -0.06358  -0.03723  -0.03267
  Beta virt. eigenvalues --   -0.02763  -0.01932  -0.01716  -0.01607  -0.01157
  Beta virt. eigenvalues --   -0.00928   0.00016   0.00073   0.00312   0.00513

 Mulliken charges and spin densities:
               1          2
     1  Na  -0.100781   0.473910
     2  Na  -0.008322   0.017255
     3  Na   0.135474   0.102525
     4  Na   0.010440   0.319065
     5  Na  -0.007501  -0.009352
     6  Na   0.036425   0.015073
     7  Na  -0.065736   0.081525
 Sum of Mulliken charges =  -0.00000   1.00000

 Dipole moment (field-independent basis, Debye):
    X=              0.0218    Y=             -0.1662    Z=              0.1566  Tot=              0.2294
 Quadrupole moment (field-independent basis, Debye-Ang):
   XX=            -59.9869   YY=            -67.5960   ZZ=            -73.3480
   XY=             -4.3432   XZ=             -0.3540   YZ=             -0.5533

 Normal termination of Gaussian 16 at Sun Dec  3 20:56:41 2023.
