 Gaussian 16, Revision B.01,
 Gaussian 16:  ES64L-G16RevB.01 20-Dec-2017

 -------------------------
 #P B3LYP/6-311+g(d) force
 -------------------------

 -----
 DPGEN
 -----
 Symbolic Z-matrix:
 Charge =  0 Multiplicity = 2

                         Standard orientation:
 ---------------------------------------------------------------------
 Center     Atomic      Atomic             Coordinates (Angstroms)
 Number     Number       Type             X           Y           Z
 ---------------------------------------------------------------------
      1         11           0        0.784650    3.685867    0.227629
      2         11           0        3.893205    2.539560    0.050757
      3         11           0       -2.458809   -2.882253    0.612339
      4         11           0        0.924386   -3.334152   -0.498069
      5         11           0        3.803962   -2.475572    0.040627
      6         11           0       -3.901864   -0.169238   -0.135109
      7         11           0       -3.045530    2.635788   -0.298173
 ---------------------------------------------------------------------

 SCF Done:  E(UB3LYP) =  -1136.10445478     A.U. after   20 cycles

 The electronic state is 2-A.
 Alpha  occ. eigenvalues --  -38.44815 -38.44657 -38.44619 -38.44478 -38.44475
 Alpha  occ. eigenvalues --  -38.44458 -38.44279  -2.20586  -2.20468  -2.20370
 Alpha  occ. eigenvalues --   -2.20337  -2.20311  -2.20290  -2.20081  -1.14241
 Alpha  occ. eigenvalues --   -1.14235  -1.14228  -1.14198  -1.14164  -1.14104
 Alpha  occ. eigenvalues --   -1.14094  -1.14051  -1.14043  -1.14029  -1.14000
 Alpha  occ. eigenvalues --   -1.13989  -1.13936  -1.13929  -1.13924  -1.13919
 Alpha  occ. eigenvalues --   -1.13907  -1.13847  -1.13748  -1.13745  -1.13725
 Alpha  occ. eigenvalues --   -0.15702  -0.13882  -0.13567  -0.11344
 Alpha virt. eigenvalues --   -0.07342  -0.04972  -0.04068  -0.03690  -0.03489
 Alpha virt. eigenvalues --   -0.02537  -0.02278  -0.02041  -0.01483  -0.00778
 Alpha virt. eigenvalues --   -0.00657  -0.00098   0.00006   0.00376   0.00532

  Beta  occ. eigenvalues --  -38.44773 -38.44623 -38.44599 -38.44477 -38.44407
  Beta  occ. eigenvalues --  -38.44380 -38.44280  -2.20510  -2.20382  -2.20362
  Beta  occ. eigenvalues --   -2.20340  -2.20188  -2.20146  -2.20090  -1.14190
  Beta  occ. eigenvalues --   -1.14186  -1.14173  -1.14133  -1.14093  -1.14063
  Beta  occ. eigenvalues --   -1.14054  -1.14032  -1.14022  -1.14012  -1.13996
  Beta  occ. eigenvalues --   -1.13981  -1.13854  -1.13848  -1.13841  -1.13826
  Beta  occ. eigenvalues --   -1.13824  -1.13773  -1.13759  -1.13755  -1.13685
  Beta  occ. eigenvalues --   -0.15059  -0.13109  -0.12879
  Beta virt. eigenvalues --   -0.08303  -0.07309  -0.04464  -0.03655  -0.03476
  Beta virt. eigenvalues --   -0.03152  -0.02300  -0.02090  -0.01822  -0.01366
  Beta virt. eigenvalues --   -0.00349  -0.00275   0.00067   0.00224   0.00389

 Mulliken charges and spin densities:
               1          2
     1  Na  -0.085831  -0.032135
     2  Na  -0.088898   0.151062
     3  Na  -0.245304   0.302812
     4  Na  -0.595622   0.008924
     5  Na   0.387292   0.215943
     6  Na  -0.099740   0.048870
     7  Na   0.728102   0.304525
 Sum of Mulliken charges =  -0.00000   1.00000

 Dipole moment (field-independent basis, Debye):
    X=              0.6674    Y=              0.0534    Z=              0.1130  Tot=              0.6790
 Quadrupole moment (field-independent basis, Debye-Ang):
   XX=            -56.4284   YY=            -69.8599   ZZ=            -73.8473
   XY=             -0.1315   XZ=              0.5350   YZ=             -0.6189

 Normal termination of Gaussian 16 at Mon Dec  4 03:35:02 2023.
