 Gaussian 16, Revision B.01,
 Gaussian 16:  ES64L-G16RevB.01 20-Dec-2017

 -------------------------
 #P B3LYP/6-311+g(d) force
 -------------------------

 -----
 DPGEN
 -----
 Symbolic Z-matrix:
 Charge =  0 Multiplicity = 2

                         Standard orientation:
 ---------------------------------------------------------------------
 Center     Atomic      Atomic             Coordinates (Angstroms)
 Number     Number       Type             X           Y           Z
 ---------------------------------------------------------------------
      1         11           0       -1.096277   -2.609428    0.783113
      2         11           0        3.297364    2.344519   -0.364484
      3         11           0       -0.245651    3.605911    0.242502
      4         11           0       -3.960418    1.978071    0.207695
      5         11           0        1.696311   -2.968434   -0.147276
      6         11           0        4.371769   -0.757225    0.030892
      7         11           0       -4.063098   -1.593414   -0.752443
 ---------------------------------------------------------------------

 SCF Done:  E(UB3LYP) =  -1136.10452992     A.U. after   22 cycles

 The electronic state is 2-A.
 Alpha  occ. eigenvalues --  -38.45794 -38.44937 -38.44731 -38.44373 -38.44305
 Alpha  occ. eigenvalues --  -38.44244 -38.44028  -2.21507  -2.20698  -2.20514
 Alpha  occ. eigenvalues --   -2.20209  -2.20119  -2.20082  -2.19790  -1.15199
 Alpha  occ. eigenvalues --   -1.15175  -1.15139  -1.14381  -1.14372  -1.14343
 Alpha  occ. eigenvalues --   -1.14176  -1.14169  -1.14137  -1.14000  -1.13861
 Alpha  occ. eigenvalues --   -1.13847  -1.13775  -1.13770  -1.13763  -1.13724
 Alpha  occ. eigenvalues --   -1.13710  -1.13672  -1.13451  -1.13441  -1.13405
 Alpha  occ. eigenvalues --   -0.15663  -0.13999  -0.13221  -0.10759
 Alpha virt. eigenvalues --   -0.07834  -0.04946  -0.04405  -0.03607  -0.03523
 Alpha virt. eigenvalues --   -0.02596  -0.02159  -0.01904  -0.01176  -0.00755
 Alpha virt. eigenvalues --   -0.00407  -0.00189  -0.00054   0.00256   0.00462

  Beta  occ. eigenvalues --  -38.45796 -38.44931 -38.44685 -38.44346 -38.44257
  Beta  occ. eigenvalues --  -38.44216 -38.43956  -2.21515  -2.20692  -2.20428
  Beta  occ. eigenvalues --   -2.20165  -2.20037  -2.20031  -2.19655  -1.15209
  Beta  occ. eigenvalues --   -1.15184  -1.15119  -1.14382  -1.14373  -1.14301
  Beta  occ. eigenvalues --   -1.14120  -1.14112  -1.14075  -1.13943  -1.13834
  Beta  occ. eigenvalues --   -1.13816  -1.13722  -1.13714  -1.13702  -1.13693
  Beta  occ. eigenvalues --   -1.13675  -1.13617  -1.13359  -1.13350  -1.13317
  Beta  occ. eigenvalues --   -0.15146  -0.13346  -0.12413
  Beta virt. eigenvalues --   -0.08062  -0.07639  -0.04448  -0.03935  -0.03417
  Beta virt. eigenvalues --   -0.03126  -0.02402  -0.01975  -0.01785  -0.00988
  Beta virt. eigenvalues --   -0.00463  -0.00230   0.00022   0.00191   0.00356

 Mulliken charges and spin densities:
               1          2
     1  Na  -0.534541   0.052076
     2  Na   0.085917   0.030830
     3  Na   0.011929   0.371171
     4  Na  -0.031392   0.008696
     5  Na   0.005030   0.082750
     6  Na   0.145748   0.222112
     7  Na   0.317310   0.232365
 Sum of Mulliken charges =  -0.00000   1.00000

 Dipole moment (field-independent basis, Debye):
    X=             -0.5831    Y=             -0.2967    Z=             -0.1300  Tot=              0.6670
 Quadrupole moment (field-independent basis, Debye-Ang):
   XX=            -59.2025   YY=            -67.8895   ZZ=            -72.3211
   XY=             -2.4887   XZ=             -0.4498   YZ=              1.3534

 Normal termination of Gaussian 16 at Sun Dec  3 12:17:22 2023.
