 Gaussian 16, Revision B.01,
 Gaussian 16:  ES64L-G16RevB.01 20-Dec-2017

 -------------------------
 #P B3LYP/6-311+g(d) force
 -------------------------

 -----
 DPGEN
 -----
 Symbolic Z-matrix:
 Charge =  0 Multiplicity = 2

                         Standard orientation:
 ---------------------------------------------------------------------
 Center     Atomic      Atomic             Coordinates (Angstroms)
 Number     Number       Type             X           Y           Z
 ---------------------------------------------------------------------
      1         11           0       -1.545863   -2.093236    0.739494
      2         11           0       -3.813695    0.278888   -0.951258
      3         11           0       -1.333056    1.648319    1.118399
      4         11           0        2.158829    2.021230   -0.655410
      5         11           0       -0.009427   -0.336390   -1.473146
      6         11           0        3.053493   -1.329489   -0.903616
      7         11           0        1.489720   -0.189322    2.125537
 ---------------------------------------------------------------------

 SCF Done:  E(UB3LYP) =  -1136.12549844     A.U. after   28 cycles

 The electronic state is 2-A.
 Alpha  occ. eigenvalues --  -38.45129 -38.44219 -38.43927 -38.43781 -38.43732
 Alpha  occ. eigenvalues --  -38.43706 -38.42646  -2.20917  -2.20084  -2.19765
 Alpha  occ. eigenvalues --   -2.19653  -2.19618  -2.19587  -2.18502  -1.14589
 Alpha  occ. eigenvalues --   -1.14569  -1.14534  -1.13758  -1.13724  -1.13694
 Alpha  occ. eigenvalues --   -1.13501  -1.13420  -1.13373  -1.13364  -1.13339
 Alpha  occ. eigenvalues --   -1.13330  -1.13284  -1.13270  -1.13253  -1.13221
 Alpha  occ. eigenvalues --   -1.13213  -1.13186  -1.12206  -1.12182  -1.12111
 Alpha  occ. eigenvalues --   -0.18449  -0.13911  -0.11556  -0.10672
 Alpha virt. eigenvalues --   -0.06626  -0.05094  -0.04615  -0.03092  -0.02675
 Alpha virt. eigenvalues --   -0.02604  -0.02230  -0.01006  -0.00829  -0.00193
 Alpha virt. eigenvalues --    0.00186   0.00260   0.00346   0.00619   0.00809

  Beta  occ. eigenvalues --  -38.45105 -38.44144 -38.43895 -38.43780 -38.43706
  Beta  occ. eigenvalues --  -38.43678 -38.42637  -2.20873  -2.19946  -2.19708
  Beta  occ. eigenvalues --   -2.19618  -2.19604  -2.19540  -2.18490  -1.14555
  Beta  occ. eigenvalues --   -1.14537  -1.14507  -1.13658  -1.13631  -1.13594
  Beta  occ. eigenvalues --   -1.13463  -1.13370  -1.13342  -1.13321  -1.13309
  Beta  occ. eigenvalues --   -1.13286  -1.13282  -1.13252  -1.13218  -1.13198
  Beta  occ. eigenvalues --   -1.13187  -1.13148  -1.12201  -1.12146  -1.12105
  Beta  occ. eigenvalues --   -0.17709  -0.13630  -0.10504
  Beta virt. eigenvalues --   -0.07679  -0.06336  -0.04953  -0.04170  -0.02759
  Beta virt. eigenvalues --   -0.02250  -0.01999  -0.01783  -0.00784  -0.00536
  Beta virt. eigenvalues --   -0.00078   0.00235   0.00298   0.00430   0.00690

 Mulliken charges and spin densities:
               1          2
     1  Na  -0.219552   0.158684
     2  Na   0.418210   0.029751
     3  Na  -0.363006   0.047706
     4  Na  -0.012277   0.046271
     5  Na  -0.138456   0.282677
     6  Na   0.161473  -0.016440
     7  Na   0.153607   0.451352
 Sum of Mulliken charges =  -0.00000   1.00000

 Dipole moment (field-independent basis, Debye):
    X=             -0.4912    Y=             -0.0122    Z=             -0.1002  Tot=              0.5015
 Quadrupole moment (field-independent basis, Debye-Ang):
   XX=            -48.1151   YY=            -75.5425   ZZ=            -68.6995
   XY=             -0.2434   XZ=              2.6706   YZ=             -5.9440

 Normal termination of Gaussian 16 at Tue Dec  5 10:58:20 2023.
