 Gaussian 16, Revision B.01,
 Gaussian 16:  ES64L-G16RevB.01 20-Dec-2017

 -------------------------
 #P B3LYP/6-311+g(d) force
 -------------------------

 -----
 DPGEN
 -----
 Symbolic Z-matrix:
 Charge =  0 Multiplicity = 2

                         Standard orientation:
 ---------------------------------------------------------------------
 Center     Atomic      Atomic             Coordinates (Angstroms)
 Number     Number       Type             X           Y           Z
 ---------------------------------------------------------------------
      1         11           0        4.979813   -1.821866   -0.623562
      2         11           0        1.305764    3.316917   -0.465714
      3         11           0       -3.259012   -2.453913   -0.031114
      4         11           0       -4.519572    0.532961   -1.105568
      5         11           0        2.891435    0.629314    0.162077
      6         11           0        0.048960   -1.978936    0.757740
      7         11           0       -1.447388    1.775522    1.306141
 ---------------------------------------------------------------------

 SCF Done:  E(UB3LYP) =  -1136.11184741     A.U. after   22 cycles

 The electronic state is 2-A.
 Alpha  occ. eigenvalues --  -38.45589 -38.44716 -38.44552 -38.44489 -38.44340
 Alpha  occ. eigenvalues --  -38.43926 -38.43568  -2.21318  -2.20501  -2.20353
 Alpha  occ. eigenvalues --   -2.20282  -2.20138  -2.19709  -2.19409  -1.15014
 Alpha  occ. eigenvalues --   -1.15000  -1.14929  -1.14185  -1.14172  -1.14158
 Alpha  occ. eigenvalues --   -1.13998  -1.13987  -1.13966  -1.13949  -1.13936
 Alpha  occ. eigenvalues --   -1.13879  -1.13839  -1.13798  -1.13756  -1.13365
 Alpha  occ. eigenvalues --   -1.13361  -1.13339  -1.13106  -1.13090  -1.13022
 Alpha  occ. eigenvalues --   -0.16335  -0.13992  -0.12099  -0.11052
 Alpha virt. eigenvalues --   -0.07163  -0.05491  -0.04457  -0.03588  -0.03196
 Alpha virt. eigenvalues --   -0.02279  -0.02141  -0.01644  -0.01317  -0.00975
 Alpha virt. eigenvalues --   -0.00440  -0.00147   0.00230   0.00293   0.00406

  Beta  occ. eigenvalues --  -38.45593 -38.44714 -38.44460 -38.44413 -38.44341
  Beta  occ. eigenvalues --  -38.43880 -38.43569  -2.21328  -2.20504  -2.20182
  Beta  occ. eigenvalues --   -2.20143  -2.20141  -2.19623  -2.19412  -1.15015
  Beta  occ. eigenvalues --   -1.15001  -1.14937  -1.14193  -1.14166  -1.14122
  Beta  occ. eigenvalues --   -1.13881  -1.13870  -1.13858  -1.13856  -1.13842
  Beta  occ. eigenvalues --   -1.13841  -1.13800  -1.13783  -1.13757  -1.13304
  Beta  occ. eigenvalues --   -1.13302  -1.13286  -1.13110  -1.13092  -1.13007
  Beta  occ. eigenvalues --   -0.15834  -0.13424  -0.11656
  Beta virt. eigenvalues --   -0.07607  -0.07091  -0.04993  -0.04247  -0.03277
  Beta virt. eigenvalues --   -0.02856  -0.02082  -0.01768  -0.01379  -0.01180
  Beta virt. eigenvalues --   -0.00698  -0.00283   0.00107   0.00353   0.00404

 Mulliken charges and spin densities:
               1          2
     1  Na   0.275621   0.121186
     2  Na   0.717209  -0.046888
     3  Na   0.056595   0.026736
     4  Na   0.025827   0.471744
     5  Na  -0.978505   0.164813
     6  Na   0.139471   0.286513
     7  Na  -0.236218  -0.024103
 Sum of Mulliken charges =  -0.00000   1.00000

 Dipole moment (field-independent basis, Debye):
    X=             -0.9764    Y=              0.2932    Z=             -0.1076  Tot=              1.0251
 Quadrupole moment (field-independent basis, Debye-Ang):
   XX=            -66.7105   YY=            -63.3849   ZZ=            -69.6369
   XY=              1.2888   XZ=             -2.2106   YZ=             -0.4202

 Normal termination of Gaussian 16 at Mon Dec  4 03:50:23 2023.
