 Gaussian 16, Revision B.01,
 Gaussian 16:  ES64L-G16RevB.01 20-Dec-2017

 -------------------------
 #P B3LYP/6-311+g(d) force
 -------------------------

 -----
 DPGEN
 -----
 Symbolic Z-matrix:
 Charge =  0 Multiplicity = 2

                         Standard orientation:
 ---------------------------------------------------------------------
 Center     Atomic      Atomic             Coordinates (Angstroms)
 Number     Number       Type             X           Y           Z
 ---------------------------------------------------------------------
      1         11           0       -0.091662   -0.042866   -1.534423
      2         11           0       -0.557750   -2.742166    0.106632
      3         11           0       -1.534528    2.572935   -0.406652
      4         11           0        2.719048    2.073726    0.269810
      5         11           0        2.547754   -1.664173   -0.322752
      6         11           0       -3.041539   -0.335992    0.179499
      7         11           0       -0.041324    0.138535    1.707885
 ---------------------------------------------------------------------

 SCF Done:  E(UB3LYP) =  -1136.13509523     A.U. after   20 cycles

 The electronic state is 2-A.
 Alpha  occ. eigenvalues --  -38.44095 -38.43878 -38.43871 -38.43689 -38.43115
 Alpha  occ. eigenvalues --  -38.43029 -38.42965  -2.19864  -2.19759  -2.19732
 Alpha  occ. eigenvalues --   -2.19554  -2.19086  -2.19000  -2.18952  -1.13540
 Alpha  occ. eigenvalues --   -1.13516  -1.13508  -1.13439  -1.13426  -1.13420
 Alpha  occ. eigenvalues --   -1.13407  -1.13397  -1.13355  -1.13254  -1.13206
 Alpha  occ. eigenvalues --   -1.13171  -1.12837  -1.12729  -1.12707  -1.12691
 Alpha  occ. eigenvalues --   -1.12656  -1.12611  -1.12602  -1.12576  -1.12567
 Alpha  occ. eigenvalues --   -0.18955  -0.13214  -0.12455  -0.10390
 Alpha virt. eigenvalues --   -0.05710  -0.05405  -0.04619  -0.03033  -0.02690
 Alpha virt. eigenvalues --   -0.02054  -0.01666  -0.01325  -0.00487  -0.00265
 Alpha virt. eigenvalues --    0.00033   0.00326   0.00766   0.00841   0.00883

  Beta  occ. eigenvalues --  -38.44091 -38.43869 -38.43862 -38.43674 -38.43039
  Beta  occ. eigenvalues --  -38.43021 -38.42899  -2.19859  -2.19748  -2.19718
  Beta  occ. eigenvalues --   -2.19531  -2.18947  -2.18942  -2.18880  -1.13523
  Beta  occ. eigenvalues --   -1.13515  -1.13506  -1.13435  -1.13414  -1.13405
  Beta  occ. eigenvalues --   -1.13380  -1.13374  -1.13342  -1.13231  -1.13177
  Beta  occ. eigenvalues --   -1.13155  -1.12755  -1.12668  -1.12631  -1.12593
  Beta  occ. eigenvalues --   -1.12583  -1.12569  -1.12543  -1.12520  -1.12505
  Beta  occ. eigenvalues --   -0.18253  -0.12931  -0.12174
  Beta virt. eigenvalues --   -0.06549  -0.05646  -0.05356  -0.04602  -0.02287
  Beta virt. eigenvalues --   -0.01983  -0.01572  -0.01246  -0.01036  -0.00511
  Beta virt. eigenvalues --   -0.00310   0.00162   0.00363   0.00803   0.00862

 Mulliken charges and spin densities:
               1          2
     1  Na  -0.269885   0.399490
     2  Na   0.186456  -0.007893
     3  Na   0.120142  -0.028798
     4  Na  -0.107944  -0.072826
     5  Na   0.122363  -0.030681
     6  Na   0.345954   0.033716
     7  Na  -0.397087   0.706993
 Sum of Mulliken charges =  -0.00000   1.00000

 Dipole moment (field-independent basis, Debye):
    X=              0.1028    Y=              0.2093    Z=              0.0677  Tot=              0.2428
 Quadrupole moment (field-independent basis, Debye-Ang):
   XX=            -54.4414   YY=            -60.7292   ZZ=            -76.2927
   XY=              0.0677   XZ=             -0.4514   YZ=             -0.3505

 Normal termination of Gaussian 16 at Thu Dec  7 16:45:30 2023.
