 Gaussian 16, Revision B.01,
 Gaussian 16:  ES64L-G16RevB.01 20-Dec-2017

 -------------------------
 #P B3LYP/6-311+g(d) force
 -------------------------

 -----
 DPGEN
 -----
 Symbolic Z-matrix:
 Charge =  0 Multiplicity = 2

                         Standard orientation:
 ---------------------------------------------------------------------
 Center     Atomic      Atomic             Coordinates (Angstroms)
 Number     Number       Type             X           Y           Z
 ---------------------------------------------------------------------
      1         11           0       -3.167848   -1.433956    0.008908
      2         11           0       -0.168830   -0.182091   -1.429907
      3         11           0        1.156516    2.756331    0.249514
      4         11           0       -0.018911   -0.207883    2.127344
      5         11           0        1.646533   -2.725097   -0.096528
      6         11           0        3.228761    0.257350   -0.440705
      7         11           0       -2.676222    1.535347   -0.418627
 ---------------------------------------------------------------------

 SCF Done:  E(UB3LYP) =  -1136.13021161     A.U. after   21 cycles

 The electronic state is 2-A.
 Alpha  occ. eigenvalues --  -38.44728 -38.44452 -38.44199 -38.43634 -38.43622
 Alpha  occ. eigenvalues --  -38.43173 -38.42792  -2.20559  -2.20295  -2.20075
 Alpha  occ. eigenvalues --   -2.19575  -2.19493  -2.19001  -2.18624  -1.14271
 Alpha  occ. eigenvalues --   -1.14214  -1.14194  -1.13970  -1.13953  -1.13931
 Alpha  occ. eigenvalues --   -1.13772  -1.13722  -1.13692  -1.13284  -1.13225
 Alpha  occ. eigenvalues --   -1.13197  -1.13154  -1.13114  -1.13104  -1.12673
 Alpha  occ. eigenvalues --   -1.12659  -1.12647  -1.12297  -1.12285  -1.12274
 Alpha  occ. eigenvalues --   -0.18352  -0.13807  -0.11707  -0.10603
 Alpha virt. eigenvalues --   -0.06331  -0.05409  -0.04258  -0.03451  -0.02617
 Alpha virt. eigenvalues --   -0.02421  -0.02108  -0.01239  -0.00593  -0.00331
 Alpha virt. eigenvalues --   -0.00039   0.00291   0.00658   0.00770   0.00852

  Beta  occ. eigenvalues --  -38.44727 -38.44439 -38.44188 -38.43584 -38.43524
  Beta  occ. eigenvalues --  -38.43172 -38.42788  -2.20559  -2.20273  -2.20057
  Beta  occ. eigenvalues --   -2.19507  -2.19289  -2.19002  -2.18621  -1.14273
  Beta  occ. eigenvalues --   -1.14208  -1.14181  -1.13947  -1.13934  -1.13918
  Beta  occ. eigenvalues --   -1.13754  -1.13708  -1.13669  -1.13224  -1.13176
  Beta  occ. eigenvalues --   -1.13146  -1.13019  -1.12975  -1.12956  -1.12672
  Beta  occ. eigenvalues --   -1.12662  -1.12630  -1.12298  -1.12275  -1.12261
  Beta  occ. eigenvalues --   -0.17663  -0.13551  -0.11521
  Beta virt. eigenvalues --   -0.06706  -0.06232  -0.05365  -0.04231  -0.02734
  Beta virt. eigenvalues --   -0.02008  -0.01806  -0.01459  -0.01174  -0.00607
  Beta virt. eigenvalues --   -0.00323   0.00122   0.00349   0.00751   0.00778

 Mulliken charges and spin densities:
               1          2
     1  Na   0.187787   0.040464
     2  Na  -0.189455   0.033637
     3  Na  -0.013274   0.029788
     4  Na  -0.491227   0.712963
     5  Na   0.082827   0.033492
     6  Na   0.163533   0.052112
     7  Na   0.259809   0.097543
 Sum of Mulliken charges =  -0.00000   1.00000

 Dipole moment (field-independent basis, Debye):
    X=             -0.5577    Y=             -0.2735    Z=              0.0647  Tot=              0.6245
 Quadrupole moment (field-independent basis, Debye-Ang):
   XX=            -52.6043   YY=            -65.8655   ZZ=            -75.3058
   XY=              1.1372   XZ=             -0.5885   YZ=             -0.3701

 Normal termination of Gaussian 16 at Thu Dec  7 10:32:19 2023.
