 Gaussian 16, Revision B.01,
 Gaussian 16:  ES64L-G16RevB.01 20-Dec-2017

 -------------------------
 #P B3LYP/6-311+g(d) force
 -------------------------

 -----
 DPGEN
 -----
 Symbolic Z-matrix:
 Charge =  0 Multiplicity = 2

                         Standard orientation:
 ---------------------------------------------------------------------
 Center     Atomic      Atomic             Coordinates (Angstroms)
 Number     Number       Type             X           Y           Z
 ---------------------------------------------------------------------
      1         11           0       -3.463972   -0.096845    0.407255
      2         11           0        0.284489    0.435045   -1.603060
      3         11           0       -1.156777    2.867418   -0.364364
      4         11           0        2.187692   -2.263134   -0.063566
      5         11           0        3.206827    1.559364    0.190963
      6         11           0       -1.169392   -2.410105   -0.634688
      7         11           0        0.111133   -0.091744    2.067460
 ---------------------------------------------------------------------

 SCF Done:  E(UB3LYP) =  -1136.13028600     A.U. after   21 cycles

 The electronic state is 2-A.
 Alpha  occ. eigenvalues --  -38.44769 -38.44470 -38.44070 -38.43846 -38.43807
 Alpha  occ. eigenvalues --  -38.43170 -38.43050  -2.20521  -2.20252  -2.19907
 Alpha  occ. eigenvalues --   -2.19664  -2.19620  -2.19118  -2.18923  -1.14201
 Alpha  occ. eigenvalues --   -1.14168  -1.14166  -1.13926  -1.13914  -1.13887
 Alpha  occ. eigenvalues --   -1.13582  -1.13544  -1.13515  -1.13353  -1.13338
 Alpha  occ. eigenvalues --   -1.13332  -1.13300  -1.13270  -1.13232  -1.12802
 Alpha  occ. eigenvalues --   -1.12767  -1.12740  -1.12603  -1.12576  -1.12553
 Alpha  occ. eigenvalues --   -0.18076  -0.12845  -0.12173  -0.10627
 Alpha virt. eigenvalues --   -0.06387  -0.05392  -0.04335  -0.03186  -0.02841
 Alpha virt. eigenvalues --   -0.02530  -0.02021  -0.01320  -0.00701  -0.00244
 Alpha virt. eigenvalues --   -0.00062   0.00300   0.00634   0.00698   0.00765

  Beta  occ. eigenvalues --  -38.44768 -38.44464 -38.43985 -38.43844 -38.43797
  Beta  occ. eigenvalues --  -38.43107 -38.43035  -2.20521  -2.20242  -2.19748
  Beta  occ. eigenvalues --   -2.19662  -2.19604  -2.19003  -2.18898  -1.14192
  Beta  occ. eigenvalues --   -1.14169  -1.14165  -1.13918  -1.13897  -1.13882
  Beta  occ. eigenvalues --   -1.13475  -1.13437  -1.13398  -1.13333  -1.13330
  Beta  occ. eigenvalues --   -1.13322  -1.13293  -1.13250  -1.13224  -1.12726
  Beta  occ. eigenvalues --   -1.12681  -1.12659  -1.12576  -1.12551  -1.12526
  Beta  occ. eigenvalues --   -0.17369  -0.12658  -0.11904
  Beta virt. eigenvalues --   -0.06846  -0.06249  -0.05338  -0.04270  -0.02544
  Beta virt. eigenvalues --   -0.02149  -0.01844  -0.01502  -0.01247  -0.00730
  Beta virt. eigenvalues --   -0.00249   0.00076   0.00326   0.00700   0.00782

 Mulliken charges and spin densities:
               1          2
     1  Na  -0.007030   0.081996
     2  Na   0.238256   0.236153
     3  Na   0.012635  -0.062441
     4  Na   0.112108  -0.026356
     5  Na  -0.058689  -0.058760
     6  Na   0.076083   0.084432
     7  Na  -0.373362   0.744975
 Sum of Mulliken charges =  -0.00000   1.00000

 Dipole moment (field-independent basis, Debye):
    X=              0.3218    Y=              0.2803    Z=              0.3244  Tot=              0.5360
 Quadrupole moment (field-independent basis, Debye-Ang):
   XX=            -52.3040   YY=            -64.9548   ZZ=            -75.1481
   XY=             -0.0577   XZ=             -0.1192   YZ=              1.2127

 Normal termination of Gaussian 16 at Thu Dec  7 22:03:39 2023.
