 Gaussian 16, Revision B.01,
 Gaussian 16:  ES64L-G16RevB.01 20-Dec-2017

 -------------------------
 #P B3LYP/6-311+g(d) force
 -------------------------

 -----
 DPGEN
 -----
 Symbolic Z-matrix:
 Charge =  0 Multiplicity = 2

                         Standard orientation:
 ---------------------------------------------------------------------
 Center     Atomic      Atomic             Coordinates (Angstroms)
 Number     Number       Type             X           Y           Z
 ---------------------------------------------------------------------
      1         11           0        0.211023   -2.363296    0.123445
      2         11           0        2.408492    0.265432    0.218515
      3         11           0        3.280873   -3.502718   -0.302573
      4         11           0        2.959601    3.629835   -0.143536
      5         11           0       -0.600853    2.362359   -0.316621
      6         11           0       -3.158339    0.015661    1.452376
      7         11           0       -5.100798   -0.407274   -1.031608
 ---------------------------------------------------------------------

 SCF Done:  E(UB3LYP) =  -1136.11901960     A.U. after   19 cycles

 The electronic state is 2-A.
 Alpha  occ. eigenvalues --  -38.44807 -38.44603 -38.44539 -38.44400 -38.43804
 Alpha  occ. eigenvalues --  -38.43729 -38.43618  -2.20574  -2.20414  -2.20332
 Alpha  occ. eigenvalues --   -2.20221  -2.19599  -2.19529  -2.19437  -1.14271
 Alpha  occ. eigenvalues --   -1.14248  -1.14163  -1.14110  -1.14098  -1.14049
 Alpha  occ. eigenvalues --   -1.13993  -1.13986  -1.13936  -1.13930  -1.13924
 Alpha  occ. eigenvalues --   -1.13801  -1.13306  -1.13277  -1.13244  -1.13192
 Alpha  occ. eigenvalues --   -1.13189  -1.13142  -1.13073  -1.13071  -1.13043
 Alpha  occ. eigenvalues --   -0.16352  -0.13580  -0.12985  -0.09867
 Alpha virt. eigenvalues --   -0.06350  -0.05617  -0.05321  -0.03486  -0.02593
 Alpha virt. eigenvalues --   -0.02569  -0.02074  -0.01621  -0.01201  -0.01032
 Alpha virt. eigenvalues --   -0.00188  -0.00046   0.00111   0.00339   0.00534

  Beta  occ. eigenvalues --  -38.44781 -38.44589 -38.44522 -38.44392 -38.43809
  Beta  occ. eigenvalues --  -38.43694 -38.43530  -2.20526  -2.20388  -2.20298
  Beta  occ. eigenvalues --   -2.20211  -2.19615  -2.19462  -2.19273  -1.14239
  Beta  occ. eigenvalues --   -1.14208  -1.14132  -1.14090  -1.14081  -1.14024
  Beta  occ. eigenvalues --   -1.13970  -1.13961  -1.13932  -1.13904  -1.13890
  Beta  occ. eigenvalues --   -1.13798  -1.13300  -1.13294  -1.13223  -1.13144
  Beta  occ. eigenvalues --   -1.13140  -1.13102  -1.12961  -1.12958  -1.12944
  Beta  occ. eigenvalues --   -0.15882  -0.13116  -0.12633
  Beta virt. eigenvalues --   -0.06689  -0.05960  -0.05292  -0.04990  -0.03229
  Beta virt. eigenvalues --   -0.02439  -0.02295  -0.01984  -0.01387  -0.00811
  Beta virt. eigenvalues --   -0.00706   0.00075   0.00223   0.00257   0.00448

 Mulliken charges and spin densities:
               1          2
     1  Na  -0.596180   0.024646
     2  Na  -1.056149   0.147858
     3  Na   1.147998   0.100078
     4  Na   0.831165   0.232666
     5  Na  -0.218671   0.001563
     6  Na  -0.163902  -0.029356
     7  Na   0.055738   0.522546
 Sum of Mulliken charges =  -0.00000   1.00000

 Dipole moment (field-independent basis, Debye):
    X=              1.4766    Y=             -0.3864    Z=             -0.1414  Tot=              1.5328
 Quadrupole moment (field-independent basis, Debye-Ang):
   XX=            -74.6379   YY=            -58.6596   ZZ=            -68.8132
   XY=             -5.2812   XZ=              0.1817   YZ=             -0.2421

 Normal termination of Gaussian 16 at Mon Dec  4 00:25:19 2023.
