 Gaussian 16, Revision B.01,
 Gaussian 16:  ES64L-G16RevB.01 20-Dec-2017

 -------------------------
 #P B3LYP/6-311+g(d) force
 -------------------------

 -----
 DPGEN
 -----
 Symbolic Z-matrix:
 Charge =  0 Multiplicity = 2

                         Standard orientation:
 ---------------------------------------------------------------------
 Center     Atomic      Atomic             Coordinates (Angstroms)
 Number     Number       Type             X           Y           Z
 ---------------------------------------------------------------------
      1         11           0       -2.367292   -0.457587    1.519990
      2         11           0        0.757898   -1.615965    1.446071
      3         11           0        3.538393    0.119062   -0.106743
      4         11           0        0.310324    2.200315    1.272420
      5         11           0       -1.254824   -2.276397   -1.282089
      6         11           0        1.344498    0.247750   -1.568124
      7         11           0       -2.328996    1.782821   -1.281525
 ---------------------------------------------------------------------

 SCF Done:  E(UB3LYP) =  -1136.12494588     A.U. after   20 cycles

 The electronic state is 2-A.
 Alpha  occ. eigenvalues --  -38.44617 -38.44126 -38.44066 -38.43765 -38.43759
 Alpha  occ. eigenvalues --  -38.43471 -38.43402  -2.20512  -2.20034  -2.19978
 Alpha  occ. eigenvalues --   -2.19578  -2.19552  -2.19305  -2.19291  -1.14507
 Alpha  occ. eigenvalues --   -1.14117  -1.14097  -1.13677  -1.13665  -1.13636
 Alpha  occ. eigenvalues --   -1.13617  -1.13601  -1.13590  -1.13265  -1.13243
 Alpha  occ. eigenvalues --   -1.13220  -1.13207  -1.13198  -1.13171  -1.12995
 Alpha  occ. eigenvalues --   -1.12975  -1.12958  -1.12947  -1.12928  -1.12891
 Alpha  occ. eigenvalues --   -0.18386  -0.13331  -0.11652  -0.11533
 Alpha virt. eigenvalues --   -0.05901  -0.04918  -0.04500  -0.03467  -0.03295
 Alpha virt. eigenvalues --   -0.02863  -0.01603  -0.00762  -0.00578   0.00034
 Alpha virt. eigenvalues --    0.00253   0.00303   0.00406   0.00658   0.00906

  Beta  occ. eigenvalues --  -38.44617 -38.44101 -38.44025 -38.43737 -38.43736
  Beta  occ. eigenvalues --  -38.43440 -38.43364  -2.20512  -2.19961  -2.19934
  Beta  occ. eigenvalues --   -2.19528  -2.19510  -2.19249  -2.19223  -1.14491
  Beta  occ. eigenvalues --   -1.14111  -1.14096  -1.13630  -1.13617  -1.13599
  Beta  occ. eigenvalues --   -1.13563  -1.13560  -1.13555  -1.13232  -1.13194
  Beta  occ. eigenvalues --   -1.13187  -1.13177  -1.13166  -1.13141  -1.12957
  Beta  occ. eigenvalues --   -1.12926  -1.12912  -1.12899  -1.12872  -1.12847
  Beta  occ. eigenvalues --   -0.17619  -0.13156  -0.11382
  Beta virt. eigenvalues --   -0.07727  -0.05734  -0.04628  -0.04036  -0.03172
  Beta virt. eigenvalues --   -0.02842  -0.01952  -0.01515  -0.00585  -0.00305
  Beta virt. eigenvalues --    0.00186   0.00283   0.00345   0.00476   0.00767

 Mulliken charges and spin densities:
               1          2
     1  Na   0.154328   0.124920
     2  Na  -0.049658   0.300813
     3  Na   0.565698   0.048196
     4  Na  -0.277267   0.167883
     5  Na   0.015973   0.179309
     6  Na  -0.414038   0.157649
     7  Na   0.004963   0.021230
 Sum of Mulliken charges =  -0.00000   1.00000

 Dipole moment (field-independent basis, Debye):
    X=              0.1788    Y=              0.0116    Z=              0.2191  Tot=              0.2830
 Quadrupole moment (field-independent basis, Debye-Ang):
   XX=            -56.3370   YY=            -74.0084   ZZ=            -65.3321
   XY=              0.6683   XZ=              2.4462   YZ=              1.0511

 Normal termination of Gaussian 16 at Fri Dec  8 17:33:42 2023.
