 Gaussian 16, Revision B.01,
 Gaussian 16:  ES64L-G16RevB.01 20-Dec-2017

 -------------------------
 #P B3LYP/6-311+g(d) force
 -------------------------

 -----
 DPGEN
 -----
 Symbolic Z-matrix:
 Charge =  0 Multiplicity = 2

                         Standard orientation:
 ---------------------------------------------------------------------
 Center     Atomic      Atomic             Coordinates (Angstroms)
 Number     Number       Type             X           Y           Z
 ---------------------------------------------------------------------
      1         11           0       -1.665281    2.278778   -0.501659
      2         11           0        2.045370    1.632297   -1.105940
      3         11           0        1.767916   -2.133305   -0.600197
      4         11           0       -0.287352    0.228561    1.623491
      5         11           0       -3.898729   -0.608646    0.920828
      6         11           0        3.683642   -0.071229    1.124098
      7         11           0       -1.645566   -1.326456   -1.460621
 ---------------------------------------------------------------------

 SCF Done:  E(UB3LYP) =  -1136.12212858     A.U. after   25 cycles

 The electronic state is 2-A.
 Alpha  occ. eigenvalues --  -38.45223 -38.44792 -38.44501 -38.44082 -38.43515
 Alpha  occ. eigenvalues --  -38.43325 -38.43173  -2.21057  -2.20598  -2.20354
 Alpha  occ. eigenvalues --   -2.19905  -2.19365  -2.19163  -2.19005  -1.14761
 Alpha  occ. eigenvalues --   -1.14719  -1.14671  -1.14267  -1.14248  -1.14221
 Alpha  occ. eigenvalues --   -1.14028  -1.13994  -1.13992  -1.13582  -1.13566
 Alpha  occ. eigenvalues --   -1.13528  -1.13043  -1.13016  -1.13001  -1.12843
 Alpha  occ. eigenvalues --   -1.12833  -1.12794  -1.12698  -1.12678  -1.12618
 Alpha  occ. eigenvalues --   -0.18010  -0.14362  -0.11099  -0.10633
 Alpha virt. eigenvalues --   -0.07063  -0.05357  -0.04999  -0.03184  -0.02948
 Alpha virt. eigenvalues --   -0.02369  -0.02058  -0.01244  -0.00926  -0.00433
 Alpha virt. eigenvalues --    0.00060   0.00195   0.00227   0.00484   0.00664

  Beta  occ. eigenvalues --  -38.45205 -38.44760 -38.44466 -38.44063 -38.43476
  Beta  occ. eigenvalues --  -38.43304 -38.43166  -2.21023  -2.20536  -2.20287
  Beta  occ. eigenvalues --   -2.19873  -2.19297  -2.19129  -2.18995  -1.14724
  Beta  occ. eigenvalues --   -1.14703  -1.14643  -1.14222  -1.14208  -1.14179
  Beta  occ. eigenvalues --   -1.13983  -1.13950  -1.13945  -1.13548  -1.13542
  Beta  occ. eigenvalues --   -1.13505  -1.12998  -1.12964  -1.12940  -1.12823
  Beta  occ. eigenvalues --   -1.12805  -1.12749  -1.12695  -1.12663  -1.12601
  Beta  occ. eigenvalues --   -0.17424  -0.14083  -0.10735
  Beta virt. eigenvalues --   -0.07169  -0.06844  -0.05238  -0.04361  -0.03005
  Beta virt. eigenvalues --   -0.02640  -0.01917  -0.01408  -0.00936  -0.00719
  Beta virt. eigenvalues --   -0.00355   0.00135   0.00211   0.00360   0.00632

 Mulliken charges and spin densities:
               1          2
     1  Na   0.076530   0.126038
     2  Na  -0.262090   0.156187
     3  Na  -0.232843   0.107211
     4  Na  -0.579849   0.032841
     5  Na   0.543643   0.167343
     6  Na   0.793106   0.243977
     7  Na  -0.338497   0.166403
 Sum of Mulliken charges =  -0.00000   1.00000

 Dipole moment (field-independent basis, Debye):
    X=             -0.0789    Y=              0.2734    Z=              0.3898  Tot=              0.4826
 Quadrupole moment (field-independent basis, Debye-Ang):
   XX=            -49.5860   YY=            -78.5115   ZZ=            -67.9856
   XY=              0.1260   XZ=              0.4027   YZ=             -1.8605

 Normal termination of Gaussian 16 at Tue Dec  5 22:07:10 2023.
