 Gaussian 16, Revision B.01,
 Gaussian 16:  ES64L-G16RevB.01 20-Dec-2017

 -------------------------
 #P B3LYP/6-311+g(d) force
 -------------------------

 -----
 DPGEN
 -----
 Symbolic Z-matrix:
 Charge =  0 Multiplicity = 2

                         Standard orientation:
 ---------------------------------------------------------------------
 Center     Atomic      Atomic             Coordinates (Angstroms)
 Number     Number       Type             X           Y           Z
 ---------------------------------------------------------------------
      1         11           0        0.714347    2.894898   -0.042563
      2         11           0        0.040282   -0.087440    2.034438
      3         11           0       -2.479892    1.574075   -0.068132
      4         11           0        3.061911   -0.027017   -0.259805
      5         11           0       -2.597597   -1.787312   -0.304620
      6         11           0        1.062973   -2.557989    0.061067
      7         11           0        0.197976   -0.009216   -1.420386
 ---------------------------------------------------------------------

 SCF Done:  E(UB3LYP) =  -1136.13702742     A.U. after   19 cycles

 The electronic state is 2-A.
 Alpha  occ. eigenvalues --  -38.43923 -38.43690 -38.43655 -38.43393 -38.43392
 Alpha  occ. eigenvalues --  -38.43325 -38.42895  -2.19809  -2.19554  -2.19485
 Alpha  occ. eigenvalues --   -2.19315  -2.19311  -2.19180  -2.18976  -1.13528
 Alpha  occ. eigenvalues --   -1.13458  -1.13438  -1.13248  -1.13224  -1.13206
 Alpha  occ. eigenvalues --   -1.13156  -1.13131  -1.13119  -1.13063  -1.13011
 Alpha  occ. eigenvalues --   -1.12968  -1.12928  -1.12917  -1.12910  -1.12879
 Alpha  occ. eigenvalues --   -1.12835  -1.12811  -1.12652  -1.12603  -1.12587
 Alpha  occ. eigenvalues --   -0.19045  -0.13197  -0.12558  -0.10667
 Alpha virt. eigenvalues --   -0.05455  -0.05152  -0.04765  -0.03095  -0.02767
 Alpha virt. eigenvalues --   -0.02397  -0.01499  -0.01140  -0.00279  -0.00275
 Alpha virt. eigenvalues --    0.00016   0.00348   0.00825   0.00895   0.00911

  Beta  occ. eigenvalues --  -38.43914 -38.43686 -38.43649 -38.43383 -38.43322
  Beta  occ. eigenvalues --  -38.43290 -38.42840  -2.19796  -2.19550  -2.19478
  Beta  occ. eigenvalues --   -2.19303  -2.19177  -2.19123  -2.18879  -1.13515
  Beta  occ. eigenvalues --   -1.13439  -1.13423  -1.13245  -1.13212  -1.13193
  Beta  occ. eigenvalues --   -1.13140  -1.13122  -1.13116  -1.13046  -1.12945
  Beta  occ. eigenvalues --   -1.12920  -1.12879  -1.12852  -1.12822  -1.12810
  Beta  occ. eigenvalues --   -1.12790  -1.12780  -1.12580  -1.12533  -1.12516
  Beta  occ. eigenvalues --   -0.18318  -0.12932  -0.12315
  Beta virt. eigenvalues --   -0.06718  -0.05411  -0.05150  -0.04742  -0.02293
  Beta virt. eigenvalues --   -0.02007  -0.01416  -0.01309  -0.01081  -0.00325
  Beta virt. eigenvalues --   -0.00315   0.00157   0.00384   0.00882   0.00892

 Mulliken charges and spin densities:
               1          2
     1  Na   0.173781  -0.033478
     2  Na  -0.533704   0.716658
     3  Na   0.156824  -0.012937
     4  Na   0.401280   0.007724
     5  Na   0.124385  -0.009486
     6  Na   0.446683   0.061349
     7  Na  -0.769249   0.270170
 Sum of Mulliken charges =  -0.00000   1.00000

 Dipole moment (field-independent basis, Debye):
    X=              0.0301    Y=              0.0322    Z=              0.2194  Tot=              0.2238
 Quadrupole moment (field-independent basis, Debye-Ang):
   XX=            -56.3467   YY=            -61.2722   ZZ=            -75.0669
   XY=              0.5442   XZ=              0.2239   YZ=              0.3142

 Normal termination of Gaussian 16 at Thu Dec  7 09:11:48 2023.
