 Gaussian 16, Revision B.01,
 Gaussian 16:  ES64L-G16RevB.01 20-Dec-2017

 -------------------------
 #P B3LYP/6-311+g(d) force
 -------------------------

 -----
 DPGEN
 -----
 Symbolic Z-matrix:
 Charge =  0 Multiplicity = 2

                         Standard orientation:
 ---------------------------------------------------------------------
 Center     Atomic      Atomic             Coordinates (Angstroms)
 Number     Number       Type             X           Y           Z
 ---------------------------------------------------------------------
      1         11           0        3.164980   -0.984208    0.031689
      2         11           0       -0.081950   -2.900219   -0.252347
      3         11           0       -2.905810   -1.035395    0.271059
      4         11           0        0.215203    0.133140   -1.489971
      5         11           0       -2.366010    2.031790   -0.184699
      6         11           0        0.288861   -0.004307    1.566147
      7         11           0        1.684725    2.759198    0.058122
 ---------------------------------------------------------------------

 SCF Done:  E(UB3LYP) =  -1136.13345704     A.U. after   22 cycles

 The electronic state is 2-A.
 Alpha  occ. eigenvalues --  -38.44674 -38.44020 -38.43951 -38.43731 -38.43344
 Alpha  occ. eigenvalues --  -38.42836 -38.42661  -2.20483  -2.19830  -2.19791
 Alpha  occ. eigenvalues --   -2.19601  -2.19213  -2.18833  -2.18683  -1.14162
 Alpha  occ. eigenvalues --   -1.14143  -1.14112  -1.13507  -1.13504  -1.13502
 Alpha  occ. eigenvalues --   -1.13460  -1.13456  -1.13428  -1.13258  -1.13252
 Alpha  occ. eigenvalues --   -1.13245  -1.12911  -1.12877  -1.12838  -1.12621
 Alpha  occ. eigenvalues --   -1.12444  -1.12437  -1.12360  -1.12295  -1.12287
 Alpha  occ. eigenvalues --   -0.18770  -0.13247  -0.12497  -0.09894
 Alpha virt. eigenvalues --   -0.06117  -0.05406  -0.04704  -0.02930  -0.02539
 Alpha virt. eigenvalues --   -0.01905  -0.01711  -0.01436  -0.00619  -0.00446
 Alpha virt. eigenvalues --    0.00053   0.00336   0.00760   0.00786   0.00882

  Beta  occ. eigenvalues --  -38.44668 -38.44017 -38.43947 -38.43725 -38.43334
  Beta  occ. eigenvalues --  -38.42767 -38.42593  -2.20477  -2.19827  -2.19786
  Beta  occ. eigenvalues --   -2.19592  -2.19199  -2.18707  -2.18559  -1.14144
  Beta  occ. eigenvalues --   -1.14132  -1.14108  -1.13504  -1.13502  -1.13484
  Beta  occ. eigenvalues --   -1.13457  -1.13431  -1.13425  -1.13251  -1.13244
  Beta  occ. eigenvalues --   -1.13222  -1.12901  -1.12841  -1.12830  -1.12530
  Beta  occ. eigenvalues --   -1.12356  -1.12343  -1.12267  -1.12205  -1.12195
  Beta  occ. eigenvalues --   -0.18080  -0.13001  -0.12234
  Beta virt. eigenvalues --   -0.06112  -0.06059  -0.05368  -0.04688  -0.02175
  Beta virt. eigenvalues --   -0.01829  -0.01802  -0.01379  -0.00763  -0.00662
  Beta virt. eigenvalues --   -0.00484   0.00193   0.00375   0.00755   0.00816

 Mulliken charges and spin densities:
               1          2
     1  Na   0.164500  -0.102384
     2  Na   0.236986   0.012809
     3  Na   0.145984   0.050205
     4  Na  -0.400855   0.554941
     5  Na   0.184192  -0.046481
     6  Na  -0.347705   0.676470
     7  Na   0.016899  -0.145560
 Sum of Mulliken charges =  -0.00000   1.00000

 Dipole moment (field-independent basis, Debye):
    X=              0.5353    Y=              0.1632    Z=              0.0162  Tot=              0.5599
 Quadrupole moment (field-independent basis, Debye-Ang):
   XX=            -51.9524   YY=            -58.6854   ZZ=            -78.8641
   XY=             -0.3359   XZ=             -0.2548   YZ=              0.1719

 Normal termination of Gaussian 16 at Tue Nov 28 20:35:52 2023.
