 Gaussian 16, Revision B.01,
 Gaussian 16:  ES64L-G16RevB.01 20-Dec-2017

 -------------------------
 #P B3LYP/6-311+g(d) force
 -------------------------

 -----
 DPGEN
 -----
 Symbolic Z-matrix:
 Charge =  0 Multiplicity = 2

                         Standard orientation:
 ---------------------------------------------------------------------
 Center     Atomic      Atomic             Coordinates (Angstroms)
 Number     Number       Type             X           Y           Z
 ---------------------------------------------------------------------
      1         11           0       -1.046102   -2.680069   -0.268451
      2         11           0       -0.046747    0.109597   -1.467932
      3         11           0        0.154281    0.140062    1.881164
      4         11           0       -3.153397   -0.114634    0.020495
      5         11           0        2.223914   -1.857663    0.202237
      6         11           0       -0.784302    3.121596    0.014559
      7         11           0        2.652353    1.281112   -0.382071
 ---------------------------------------------------------------------

 SCF Done:  E(UB3LYP) =  -1136.13692103     A.U. after   20 cycles

 The electronic state is 2-A.
 Alpha  occ. eigenvalues --  -38.44087 -38.43861 -38.43800 -38.43361 -38.43335
 Alpha  occ. eigenvalues --  -38.43167 -38.42817  -2.19911  -2.19689  -2.19661
 Alpha  occ. eigenvalues --   -2.19272  -2.19226  -2.19109  -2.18867  -1.13587
 Alpha  occ. eigenvalues --   -1.13579  -1.13546  -1.13405  -1.13347  -1.13340
 Alpha  occ. eigenvalues --   -1.13326  -1.13313  -1.13295  -1.12976  -1.12941
 Alpha  occ. eigenvalues --   -1.12924  -1.12916  -1.12875  -1.12843  -1.12800
 Alpha  occ. eigenvalues --   -1.12724  -1.12716  -1.12553  -1.12502  -1.12478
 Alpha  occ. eigenvalues --   -0.18982  -0.13074  -0.12631  -0.10482
 Alpha virt. eigenvalues --   -0.05681  -0.05125  -0.04777  -0.03009  -0.02792
 Alpha virt. eigenvalues --   -0.02208  -0.01479  -0.01332  -0.00389  -0.00287
 Alpha virt. eigenvalues --    0.00044   0.00353   0.00832   0.00847   0.00923

  Beta  occ. eigenvalues --  -38.44085 -38.43859 -38.43786 -38.43352 -38.43327
  Beta  occ. eigenvalues --  -38.43077 -38.42756  -2.19911  -2.19668  -2.19661
  Beta  occ. eigenvalues --   -2.19260  -2.19215  -2.18944  -2.18759  -1.13585
  Beta  occ. eigenvalues --   -1.13569  -1.13544  -1.13387  -1.13331  -1.13320
  Beta  occ. eigenvalues --   -1.13313  -1.13301  -1.13292  -1.12967  -1.12928
  Beta  occ. eigenvalues --   -1.12906  -1.12885  -1.12853  -1.12833  -1.12694
  Beta  occ. eigenvalues --   -1.12609  -1.12595  -1.12473  -1.12419  -1.12400
  Beta  occ. eigenvalues --   -0.18258  -0.12811  -0.12385
  Beta virt. eigenvalues --   -0.06558  -0.05679  -0.05085  -0.04763  -0.02225
  Beta virt. eigenvalues --   -0.02039  -0.01409  -0.01280  -0.01134  -0.00422
  Beta virt. eigenvalues --   -0.00328   0.00171   0.00386   0.00830   0.00882

 Mulliken charges and spin densities:
               1          2
     1  Na   0.214230   0.005215
     2  Na  -0.429978   0.351065
     3  Na  -0.450030   0.744160
     4  Na   0.031506  -0.076221
     5  Na   0.412182   0.102291
     6  Na  -0.037785  -0.111676
     7  Na   0.259875  -0.014834
 Sum of Mulliken charges =  -0.00000   1.00000

 Dipole moment (field-independent basis, Debye):
    X=             -0.2438    Y=              0.3118    Z=              0.1584  Tot=              0.4263
 Quadrupole moment (field-independent basis, Debye-Ang):
   XX=            -56.6463   YY=            -59.1843   ZZ=            -76.0096
   XY=             -0.5419   XZ=             -0.5677   YZ=             -0.1098

 Normal termination of Gaussian 16 at Thu Dec  7 05:26:04 2023.
