 Gaussian 16, Revision B.01,
 Gaussian 16:  ES64L-G16RevB.01 20-Dec-2017

 -------------------------
 #P B3LYP/6-311+g(d) force
 -------------------------

 -----
 DPGEN
 -----
 Symbolic Z-matrix:
 Charge =  0 Multiplicity = 2

                         Standard orientation:
 ---------------------------------------------------------------------
 Center     Atomic      Atomic             Coordinates (Angstroms)
 Number     Number       Type             X           Y           Z
 ---------------------------------------------------------------------
      1         11           0        2.105697   -2.143553   -0.210192
      2         11           0       -0.195672    0.309905   -1.292447
      3         11           0        2.996299    0.733237   -0.481603
      4         11           0       -3.265371    0.872437   -0.438470
      5         11           0        0.074944    3.330755    0.283365
      6         11           0       -1.730826   -2.877177   -0.084655
      7         11           0        0.014930   -0.225604    2.224002
 ---------------------------------------------------------------------

 SCF Done:  E(UB3LYP) =  -1136.13026452     A.U. after   19 cycles

 The electronic state is 2-A.
 Alpha  occ. eigenvalues --  -38.44458 -38.44175 -38.44100 -38.43795 -38.43693
 Alpha  occ. eigenvalues --  -38.43610 -38.43043  -2.20243  -2.19937  -2.19877
 Alpha  occ. eigenvalues --   -2.19635  -2.19565  -2.19477  -2.19017  -1.13936
 Alpha  occ. eigenvalues --   -1.13896  -1.13859  -1.13619  -1.13591  -1.13580
 Alpha  occ. eigenvalues --   -1.13552  -1.13536  -1.13517  -1.13341  -1.13297
 Alpha  occ. eigenvalues --   -1.13266  -1.13237  -1.13234  -1.13194  -1.13136
 Alpha  occ. eigenvalues --   -1.13118  -1.13070  -1.12720  -1.12666  -1.12642
 Alpha  occ. eigenvalues --   -0.18057  -0.12888  -0.12294  -0.10481
 Alpha virt. eigenvalues --   -0.06021  -0.05265  -0.04977  -0.02921  -0.02822
 Alpha virt. eigenvalues --   -0.02422  -0.01649  -0.01587  -0.00717  -0.00591
 Alpha virt. eigenvalues --   -0.00039   0.00298   0.00710   0.00783   0.00819

  Beta  occ. eigenvalues --  -38.44443 -38.44177 -38.44095 -38.43686 -38.43680
  Beta  occ. eigenvalues --  -38.43603 -38.43010  -2.20216  -2.19943  -2.19870
  Beta  occ. eigenvalues --   -2.19545  -2.19468  -2.19433  -2.18958  -1.13911
  Beta  occ. eigenvalues --   -1.13875  -1.13843  -1.13615  -1.13594  -1.13581
  Beta  occ. eigenvalues --   -1.13542  -1.13523  -1.13515  -1.13330  -1.13215
  Beta  occ. eigenvalues --   -1.13171  -1.13160  -1.13131  -1.13124  -1.13103
  Beta  occ. eigenvalues --   -1.13088  -1.13054  -1.12665  -1.12619  -1.12604
  Beta  occ. eigenvalues --   -0.17398  -0.12572  -0.12145
  Beta virt. eigenvalues --   -0.06665  -0.05885  -0.05141  -0.04967  -0.02249
  Beta virt. eigenvalues --   -0.02155  -0.01530  -0.01496  -0.01380  -0.00734
  Beta virt. eigenvalues --   -0.00616   0.00135   0.00358   0.00728   0.00840

 Mulliken charges and spin densities:
               1          2
     1  Na   0.207705   0.048303
     2  Na  -0.336114   0.002412
     3  Na   0.386377   0.104957
     4  Na   0.123522   0.032810
     5  Na   0.050755   0.070338
     6  Na   0.034997  -0.018206
     7  Na  -0.467243   0.759388
 Sum of Mulliken charges =  -0.00000   1.00000

 Dipole moment (field-independent basis, Debye):
    X=             -0.4356    Y=              0.1400    Z=              0.1963  Tot=              0.4978
 Quadrupole moment (field-independent basis, Debye-Ang):
   XX=            -58.4613   YY=            -58.0368   ZZ=            -76.0922
   XY=              0.6317   XZ=             -0.3824   YZ=              1.1388

 Normal termination of Gaussian 16 at Fri Dec  8 04:53:00 2023.
