 Gaussian 16, Revision B.01,
 Gaussian 16:  ES64L-G16RevB.01 20-Dec-2017

 -------------------------
 #P B3LYP/6-311+g(d) force
 -------------------------

 -----
 DPGEN
 -----
 Symbolic Z-matrix:
 Charge =  0 Multiplicity = 2

                         Standard orientation:
 ---------------------------------------------------------------------
 Center     Atomic      Atomic             Coordinates (Angstroms)
 Number     Number       Type             X           Y           Z
 ---------------------------------------------------------------------
      1         11           0       -0.031905   -2.755463   -0.032688
      2         11           0        0.042621   -0.216265    1.890516
      3         11           0       -2.054136    2.216277    0.077848
      4         11           0        2.821941   -0.809512   -0.027012
      5         11           0       -2.869684   -0.850197   -0.167172
      6         11           0        0.243652    0.089531   -1.803284
      7         11           0        1.847510    2.325629    0.061791
 ---------------------------------------------------------------------

 SCF Done:  E(UB3LYP) =  -1136.13925891     A.U. after   19 cycles

 The electronic state is 2-A.
 Alpha  occ. eigenvalues --  -38.43801 -38.43782 -38.43578 -38.43506 -38.43391
 Alpha  occ. eigenvalues --  -38.43315 -38.42951  -2.19707  -2.19654  -2.19419
 Alpha  occ. eigenvalues --   -2.19367  -2.19345  -2.19288  -2.18864  -1.13405
 Alpha  occ. eigenvalues --   -1.13377  -1.13348  -1.13343  -1.13317  -1.13307
 Alpha  occ. eigenvalues --   -1.13084  -1.13083  -1.13065  -1.13052  -1.13037
 Alpha  occ. eigenvalues --   -1.13029  -1.12998  -1.12971  -1.12960  -1.12957
 Alpha  occ. eigenvalues --   -1.12909  -1.12903  -1.12544  -1.12524  -1.12489
 Alpha  occ. eigenvalues --   -0.19093  -0.13306  -0.12433  -0.10894
 Alpha virt. eigenvalues --   -0.05442  -0.05239  -0.04509  -0.03318  -0.02873
 Alpha virt. eigenvalues --   -0.02575  -0.01399  -0.01020  -0.00261  -0.00130
 Alpha virt. eigenvalues --   -0.00007   0.00378   0.00837   0.00919   0.00934

  Beta  occ. eigenvalues --  -38.43793 -38.43779 -38.43577 -38.43502 -38.43305
  Beta  occ. eigenvalues --  -38.43236 -38.42943  -2.19697  -2.19650  -2.19418
  Beta  occ. eigenvalues --   -2.19363  -2.19188  -2.19145  -2.18854  -1.13399
  Beta  occ. eigenvalues --   -1.13349  -1.13346  -1.13331  -1.13309  -1.13288
  Beta  occ. eigenvalues --   -1.13082  -1.13063  -1.13061  -1.13047  -1.13008
  Beta  occ. eigenvalues --   -1.12996  -1.12931  -1.12868  -1.12861  -1.12846
  Beta  occ. eigenvalues --   -1.12808  -1.12803  -1.12537  -1.12488  -1.12480
  Beta  occ. eigenvalues --   -0.18335  -0.13060  -0.12178
  Beta virt. eigenvalues --   -0.06948  -0.05401  -0.05246  -0.04494  -0.02485
  Beta virt. eigenvalues --   -0.02075  -0.01511  -0.01312  -0.00954  -0.00319
  Beta virt. eigenvalues --   -0.00191   0.00126   0.00394   0.00898   0.00911

 Mulliken charges and spin densities:
               1          2
     1  Na   0.312384  -0.065112
     2  Na  -0.458183   0.743131
     3  Na  -0.007364  -0.116893
     4  Na   0.406698  -0.037195
     5  Na   0.082415  -0.057820
     6  Na  -0.374884   0.655681
     7  Na   0.038934  -0.121792
 Sum of Mulliken charges =  -0.00000   1.00000

 Dipole moment (field-independent basis, Debye):
    X=              0.0438    Y=              0.1208    Z=              0.0333  Tot=              0.1328
 Quadrupole moment (field-independent basis, Debye-Ang):
   XX=            -57.3856   YY=            -63.1524   ZZ=            -73.5777
   XY=              0.1435   XZ=              0.4748   YZ=              0.8325

 Normal termination of Gaussian 16 at Thu Dec  7 23:07:34 2023.
