 Gaussian 16, Revision B.01,
 Gaussian 16:  ES64L-G16RevB.01 20-Dec-2017

 -------------------------
 #P B3LYP/6-311+g(d) force
 -------------------------

 -----
 DPGEN
 -----
 Symbolic Z-matrix:
 Charge =  0 Multiplicity = 2

                         Standard orientation:
 ---------------------------------------------------------------------
 Center     Atomic      Atomic             Coordinates (Angstroms)
 Number     Number       Type             X           Y           Z
 ---------------------------------------------------------------------
      1         11           0        0.072928   -0.150536   -0.082996
      2         11           0       -3.579692   -0.947728    0.126067
      3         11           0       -1.369996   -3.057197    0.034641
      4         11           0        2.635403   -2.730568    0.032012
      5         11           0        3.730132    0.875894   -0.191213
      6         11           0        0.749377    3.283850    0.440520
      7         11           0       -2.238152    2.726284   -0.359030
 ---------------------------------------------------------------------

 SCF Done:  E(UB3LYP) =  -1136.12594781     A.U. after   26 cycles

 The electronic state is 2-A.
 Alpha  occ. eigenvalues --  -38.44368 -38.44305 -38.44161 -38.43822 -38.43792
 Alpha  occ. eigenvalues --  -38.43763 -38.43560  -2.20199  -2.20170  -2.20036
 Alpha  occ. eigenvalues --   -2.19679  -2.19637  -2.19561  -2.19363  -1.13897
 Alpha  occ. eigenvalues --   -1.13882  -1.13880  -1.13842  -1.13839  -1.13824
 Alpha  occ. eigenvalues --   -1.13774  -1.13676  -1.13649  -1.13330  -1.13326
 Alpha  occ. eigenvalues --   -1.13302  -1.13290  -1.13283  -1.13266  -1.13231
 Alpha  occ. eigenvalues --   -1.13199  -1.13194  -1.13031  -1.13003  -1.12986
 Alpha  occ. eigenvalues --   -0.17148  -0.13788  -0.13408  -0.09704
 Alpha virt. eigenvalues --   -0.06608  -0.05751  -0.04379  -0.03231  -0.02474
 Alpha virt. eigenvalues --   -0.02286  -0.02094  -0.01949  -0.01636  -0.00066
 Alpha virt. eigenvalues --    0.00017   0.00402   0.00495   0.00561   0.00712

  Beta  occ. eigenvalues --  -38.44361 -38.44294 -38.44171 -38.43781 -38.43756
  Beta  occ. eigenvalues --  -38.43718 -38.43497  -2.20191  -2.20157  -2.20053
  Beta  occ. eigenvalues --   -2.19604  -2.19569  -2.19478  -2.19247  -1.13899
  Beta  occ. eigenvalues --   -1.13882  -1.13877  -1.13836  -1.13792  -1.13785
  Beta  occ. eigenvalues --   -1.13764  -1.13689  -1.13666  -1.13277  -1.13273
  Beta  occ. eigenvalues --   -1.13250  -1.13245  -1.13236  -1.13220  -1.13175
  Beta  occ. eigenvalues --   -1.13144  -1.13128  -1.12952  -1.12922  -1.12903
  Beta  occ. eigenvalues --   -0.16903  -0.13071  -0.12817
  Beta virt. eigenvalues --   -0.06624  -0.06427  -0.05481  -0.04237  -0.02603
  Beta virt. eigenvalues --   -0.02135  -0.02009  -0.01854  -0.01588  -0.01527
  Beta virt. eigenvalues --    0.00026   0.00361   0.00497   0.00587   0.00714

 Mulliken charges and spin densities:
               1          2
     1  Na  -5.284878  -0.205615
     2  Na   1.155454   0.296806
     3  Na   0.550061   0.081075
     4  Na   0.946075   0.170032
     5  Na   0.669199   0.364957
     6  Na   0.963936   0.074448
     7  Na   1.000153   0.218297
 Sum of Mulliken charges =  -0.00000   1.00000

 Dipole moment (field-independent basis, Debye):
    X=             -0.6578    Y=              0.0103    Z=              0.0643  Tot=              0.6610
 Quadrupole moment (field-independent basis, Debye-Ang):
   XX=            -62.1772   YY=            -63.1435   ZZ=            -72.3450
   XY=             -3.5173   XZ=              0.6757   YZ=              0.6740

 Normal termination of Gaussian 16 at Fri Dec  8 18:28:41 2023.
