 Gaussian 16, Revision B.01,
 Gaussian 16:  ES64L-G16RevB.01 20-Dec-2017

 -------------------------
 #P B3LYP/6-311+g(d) force
 -------------------------

 -----
 DPGEN
 -----
 Symbolic Z-matrix:
 Charge =  0 Multiplicity = 2

                         Standard orientation:
 ---------------------------------------------------------------------
 Center     Atomic      Atomic             Coordinates (Angstroms)
 Number     Number       Type             X           Y           Z
 ---------------------------------------------------------------------
      1         11           0        0.523729   -1.381194   -0.072329
      2         11           0       -0.511386    0.042195    2.076871
      3         11           0        3.294420   -0.514465   -0.021929
      4         11           0        1.276598    1.566613    0.049771
      5         11           0       -2.245670   -1.454924   -0.047829
      6         11           0       -0.554388    0.226794   -2.065029
      7         11           0       -1.783302    1.514981    0.080471
 ---------------------------------------------------------------------

 SCF Done:  E(UB3LYP) =  -1136.08139782     A.U. after   77 cycles

 The electronic state is 2-A.
 Alpha  occ. eigenvalues --  -38.45089 -38.44991 -38.44722 -38.43337 -38.43249
 Alpha  occ. eigenvalues --  -38.43099 -38.42637  -2.21225  -2.21128  -2.20634
 Alpha  occ. eigenvalues --   -2.19440  -2.19410  -2.19378  -2.18777  -1.15001
 Alpha  occ. eigenvalues --   -1.14909  -1.14895  -1.14801  -1.14781  -1.14685
 Alpha  occ. eigenvalues --   -1.14375  -1.14312  -1.14243  -1.13358  -1.13175
 Alpha  occ. eigenvalues --   -1.13115  -1.13090  -1.13069  -1.13048  -1.13025
 Alpha  occ. eigenvalues --   -1.12903  -1.12826  -1.12484  -1.12431  -1.12369
 Alpha  occ. eigenvalues --   -0.21348  -0.14177  -0.12803  -0.11683
 Alpha virt. eigenvalues --   -0.06053  -0.04032  -0.03915  -0.03863  -0.02894
 Alpha virt. eigenvalues --   -0.02607  -0.01647  -0.00421  -0.00334   0.00265
 Alpha virt. eigenvalues --    0.00616   0.00761   0.00800   0.00944   0.01102

  Beta  occ. eigenvalues --  -38.44981 -38.44887 -38.44730 -38.43325 -38.43230
  Beta  occ. eigenvalues --  -38.43072 -38.42624  -2.21030  -2.20940  -2.20652
  Beta  occ. eigenvalues --   -2.19419  -2.19382  -2.19345  -2.18760  -1.14880
  Beta  occ. eigenvalues --   -1.14786  -1.14755  -1.14665  -1.14638  -1.14545
  Beta  occ. eigenvalues --   -1.14385  -1.14327  -1.14244  -1.13351  -1.13170
  Beta  occ. eigenvalues --   -1.13064  -1.13036  -1.13022  -1.12992  -1.12943
  Beta  occ. eigenvalues --   -1.12897  -1.12814  -1.12478  -1.12370  -1.12363
  Beta  occ. eigenvalues --   -0.20424  -0.13911  -0.11334
  Beta virt. eigenvalues --   -0.08541  -0.05933  -0.03929  -0.03227  -0.03113
  Beta virt. eigenvalues --   -0.02207  -0.01978  -0.01603  -0.00383  -0.00115
  Beta virt. eigenvalues --    0.00307   0.00634   0.00762   0.00991   0.01053

 Mulliken charges and spin densities:
               1          2
     1  Na  -0.456163   0.106332
     2  Na   0.136961   0.474452
     3  Na   0.196594  -0.053182
     4  Na  -0.420040  -0.030047
     5  Na  -0.004273  -0.012405
     6  Na   0.140178   0.469812
     7  Na   0.406744   0.045039
 Sum of Mulliken charges =  -0.00000   1.00000

 Dipole moment (field-independent basis, Debye):
    X=              0.4511    Y=              0.1429    Z=              0.0246  Tot=              0.4739
 Quadrupole moment (field-independent basis, Debye-Ang):
   XX=            -54.0603   YY=            -77.6044   ZZ=            -63.9531
   XY=             -0.0299   XZ=             -0.0036   YZ=             -2.2225

 Normal termination of Gaussian 16 at Fri Dec  8 17:55:40 2023.
