 Gaussian 16, Revision B.01,
 Gaussian 16:  ES64L-G16RevB.01 20-Dec-2017

 -------------------------
 #P B3LYP/6-311+g(d) force
 -------------------------

 -----
 DPGEN
 -----
 Symbolic Z-matrix:
 Charge =  0 Multiplicity = 2

                         Standard orientation:
 ---------------------------------------------------------------------
 Center     Atomic      Atomic             Coordinates (Angstroms)
 Number     Number       Type             X           Y           Z
 ---------------------------------------------------------------------
      1         11           0        3.586717   -1.613937   -0.367841
      2         11           0       -1.212374    2.517437   -0.124973
      3         11           0        2.063531    2.265977    0.337401
      4         11           0       -3.374256    0.216181   -0.213232
      5         11           0        0.418433   -0.633268    2.003098
      6         11           0       -2.086878   -2.535214    0.036226
      7         11           0        0.604828   -0.217176   -1.670680
 ---------------------------------------------------------------------

 SCF Done:  E(UB3LYP) =  -1136.12456302     A.U. after   22 cycles

 The electronic state is 2-A.
 Alpha  occ. eigenvalues --  -38.44695 -38.44375 -38.44253 -38.44180 -38.44003
 Alpha  occ. eigenvalues --  -38.43828 -38.42951  -2.20454  -2.20235  -2.20080
 Alpha  occ. eigenvalues --   -2.20035  -2.19830  -2.19660  -2.18817  -1.14121
 Alpha  occ. eigenvalues --   -1.14115  -1.14084  -1.13945  -1.13899  -1.13879
 Alpha  occ. eigenvalues --   -1.13767  -1.13747  -1.13722  -1.13709  -1.13679
 Alpha  occ. eigenvalues --   -1.13647  -1.13488  -1.13482  -1.13472  -1.13328
 Alpha  occ. eigenvalues --   -1.13289  -1.13275  -1.12497  -1.12478  -1.12463
 Alpha  occ. eigenvalues --   -0.17958  -0.13509  -0.12001  -0.10487
 Alpha virt. eigenvalues --   -0.06627  -0.05876  -0.04197  -0.03320  -0.02747
 Alpha virt. eigenvalues --   -0.02460  -0.02158  -0.01523  -0.00831  -0.00219
 Alpha virt. eigenvalues --   -0.00142   0.00192   0.00566   0.00665   0.00702

  Beta  occ. eigenvalues --  -38.44679 -38.44369 -38.44242 -38.44134 -38.44002
  Beta  occ. eigenvalues --  -38.43736 -38.42948  -2.20426  -2.20225  -2.20062
  Beta  occ. eigenvalues --   -2.19950  -2.19829  -2.19490  -2.18814  -1.14100
  Beta  occ. eigenvalues --   -1.14086  -1.14069  -1.13942  -1.13893  -1.13860
  Beta  occ. eigenvalues --   -1.13751  -1.13712  -1.13703  -1.13658  -1.13626
  Beta  occ. eigenvalues --   -1.13582  -1.13490  -1.13478  -1.13457  -1.13214
  Beta  occ. eigenvalues --   -1.13172  -1.13151  -1.12497  -1.12477  -1.12441
  Beta  occ. eigenvalues --   -0.17333  -0.13276  -0.11748
  Beta virt. eigenvalues --   -0.06844  -0.06378  -0.05751  -0.04105  -0.02731
  Beta virt. eigenvalues --   -0.02218  -0.01950  -0.01573  -0.01299  -0.00843
  Beta virt. eigenvalues --   -0.00212   0.00045   0.00260   0.00674   0.00706

 Mulliken charges and spin densities:
               1          2
     1  Na   0.034791   0.020418
     2  Na   0.041691   0.005722
     3  Na   0.214024   0.077563
     4  Na  -0.178744   0.025686
     5  Na  -0.299176   0.462889
     6  Na   0.367870   0.067778
     7  Na  -0.180456   0.339944
 Sum of Mulliken charges =  -0.00000   1.00000

 Dipole moment (field-independent basis, Debye):
    X=              0.6231    Y=             -0.2869    Z=              0.1082  Tot=              0.6945
 Quadrupole moment (field-independent basis, Debye-Ang):
   XX=            -53.4299   YY=            -66.6150   ZZ=            -75.1736
   XY=              0.8946   XZ=              1.4534   YZ=              0.9194

 Normal termination of Gaussian 16 at Thu Dec  7 04:27:53 2023.
