 Gaussian 16, Revision B.01,
 Gaussian 16:  ES64L-G16RevB.01 20-Dec-2017

 -------------------------
 #P B3LYP/6-311+g(d) force
 -------------------------

 -----
 DPGEN
 -----
 Symbolic Z-matrix:
 Charge =  0 Multiplicity = 2

                         Standard orientation:
 ---------------------------------------------------------------------
 Center     Atomic      Atomic             Coordinates (Angstroms)
 Number     Number       Type             X           Y           Z
 ---------------------------------------------------------------------
      1         11           0        0.947318   -2.064295   -0.137553
      2         11           0        1.626428    2.056565   -0.119435
      3         11           0        3.881762   -0.516965   -0.426527
      4         11           0       -2.116678    2.290234   -0.738153
      5         11           0       -0.302498    0.807936    2.573922
      6         11           0       -2.387861   -1.984355    0.950849
      7         11           0       -1.648471   -0.589120   -2.103102
 ---------------------------------------------------------------------

 SCF Done:  E(UB3LYP) =  -1136.12815848     A.U. after   19 cycles

 The electronic state is 2-A.
 Alpha  occ. eigenvalues --  -38.44847 -38.44289 -38.44099 -38.43857 -38.43700
 Alpha  occ. eigenvalues --  -38.43698 -38.43337  -2.20653  -2.20150  -2.19914
 Alpha  occ. eigenvalues --   -2.19663  -2.19510  -2.19499  -2.19171  -1.14308
 Alpha  occ. eigenvalues --   -1.14288  -1.14262  -1.13819  -1.13813  -1.13767
 Alpha  occ. eigenvalues --   -1.13581  -1.13566  -1.13549  -1.13331  -1.13324
 Alpha  occ. eigenvalues --   -1.13313  -1.13197  -1.13197  -1.13183  -1.13163
 Alpha  occ. eigenvalues --   -1.13132  -1.13102  -1.12875  -1.12857  -1.12774
 Alpha  occ. eigenvalues --   -0.17605  -0.13085  -0.11883  -0.11772
 Alpha virt. eigenvalues --   -0.05759  -0.05323  -0.04587  -0.03488  -0.03213
 Alpha virt. eigenvalues --   -0.03156  -0.01627  -0.01133  -0.00418  -0.00118
 Alpha virt. eigenvalues --    0.00068   0.00159   0.00330   0.00674   0.00821

  Beta  occ. eigenvalues --  -38.44749 -38.44233 -38.44079 -38.43854 -38.43699
  Beta  occ. eigenvalues --  -38.43680 -38.43333  -2.20471  -2.20046  -2.19879
  Beta  occ. eigenvalues --   -2.19658  -2.19503  -2.19476  -2.19165  -1.14184
  Beta  occ. eigenvalues --   -1.14164  -1.14132  -1.13749  -1.13742  -1.13689
  Beta  occ. eigenvalues --   -1.13548  -1.13545  -1.13515  -1.13329  -1.13317
  Beta  occ. eigenvalues --   -1.13311  -1.13192  -1.13181  -1.13160  -1.13143
  Beta  occ. eigenvalues --   -1.13116  -1.13097  -1.12866  -1.12845  -1.12773
  Beta  occ. eigenvalues --   -0.16903  -0.12828  -0.11695
  Beta virt. eigenvalues --   -0.07885  -0.05526  -0.05240  -0.03961  -0.03214
  Beta virt. eigenvalues --   -0.02673  -0.02312  -0.01551  -0.01061  -0.00166
  Beta virt. eigenvalues --   -0.00072   0.00091   0.00348   0.00495   0.00797

 Mulliken charges and spin densities:
               1          2
     1  Na  -0.283395   0.202514
     2  Na  -0.144552   0.083379
     3  Na   0.205315  -0.158096
     4  Na   0.025505   0.030398
     5  Na  -0.140632   0.504314
     6  Na   0.306721   0.052633
     7  Na   0.031038   0.284858
 Sum of Mulliken charges =  -0.00000   1.00000

 Dipole moment (field-independent basis, Debye):
    X=             -0.2197    Y=             -0.0222    Z=              0.2333  Tot=              0.3212
 Quadrupole moment (field-independent basis, Debye-Ang):
   XX=            -58.6643   YY=            -72.0852   ZZ=            -66.2998
   XY=              1.0930   XZ=             -1.6730   YZ=             -1.0077

 Normal termination of Gaussian 16 at Mon Dec  4 04:26:42 2023.
