 Gaussian 16, Revision B.01,
 Gaussian 16:  ES64L-G16RevB.01 20-Dec-2017

 -------------------------
 #P B3LYP/6-311+g(d) force
 -------------------------

 -----
 DPGEN
 -----
 Symbolic Z-matrix:
 Charge =  0 Multiplicity = 2

                         Standard orientation:
 ---------------------------------------------------------------------
 Center     Atomic      Atomic             Coordinates (Angstroms)
 Number     Number       Type             X           Y           Z
 ---------------------------------------------------------------------
      1         11           0       -2.829011    0.773060    0.165218
      2         11           0       -0.327119    2.887262   -0.411813
      3         11           0       -0.158513   -0.529159   -1.488409
      4         11           0        2.200539   -2.093669    0.098868
      5         11           0       -2.219654   -2.372108    0.169199
      6         11           0        0.301395    0.606927    1.535548
      7         11           0        3.032364    0.727687   -0.068610
 ---------------------------------------------------------------------

 SCF Done:  E(UB3LYP) =  -1136.12865134     A.U. after   20 cycles

 The electronic state is 2-A.
 Alpha  occ. eigenvalues --  -38.44457 -38.44094 -38.44013 -38.43729 -38.43114
 Alpha  occ. eigenvalues --  -38.43020 -38.42735  -2.20361  -2.19987  -2.19923
 Alpha  occ. eigenvalues --   -2.19576  -2.19040  -2.19007  -2.18752  -1.14109
 Alpha  occ. eigenvalues --   -1.14027  -1.13990  -1.13654  -1.13625  -1.13614
 Alpha  occ. eigenvalues --   -1.13611  -1.13589  -1.13571  -1.13253  -1.13225
 Alpha  occ. eigenvalues --   -1.13216  -1.12817  -1.12726  -1.12671  -1.12653
 Alpha  occ. eigenvalues --   -1.12637  -1.12583  -1.12446  -1.12380  -1.12363
 Alpha  occ. eigenvalues --   -0.19103  -0.13873  -0.12427  -0.10048
 Alpha virt. eigenvalues --   -0.05887  -0.05547  -0.04629  -0.03275  -0.02577
 Alpha virt. eigenvalues --   -0.01789  -0.01653  -0.01212  -0.00545  -0.00317
 Alpha virt. eigenvalues --    0.00067   0.00349   0.00758   0.00838   0.00876

  Beta  occ. eigenvalues --  -38.44451 -38.44087 -38.44003 -38.43726 -38.43102
  Beta  occ. eigenvalues --  -38.42960 -38.42668  -2.20352  -2.19979  -2.19909
  Beta  occ. eigenvalues --   -2.19572  -2.18989  -2.18928  -2.18630  -1.14107
  Beta  occ. eigenvalues --   -1.14017  -1.13958  -1.13647  -1.13617  -1.13605
  Beta  occ. eigenvalues --   -1.13588  -1.13569  -1.13545  -1.13247  -1.13220
  Beta  occ. eigenvalues --   -1.13203  -1.12772  -1.12655  -1.12639  -1.12611
  Beta  occ. eigenvalues --   -1.12579  -1.12525  -1.12359  -1.12292  -1.12271
  Beta  occ. eigenvalues --   -0.18404  -0.13586  -0.12208
  Beta virt. eigenvalues --   -0.06226  -0.05803  -0.05521  -0.04591  -0.02454
  Beta virt. eigenvalues --   -0.01896  -0.01671  -0.01170  -0.00768  -0.00568
  Beta virt. eigenvalues --   -0.00330   0.00218   0.00391   0.00795   0.00846

 Mulliken charges and spin densities:
               1          2
     1  Na   0.229080   0.089046
     2  Na  -0.010535   0.020169
     3  Na  -0.321392   0.466105
     4  Na   0.069170  -0.065189
     5  Na   0.017613  -0.054470
     6  Na  -0.324395   0.488210
     7  Na   0.340459   0.056130
 Sum of Mulliken charges =  -0.00000   1.00000

 Dipole moment (field-independent basis, Debye):
    X=              0.2548    Y=             -0.1313    Z=             -0.0256  Tot=              0.2878
 Quadrupole moment (field-independent basis, Debye-Ang):
   XX=            -53.6223   YY=            -60.7660   ZZ=            -77.6604
   XY=              0.0802   XZ=             -1.0800   YZ=             -2.6173

 Normal termination of Gaussian 16 at Tue Nov 28 20:10:14 2023.
