 Gaussian 16, Revision B.01,
 Gaussian 16:  ES64L-G16RevB.01 20-Dec-2017

 -------------------------
 #P B3LYP/6-311+g(d) force
 -------------------------

 -----
 DPGEN
 -----
 Symbolic Z-matrix:
 Charge =  0 Multiplicity = 2

                         Standard orientation:
 ---------------------------------------------------------------------
 Center     Atomic      Atomic             Coordinates (Angstroms)
 Number     Number       Type             X           Y           Z
 ---------------------------------------------------------------------
      1         11           0        1.287230    2.936309   -0.215714
      2         11           0        0.486670    0.086862    1.864542
      3         11           0       -2.394567    1.739056    0.144220
      4         11           0       -2.745936   -1.280813    0.109864
      5         11           0        3.197435   -0.529757   -0.188865
      6         11           0        0.540568   -2.825868   -0.016923
      7         11           0       -0.371399   -0.125789   -1.697125
 ---------------------------------------------------------------------

 SCF Done:  E(UB3LYP) =  -1136.13609767     A.U. after   19 cycles

 The electronic state is 2-A.
 Alpha  occ. eigenvalues --  -38.44472 -38.43804 -38.43742 -38.43714 -38.43302
 Alpha  occ. eigenvalues --  -38.43264 -38.43161  -2.20276  -2.19685  -2.19639
 Alpha  occ. eigenvalues --   -2.19500  -2.19174  -2.19169  -2.19130  -1.13955
 Alpha  occ. eigenvalues --   -1.13934  -1.13912  -1.13474  -1.13354  -1.13326
 Alpha  occ. eigenvalues --   -1.13310  -1.13271  -1.13224  -1.13176  -1.13159
 Alpha  occ. eigenvalues --   -1.13142  -1.12897  -1.12860  -1.12836  -1.12805
 Alpha  occ. eigenvalues --   -1.12799  -1.12793  -1.12781  -1.12749  -1.12739
 Alpha  occ. eigenvalues --   -0.18665  -0.13238  -0.12360  -0.10445
 Alpha virt. eigenvalues --   -0.05901  -0.05174  -0.04769  -0.03267  -0.02755
 Alpha virt. eigenvalues --   -0.02257  -0.01625  -0.01182  -0.00482  -0.00410
 Alpha virt. eigenvalues --    0.00007   0.00365   0.00780   0.00847   0.00902

  Beta  occ. eigenvalues --  -38.44470 -38.43798 -38.43736 -38.43711 -38.43295
  Beta  occ. eigenvalues --  -38.43184 -38.43090  -2.20274  -2.19677  -2.19632
  Beta  occ. eigenvalues --   -2.19497  -2.19161  -2.19027  -2.19001  -1.13940
  Beta  occ. eigenvalues --   -1.13927  -1.13914  -1.13473  -1.13335  -1.13306
  Beta  occ. eigenvalues --   -1.13297  -1.13247  -1.13222  -1.13159  -1.13156
  Beta  occ. eigenvalues --   -1.13143  -1.12872  -1.12809  -1.12794  -1.12756
  Beta  occ. eigenvalues --   -1.12714  -1.12691  -1.12685  -1.12660  -1.12649
  Beta  occ. eigenvalues --   -0.17938  -0.13013  -0.12127
  Beta virt. eigenvalues --   -0.06580  -0.05865  -0.05140  -0.04737  -0.02467
  Beta virt. eigenvalues --   -0.02013  -0.01532  -0.01263  -0.01102  -0.00525
  Beta virt. eigenvalues --   -0.00465   0.00150   0.00391   0.00807   0.00859

 Mulliken charges and spin densities:
               1          2
     1  Na  -0.078755  -0.128179
     2  Na  -0.343569   0.694865
     3  Na   0.151117  -0.045880
     4  Na   0.286896   0.018321
     5  Na   0.053222  -0.115635
     6  Na   0.205109  -0.079549
     7  Na  -0.274019   0.656057
 Sum of Mulliken charges =  -0.00000   1.00000

 Dipole moment (field-independent basis, Debye):
    X=              0.3603    Y=              0.0423    Z=              0.0246  Tot=              0.3636
 Quadrupole moment (field-independent basis, Debye-Ang):
   XX=            -55.2575   YY=            -61.7917   ZZ=            -75.7138
   XY=              0.0974   XZ=             -1.9027   YZ=             -0.5106

 Normal termination of Gaussian 16 at Thu Dec  7 08:01:38 2023.
