 Gaussian 16, Revision B.01,
 Gaussian 16:  ES64L-G16RevB.01 20-Dec-2017

 -------------------------
 #P B3LYP/6-311+g(d) force
 -------------------------

 -----
 DPGEN
 -----
 Symbolic Z-matrix:
 Charge =  0 Multiplicity = 2

                         Standard orientation:
 ---------------------------------------------------------------------
 Center     Atomic      Atomic             Coordinates (Angstroms)
 Number     Number       Type             X           Y           Z
 ---------------------------------------------------------------------
      1         11           0        3.390360   -1.532034   -0.075522
      2         11           0       -2.547769   -2.216847   -0.222205
      3         11           0        0.193218   -0.690728    2.027540
      4         11           0       -0.289308   -0.749850   -1.486921
      5         11           0       -3.267122    1.054576    0.060199
      6         11           0       -0.367945    2.774688    0.018376
      7         11           0        2.888567    1.360196   -0.321467
 ---------------------------------------------------------------------

 SCF Done:  E(UB3LYP) =  -1136.12094142     A.U. after   23 cycles

 The electronic state is 2-A.
 Alpha  occ. eigenvalues --  -38.45141 -38.44869 -38.44480 -38.44369 -38.43762
 Alpha  occ. eigenvalues --  -38.43533 -38.42545  -2.20952  -2.20694  -2.20369
 Alpha  occ. eigenvalues --   -2.20225  -2.19635  -2.19379  -2.18368  -1.14627
 Alpha  occ. eigenvalues --   -1.14608  -1.14597  -1.14451  -1.14339  -1.14318
 Alpha  occ. eigenvalues --   -1.14088  -1.14041  -1.13987  -1.13880  -1.13872
 Alpha  occ. eigenvalues --   -1.13861  -1.13322  -1.13278  -1.13258  -1.13043
 Alpha  occ. eigenvalues --   -1.12998  -1.12991  -1.12045  -1.12029  -1.12023
 Alpha  occ. eigenvalues --   -0.18121  -0.14149  -0.11707  -0.10329
 Alpha virt. eigenvalues --   -0.07027  -0.05839  -0.03983  -0.03600  -0.02656
 Alpha virt. eigenvalues --   -0.02424  -0.02207  -0.01589  -0.00855  -0.00187
 Alpha virt. eigenvalues --   -0.00124   0.00168   0.00553   0.00606   0.00669

  Beta  occ. eigenvalues --  -38.45139 -38.44866 -38.44448 -38.44357 -38.43755
  Beta  occ. eigenvalues --  -38.43419 -38.42544  -2.20949  -2.20691  -2.20312
  Beta  occ. eigenvalues --   -2.20205  -2.19625  -2.19168  -2.18368  -1.14619
  Beta  occ. eigenvalues --   -1.14605  -1.14591  -1.14448  -1.14330  -1.14305
  Beta  occ. eigenvalues --   -1.14044  -1.13993  -1.13945  -1.13865  -1.13858
  Beta  occ. eigenvalues --   -1.13836  -1.13313  -1.13276  -1.13229  -1.12901
  Beta  occ. eigenvalues --   -1.12849  -1.12845  -1.12045  -1.12026  -1.12014
  Beta  occ. eigenvalues --   -0.17484  -0.13890  -0.11538
  Beta virt. eigenvalues --   -0.06907  -0.06474  -0.05780  -0.03943  -0.02920
  Beta virt. eigenvalues --   -0.02460  -0.01738  -0.01618  -0.01208  -0.00860
  Beta virt. eigenvalues --   -0.00156   0.00083   0.00238   0.00648   0.00689

 Mulliken charges and spin densities:
               1          2
     1  Na   0.594560   0.066291
     2  Na   0.765669   0.158515
     3  Na  -0.558736   0.615620
     4  Na  -0.582761   0.117548
     5  Na  -0.013859  -0.001164
     6  Na  -0.106926  -0.041868
     7  Na  -0.097947   0.085059
 Sum of Mulliken charges =  -0.00000   1.00000

 Dipole moment (field-independent basis, Debye):
    X=             -0.0945    Y=             -0.5512    Z=              0.0761  Tot=              0.5644
 Quadrupole moment (field-independent basis, Debye-Ang):
   XX=            -49.5369   YY=            -69.7620   ZZ=            -76.1644
   XY=             -1.2571   XZ=             -1.4910   YZ=             -0.0097

 Normal termination of Gaussian 16 at Tue Dec  5 10:23:03 2023.
