 Gaussian 16, Revision B.01,
 Gaussian 16:  ES64L-G16RevB.01 20-Dec-2017

 -------------------------
 #P B3LYP/6-311+g(d) force
 -------------------------

 -----
 DPGEN
 -----
 Symbolic Z-matrix:
 Charge =  0 Multiplicity = 2

                         Standard orientation:
 ---------------------------------------------------------------------
 Center     Atomic      Atomic             Coordinates (Angstroms)
 Number     Number       Type             X           Y           Z
 ---------------------------------------------------------------------
      1         11           0       -1.743315    0.755744   -0.926301
      2         11           0        1.643847    0.967446    0.731710
      3         11           0        1.464536   -2.160178   -0.541381
      4         11           0       -1.017858   -1.237964    1.245975
      5         11           0       -4.552581   -1.427624   -0.147142
      6         11           0        4.396910   -0.931547   -0.326022
      7         11           0       -0.191540    4.034123   -0.036840
 ---------------------------------------------------------------------

 SCF Done:  E(UB3LYP) =  -1136.12277237     A.U. after   20 cycles

 The electronic state is 2-A.
 Alpha  occ. eigenvalues --  -38.44372 -38.44242 -38.43979 -38.43960 -38.43818
 Alpha  occ. eigenvalues --  -38.43729 -38.43434  -2.20227  -2.20140  -2.19833
 Alpha  occ. eigenvalues --   -2.19776  -2.19759  -2.19583  -2.19204  -1.13993
 Alpha  occ. eigenvalues --   -1.13922  -1.13836  -1.13814  -1.13797  -1.13791
 Alpha  occ. eigenvalues --   -1.13551  -1.13541  -1.13434  -1.13431  -1.13426
 Alpha  occ. eigenvalues --   -1.13416  -1.13409  -1.13381  -1.13346  -1.13230
 Alpha  occ. eigenvalues --   -1.13218  -1.13200  -1.12876  -1.12872  -1.12830
 Alpha  occ. eigenvalues --   -0.17877  -0.13896  -0.12122  -0.10624
 Alpha virt. eigenvalues --   -0.06350  -0.05514  -0.04675  -0.03469  -0.02867
 Alpha virt. eigenvalues --   -0.02115  -0.01741  -0.01291  -0.01083  -0.00544
 Alpha virt. eigenvalues --   -0.00500  -0.00150   0.00412   0.00558   0.00605

  Beta  occ. eigenvalues --  -38.44370 -38.44226 -38.43952 -38.43905 -38.43770
  Beta  occ. eigenvalues --  -38.43661 -38.43436  -2.20226  -2.20118  -2.19824
  Beta  occ. eigenvalues --   -2.19678  -2.19637  -2.19454  -2.19206  -1.13984
  Beta  occ. eigenvalues --   -1.13915  -1.13808  -1.13796  -1.13791  -1.13752
  Beta  occ. eigenvalues --   -1.13542  -1.13500  -1.13419  -1.13384  -1.13354
  Beta  occ. eigenvalues --   -1.13336  -1.13328  -1.13295  -1.13263  -1.13142
  Beta  occ. eigenvalues --   -1.13128  -1.13122  -1.12878  -1.12874  -1.12832
  Beta  occ. eigenvalues --   -0.17244  -0.13242  -0.11931
  Beta virt. eigenvalues --   -0.07149  -0.06140  -0.05317  -0.04163  -0.03080
  Beta virt. eigenvalues --   -0.02547  -0.02038  -0.01578  -0.00894  -0.00756
  Beta virt. eigenvalues --   -0.00345  -0.00115   0.00072   0.00512   0.00645

 Mulliken charges and spin densities:
               1          2
     1  Na  -0.608623   0.155493
     2  Na  -0.753640   0.093101
     3  Na  -0.194685   0.028664
     4  Na   0.607761   0.053647
     5  Na   0.184225   0.345918
     6  Na   0.423856   0.350115
     7  Na   0.341105  -0.026938
 Sum of Mulliken charges =  -0.00000   1.00000

 Dipole moment (field-independent basis, Debye):
    X=              0.0570    Y=             -0.6724    Z=              0.1703  Tot=              0.6960
 Quadrupole moment (field-independent basis, Debye-Ang):
   XX=            -68.2598   YY=            -65.4603   ZZ=            -66.7587
   XY=              0.5212   XZ=              0.3698   YZ=              1.0764

 Normal termination of Gaussian 16 at Wed Nov 29 00:56:07 2023.
