 Gaussian 16, Revision B.01,
 Gaussian 16:  ES64L-G16RevB.01 20-Dec-2017

 -------------------------
 #P B3LYP/6-311+g(d) force
 -------------------------

 -----
 DPGEN
 -----
 Symbolic Z-matrix:
 Charge =  0 Multiplicity = 2

                         Standard orientation:
 ---------------------------------------------------------------------
 Center     Atomic      Atomic             Coordinates (Angstroms)
 Number     Number       Type             X           Y           Z
 ---------------------------------------------------------------------
      1         11           0        3.050621    1.209586   -0.245041
      2         11           0       -0.569827    2.951664   -0.258778
      3         11           0       -3.048390    0.607828    0.278086
      4         11           0       -1.637624   -2.570293   -0.541616
      5         11           0        1.991598   -2.190186    0.291745
      6         11           0        0.087710    0.033382    2.096867
      7         11           0        0.125911   -0.041981   -1.621262
 ---------------------------------------------------------------------

 SCF Done:  E(UB3LYP) =  -1136.13876902     A.U. after   19 cycles

 The electronic state is 2-A.
 Alpha  occ. eigenvalues --  -38.44089 -38.43898 -38.43799 -38.43697 -38.43491
 Alpha  occ. eigenvalues --  -38.43360 -38.43166  -2.19888  -2.19724  -2.19669
 Alpha  occ. eigenvalues --   -2.19542  -2.19318  -2.19195  -2.19134  -1.13569
 Alpha  occ. eigenvalues --   -1.13542  -1.13528  -1.13401  -1.13388  -1.13368
 Alpha  occ. eigenvalues --   -1.13340  -1.13301  -1.13289  -1.13217  -1.13210
 Alpha  occ. eigenvalues --   -1.13162  -1.13017  -1.12979  -1.12946  -1.12913
 Alpha  occ. eigenvalues --   -1.12847  -1.12828  -1.12810  -1.12762  -1.12742
 Alpha  occ. eigenvalues --   -0.18418  -0.12910  -0.12346  -0.10817
 Alpha virt. eigenvalues --   -0.05627  -0.05204  -0.04726  -0.03228  -0.02870
 Alpha virt. eigenvalues --   -0.02635  -0.01551  -0.01176  -0.00442  -0.00376
 Alpha virt. eigenvalues --   -0.00009   0.00355   0.00795   0.00851   0.00881

  Beta  occ. eigenvalues --  -38.44085 -38.43894 -38.43702 -38.43689 -38.43487
  Beta  occ. eigenvalues --  -38.43349 -38.43105  -2.19884  -2.19719  -2.19530
  Beta  occ. eigenvalues --   -2.19492  -2.19315  -2.19177  -2.19023  -1.13556
  Beta  occ. eigenvalues --   -1.13539  -1.13524  -1.13388  -1.13379  -1.13361
  Beta  occ. eigenvalues --   -1.13243  -1.13202  -1.13190  -1.13171  -1.13159
  Beta  occ. eigenvalues --   -1.13141  -1.13006  -1.12968  -1.12941  -1.12883
  Beta  occ. eigenvalues --   -1.12824  -1.12817  -1.12736  -1.12687  -1.12663
  Beta  occ. eigenvalues --   -0.17699  -0.12697  -0.12083
  Beta virt. eigenvalues --   -0.06920  -0.05605  -0.05142  -0.04671  -0.02452
  Beta virt. eigenvalues --   -0.02157  -0.01586  -0.01462  -0.01084  -0.00472
  Beta virt. eigenvalues --   -0.00409   0.00120   0.00381   0.00839   0.00869

 Mulliken charges and spin densities:
               1          2
     1  Na   0.021808  -0.094786
     2  Na   0.005471  -0.086142
     3  Na   0.096008   0.024686
     4  Na   0.095606  -0.004144
     5  Na   0.179501   0.028636
     6  Na  -0.323969   0.677275
     7  Na  -0.074425   0.454475
 Sum of Mulliken charges =  -0.00000   1.00000

 Dipole moment (field-independent basis, Debye):
    X=              0.1967    Y=              0.1159    Z=              0.1903  Tot=              0.2972
 Quadrupole moment (field-independent basis, Debye-Ang):
   XX=            -56.6980   YY=            -62.3281   ZZ=            -74.2314
   XY=              0.3485   XZ=             -0.2019   YZ=             -0.1652

 Normal termination of Gaussian 16 at Thu Dec  7 05:05:10 2023.
