 Gaussian 16, Revision B.01,
 Gaussian 16:  ES64L-G16RevB.01 20-Dec-2017

 -------------------------
 #P B3LYP/6-311+g(d) force
 -------------------------

 -----
 DPGEN
 -----
 Symbolic Z-matrix:
 Charge =  0 Multiplicity = 2

                         Standard orientation:
 ---------------------------------------------------------------------
 Center     Atomic      Atomic             Coordinates (Angstroms)
 Number     Number       Type             X           Y           Z
 ---------------------------------------------------------------------
      1         11           0       -1.961219   -2.307580   -0.564826
      2         11           0        0.126305    0.495290   -1.551954
      3         11           0        2.016526   -1.931370   -0.402246
      4         11           0        3.602835    1.090816    0.281307
      5         11           0       -1.032027    2.879051   -0.274554
      6         11           0        0.552239   -0.622231    1.790238
      7         11           0       -3.304658    0.396023    0.722034
 ---------------------------------------------------------------------

 SCF Done:  E(UB3LYP) =  -1136.12230605     A.U. after   22 cycles

 The electronic state is 2-A.
 Alpha  occ. eigenvalues --  -38.45237 -38.44473 -38.44345 -38.43907 -38.43543
 Alpha  occ. eigenvalues --  -38.43111 -38.42994  -2.21006  -2.20360  -2.20165
 Alpha  occ. eigenvalues --   -2.19823  -2.19366  -2.18977  -2.18952  -1.14683
 Alpha  occ. eigenvalues --   -1.14656  -1.14637  -1.14121  -1.14021  -1.13938
 Alpha  occ. eigenvalues --   -1.13843  -1.13818  -1.13794  -1.13520  -1.13497
 Alpha  occ. eigenvalues --   -1.13402  -1.13046  -1.13028  -1.13004  -1.12829
 Alpha  occ. eigenvalues --   -1.12647  -1.12591  -1.12589  -1.12551  -1.12515
 Alpha  occ. eigenvalues --   -0.18328  -0.13656  -0.11787  -0.10449
 Alpha virt. eigenvalues --   -0.06758  -0.05301  -0.04292  -0.03381  -0.02700
 Alpha virt. eigenvalues --   -0.02313  -0.02178  -0.01237  -0.00507  -0.00230
 Alpha virt. eigenvalues --   -0.00101   0.00237   0.00550   0.00691   0.00767

  Beta  occ. eigenvalues --  -38.45226 -38.44425 -38.44320 -38.43892 -38.43538
  Beta  occ. eigenvalues --  -38.43107 -38.42920  -2.20988  -2.20270  -2.20119
  Beta  occ. eigenvalues --   -2.19801  -2.19359  -2.18955  -2.18836  -1.14667
  Beta  occ. eigenvalues --   -1.14636  -1.14627  -1.14059  -1.13959  -1.13869
  Beta  occ. eigenvalues --   -1.13812  -1.13784  -1.13763  -1.13505  -1.13456
  Beta  occ. eigenvalues --   -1.13374  -1.13044  -1.13009  -1.12989  -1.12780
  Beta  occ. eigenvalues --   -1.12596  -1.12576  -1.12542  -1.12477  -1.12441
  Beta  occ. eigenvalues --   -0.17656  -0.13375  -0.11552
  Beta virt. eigenvalues --   -0.06864  -0.06495  -0.05169  -0.04121  -0.02824
  Beta virt. eigenvalues --   -0.02285  -0.01939  -0.01314  -0.01131  -0.00455
  Beta virt. eigenvalues --   -0.00227   0.00050   0.00288   0.00698   0.00757

 Mulliken charges and spin densities:
               1          2
     1  Na  -0.028200   0.111964
     2  Na   0.075055   0.143072
     3  Na   0.457912   0.049442
     4  Na  -0.073151   0.022564
     5  Na  -0.026914   0.048641
     6  Na  -0.334942   0.437402
     7  Na  -0.069761   0.186916
 Sum of Mulliken charges =  -0.00000   1.00000

 Dipole moment (field-independent basis, Debye):
    X=              0.8405    Y=             -0.0498    Z=              0.2746  Tot=              0.8857
 Quadrupole moment (field-independent basis, Debye-Ang):
   XX=            -51.2474   YY=            -67.6337   ZZ=            -74.2714
   XY=              2.1766   XZ=             -1.2550   YZ=              3.2528

 Normal termination of Gaussian 16 at Sat Dec  9 06:48:55 2023.
