 Gaussian 16, Revision B.01,
 Gaussian 16:  ES64L-G16RevB.01 20-Dec-2017

 -------------------------
 #P B3LYP/6-311+g(d) force
 -------------------------

 -----
 DPGEN
 -----
 Symbolic Z-matrix:
 Charge =  0 Multiplicity = 2

                         Standard orientation:
 ---------------------------------------------------------------------
 Center     Atomic      Atomic             Coordinates (Angstroms)
 Number     Number       Type             X           Y           Z
 ---------------------------------------------------------------------
      1         11           0       -3.143013    0.081213    0.142853
      2         11           0        0.070818   -0.312235    1.869353
      3         11           0        0.363723    0.334606   -1.731564
      4         11           0       -0.989716    2.671984    0.027758
      5         11           0       -1.099776   -2.406698   -0.493277
      6         11           0        2.687178    1.616860    0.071406
      7         11           0        2.110786   -1.985731    0.113472
 ---------------------------------------------------------------------

 SCF Done:  E(UB3LYP) =  -1136.13818273     A.U. after   18 cycles

 The electronic state is 2-A.
 Alpha  occ. eigenvalues --  -38.43936 -38.43839 -38.43520 -38.43490 -38.43385
 Alpha  occ. eigenvalues --  -38.43158 -38.43105  -2.19774  -2.19685  -2.19423
 Alpha  occ. eigenvalues --   -2.19349  -2.19338  -2.19150  -2.19027  -1.13471
 Alpha  occ. eigenvalues --   -1.13432  -1.13404  -1.13359  -1.13348  -1.13340
 Alpha  occ. eigenvalues --   -1.13163  -1.13093  -1.13064  -1.13050  -1.13022
 Alpha  occ. eigenvalues --   -1.12999  -1.12966  -1.12956  -1.12942  -1.12825
 Alpha  occ. eigenvalues --   -1.12790  -1.12769  -1.12690  -1.12675  -1.12657
 Alpha  occ. eigenvalues --   -0.19056  -0.13089  -0.12624  -0.10835
 Alpha virt. eigenvalues --   -0.05584  -0.05146  -0.04493  -0.03169  -0.03014
 Alpha virt. eigenvalues --   -0.02484  -0.01479  -0.01076  -0.00239  -0.00109
 Alpha virt. eigenvalues --    0.00028   0.00363   0.00838   0.00899   0.00943

  Beta  occ. eigenvalues --  -38.43932 -38.43838 -38.43512 -38.43486 -38.43302
  Beta  occ. eigenvalues --  -38.43090 -38.43084  -2.19770  -2.19685  -2.19412
  Beta  occ. eigenvalues --   -2.19344  -2.19188  -2.19016  -2.19003  -1.13461
  Beta  occ. eigenvalues --   -1.13416  -1.13402  -1.13362  -1.13345  -1.13325
  Beta  occ. eigenvalues --   -1.13139  -1.13054  -1.13050  -1.13048  -1.12993
  Beta  occ. eigenvalues --   -1.12966  -1.12911  -1.12854  -1.12838  -1.12745
  Beta  occ. eigenvalues --   -1.12704  -1.12678  -1.12657  -1.12645  -1.12619
  Beta  occ. eigenvalues --   -0.18312  -0.12848  -0.12367
  Beta virt. eigenvalues --   -0.06893  -0.05569  -0.05119  -0.04464  -0.02389
  Beta virt. eigenvalues --   -0.02206  -0.01428  -0.01406  -0.01011  -0.00283
  Beta virt. eigenvalues --   -0.00125   0.00135   0.00383   0.00870   0.00911

 Mulliken charges and spin densities:
               1          2
     1  Na  -0.018084  -0.045006
     2  Na  -0.453483   0.720907
     3  Na  -0.224587   0.561614
     4  Na   0.060561  -0.121340
     5  Na   0.210795   0.043528
     6  Na   0.089282  -0.136324
     7  Na   0.335517  -0.023380
 Sum of Mulliken charges =  -0.00000   1.00000

 Dipole moment (field-independent basis, Debye):
    X=              0.1666    Y=              0.2138    Z=              0.1326  Tot=              0.3018
 Quadrupole moment (field-independent basis, Debye-Ang):
   XX=            -56.1506   YY=            -63.5217   ZZ=            -73.8523
   XY=              0.1937   XZ=              0.4963   YZ=              1.3903

 Normal termination of Gaussian 16 at Fri Dec  8 00:53:30 2023.
