 Gaussian 16, Revision B.01,
 Gaussian 16:  ES64L-G16RevB.01 20-Dec-2017

 -------------------------
 #P B3LYP/6-311+g(d) force
 -------------------------

 -----
 DPGEN
 -----
 Symbolic Z-matrix:
 Charge =  0 Multiplicity = 2

                         Standard orientation:
 ---------------------------------------------------------------------
 Center     Atomic      Atomic             Coordinates (Angstroms)
 Number     Number       Type             X           Y           Z
 ---------------------------------------------------------------------
      1         11           0       -0.083382    0.265458    2.014536
      2         11           0        0.080727    0.131136   -1.882179
      3         11           0        2.466330   -1.026731   -0.024419
      4         11           0       -1.448954    1.733309   -0.055452
      5         11           0        1.636514    1.610245   -0.049991
      6         11           0       -0.063737   -1.823018    0.148649
      7         11           0       -2.587500   -0.890399   -0.151143
 ---------------------------------------------------------------------

 SCF Done:  E(UB3LYP) =  -1136.08107387     A.U. after   20 cycles

 The electronic state is 2-A.
 Alpha  occ. eigenvalues --  -38.44692 -38.44525 -38.44088 -38.44048 -38.43395
 Alpha  occ. eigenvalues --  -38.43334 -38.43168  -2.20825  -2.20731  -2.20170
 Alpha  occ. eigenvalues --   -2.20093  -2.19650  -2.19473  -2.19301  -1.14600
 Alpha  occ. eigenvalues --   -1.14507  -1.14486  -1.14417  -1.14410  -1.14363
 Alpha  occ. eigenvalues --   -1.14133  -1.13936  -1.13888  -1.13801  -1.13741
 Alpha  occ. eigenvalues --   -1.13681  -1.13255  -1.13237  -1.13169  -1.13119
 Alpha  occ. eigenvalues --   -1.13113  -1.13060  -1.12967  -1.12958  -1.12854
 Alpha  occ. eigenvalues --   -0.21604  -0.14061  -0.12657  -0.12400
 Alpha virt. eigenvalues --   -0.05344  -0.04214  -0.03997  -0.03805  -0.03151
 Alpha virt. eigenvalues --   -0.03054  -0.01224  -0.00380  -0.00205   0.00327
 Alpha virt. eigenvalues --    0.00743   0.00850   0.01049   0.01104   0.01215

  Beta  occ. eigenvalues --  -38.44588 -38.44429 -38.44081 -38.44042 -38.43372
  Beta  occ. eigenvalues --  -38.43319 -38.43153  -2.20637  -2.20556  -2.20163
  Beta  occ. eigenvalues --   -2.20086  -2.19619  -2.19454  -2.19282  -1.14487
  Beta  occ. eigenvalues --   -1.14395  -1.14353  -1.14285  -1.14283  -1.14240
  Beta  occ. eigenvalues --   -1.14119  -1.13933  -1.13885  -1.13803  -1.13693
  Beta  occ. eigenvalues --   -1.13639  -1.13225  -1.13160  -1.13152  -1.13109
  Beta  occ. eigenvalues --   -1.13057  -1.13041  -1.12954  -1.12891  -1.12850
  Beta  occ. eigenvalues --   -0.20719  -0.13690  -0.12045
  Beta virt. eigenvalues --   -0.08444  -0.05359  -0.04210  -0.03583  -0.03008
  Beta virt. eigenvalues --   -0.02240  -0.02163  -0.01139  -0.00354  -0.00027
  Beta virt. eigenvalues --    0.00348   0.00755   0.00835   0.01070   0.01146

 Mulliken charges and spin densities:
               1          2
     1  Na   0.001691   0.523859
     2  Na   0.128118   0.526917
     3  Na  -0.077990  -0.041284
     4  Na   0.018177  -0.025365
     5  Na   0.025716  -0.012127
     6  Na   0.021377   0.074556
     7  Na  -0.117089  -0.046556
 Sum of Mulliken charges =  -0.00000   1.00000

 Dipole moment (field-independent basis, Debye):
    X=             -0.0963    Y=              0.1605    Z=              0.1295  Tot=              0.2275
 Quadrupole moment (field-independent basis, Debye-Ang):
   XX=            -58.6127   YY=            -73.7373   ZZ=            -65.6899
   XY=              0.0363   XZ=              0.3756   YZ=              0.0846

 Normal termination of Gaussian 16 at Fri Dec  8 18:49:31 2023.
