 Gaussian 16, Revision B.01,
 Gaussian 16:  ES64L-G16RevB.01 20-Dec-2017

 -------------------------
 #P B3LYP/6-311+g(d) force
 -------------------------

 -----
 DPGEN
 -----
 Symbolic Z-matrix:
 Charge =  0 Multiplicity = 2

                         Standard orientation:
 ---------------------------------------------------------------------
 Center     Atomic      Atomic             Coordinates (Angstroms)
 Number     Number       Type             X           Y           Z
 ---------------------------------------------------------------------
      1         11           0       -0.104718   -1.984812   -1.304868
      2         11           0        3.157622   -1.155145    0.506600
      3         11           0       -2.713072   -1.960930    0.385947
      4         11           0        0.468595   -0.219619    1.945979
      5         11           0        1.883907    1.071667   -1.453334
      6         11           0       -2.390168    1.203367   -0.532857
      7         11           0       -0.302165    3.045472    0.452533
 ---------------------------------------------------------------------

 SCF Done:  E(UB3LYP) =  -1136.13133654     A.U. after   19 cycles

 The electronic state is 2-A.
 Alpha  occ. eigenvalues --  -38.44114 -38.44033 -38.43888 -38.43839 -38.43810
 Alpha  occ. eigenvalues --  -38.43650 -38.43135  -2.19971  -2.19907  -2.19756
 Alpha  occ. eigenvalues --   -2.19727  -2.19676  -2.19505  -2.19007  -1.13672
 Alpha  occ. eigenvalues --   -1.13650  -1.13623  -1.13605  -1.13569  -1.13555
 Alpha  occ. eigenvalues --   -1.13431  -1.13404  -1.13391  -1.13373  -1.13371
 Alpha  occ. eigenvalues --   -1.13354  -1.13350  -1.13349  -1.13309  -1.13159
 Alpha  occ. eigenvalues --   -1.13146  -1.13133  -1.12692  -1.12647  -1.12643
 Alpha  occ. eigenvalues --   -0.18362  -0.13359  -0.12496  -0.10957
 Alpha virt. eigenvalues --   -0.05728  -0.05239  -0.04589  -0.03618  -0.03100
 Alpha virt. eigenvalues --   -0.02724  -0.01544  -0.00986  -0.00452  -0.00139
 Alpha virt. eigenvalues --    0.00177   0.00338   0.00736   0.00780   0.00828

  Beta  occ. eigenvalues --  -38.44105 -38.44031 -38.43840 -38.43777 -38.43750
  Beta  occ. eigenvalues --  -38.43651 -38.43133  -2.19957  -2.19905  -2.19668
  Beta  occ. eigenvalues --   -2.19618  -2.19564  -2.19509  -2.19006  -1.13655
  Beta  occ. eigenvalues --   -1.13625  -1.13624  -1.13586  -1.13558  -1.13552
  Beta  occ. eigenvalues --   -1.13367  -1.13348  -1.13339  -1.13314  -1.13300
  Beta  occ. eigenvalues --   -1.13279  -1.13265  -1.13240  -1.13233  -1.13162
  Beta  occ. eigenvalues --   -1.13137  -1.13122  -1.12693  -1.12645  -1.12625
  Beta  occ. eigenvalues --   -0.17664  -0.13140  -0.12332
  Beta virt. eigenvalues --   -0.07069  -0.05625  -0.05102  -0.04491  -0.02928
  Beta virt. eigenvalues --   -0.02464  -0.01740  -0.01473  -0.00919  -0.00351
  Beta virt. eigenvalues --   -0.00018   0.00250   0.00402   0.00808   0.00850

 Mulliken charges and spin densities:
               1          2
     1  Na  -0.310266   0.200636
     2  Na   0.459324  -0.052611
     3  Na   0.579276  -0.042204
     4  Na  -0.596764   0.576211
     5  Na  -0.163056   0.305051
     6  Na  -0.415448   0.011013
     7  Na   0.446932   0.001903
 Sum of Mulliken charges =  -0.00000   1.00000

 Dipole moment (field-independent basis, Debye):
    X=              0.2014    Y=             -0.3470    Z=             -0.0036  Tot=              0.4012
 Quadrupole moment (field-independent basis, Debye-Ang):
   XX=            -58.0896   YY=            -66.7213   ZZ=            -71.5455
   XY=              0.1102   XZ=             -0.8333   YZ=             -0.6107

 Normal termination of Gaussian 16 at Tue Dec  5 19:42:17 2023.
