 Gaussian 16, Revision B.01,
 Gaussian 16:  ES64L-G16RevB.01 20-Dec-2017

 -------------------------
 #P B3LYP/6-311+g(d) force
 -------------------------

 -----
 DPGEN
 -----
 Symbolic Z-matrix:
 Charge =  0 Multiplicity = 2

                         Standard orientation:
 ---------------------------------------------------------------------
 Center     Atomic      Atomic             Coordinates (Angstroms)
 Number     Number       Type             X           Y           Z
 ---------------------------------------------------------------------
      1         11           0       -2.440354    1.676261   -0.178081
      2         11           0       -2.692805   -1.226976    0.053590
      3         11           0        3.084180   -0.337392   -0.054740
      4         11           0        1.364236    2.386169   -0.208972
      5         11           0        0.053615   -0.384963   -1.745596
      6         11           0        0.063589    0.413040    1.892612
      7         11           0        0.567538   -2.526140    0.241188
 ---------------------------------------------------------------------

 SCF Done:  E(UB3LYP) =  -1136.13310445     A.U. after   19 cycles

 The electronic state is 2-A.
 Alpha  occ. eigenvalues --  -38.44280 -38.43911 -38.43795 -38.43398 -38.43350
 Alpha  occ. eigenvalues --  -38.43140 -38.42818  -2.20159  -2.19824  -2.19684
 Alpha  occ. eigenvalues --   -2.19362  -2.19357  -2.19040  -2.18756  -1.13834
 Alpha  occ. eigenvalues --   -1.13819  -1.13808  -1.13639  -1.13473  -1.13464
 Alpha  occ. eigenvalues --   -1.13330  -1.13319  -1.13279  -1.13092  -1.13049
 Alpha  occ. eigenvalues --   -1.13008  -1.13000  -1.12970  -1.12964  -1.12713
 Alpha  occ. eigenvalues --   -1.12699  -1.12664  -1.12446  -1.12408  -1.12365
 Alpha  occ. eigenvalues --   -0.19363  -0.13662  -0.12250  -0.10982
 Alpha virt. eigenvalues --   -0.05909  -0.05021  -0.04105  -0.03487  -0.02859
 Alpha virt. eigenvalues --   -0.02489  -0.01708  -0.00859  -0.00091  -0.00027
 Alpha virt. eigenvalues --    0.00002   0.00374   0.00819   0.00949   0.00959

  Beta  occ. eigenvalues --  -38.44276 -38.43907 -38.43790 -38.43313 -38.43277
  Beta  occ. eigenvalues --  -38.43131 -38.42807  -2.20155  -2.19819  -2.19678
  Beta  occ. eigenvalues --   -2.19228  -2.19203  -2.19029  -2.18740  -1.13830
  Beta  occ. eigenvalues --   -1.13813  -1.13788  -1.13641  -1.13467  -1.13437
  Beta  occ. eigenvalues --   -1.13317  -1.13299  -1.13279  -1.13004  -1.12952
  Beta  occ. eigenvalues --   -1.12910  -1.12896  -1.12868  -1.12858  -1.12702
  Beta  occ. eigenvalues --   -1.12662  -1.12655  -1.12434  -1.12362  -1.12358
  Beta  occ. eigenvalues --   -0.18600  -0.13405  -0.11996
  Beta virt. eigenvalues --   -0.07016  -0.05865  -0.05027  -0.04089  -0.02646
  Beta virt. eigenvalues --   -0.02059  -0.01616  -0.01426  -0.00804  -0.00140
  Beta virt. eigenvalues --   -0.00047   0.00122   0.00393   0.00874   0.00936

 Mulliken charges and spin densities:
               1          2
     1  Na   0.170152  -0.071617
     2  Na   0.208772  -0.011878
     3  Na   0.216552  -0.037061
     4  Na   0.223788  -0.090533
     5  Na  -0.554450   0.571150
     6  Na  -0.595493   0.657326
     7  Na   0.330678  -0.017386
 Sum of Mulliken charges =  -0.00000   1.00000

 Dipole moment (field-independent basis, Debye):
    X=              0.1211    Y=              0.0673    Z=              0.0555  Tot=              0.1493
 Quadrupole moment (field-independent basis, Debye-Ang):
   XX=            -54.2702   YY=            -67.0038   ZZ=            -73.0353
   XY=             -0.2419   XZ=             -0.0536   YZ=             -1.7886

 Normal termination of Gaussian 16 at Fri Dec  8 06:33:41 2023.
