 Gaussian 16, Revision B.01,
 Gaussian 16:  ES64L-G16RevB.01 20-Dec-2017

 -------------------------
 #P B3LYP/6-311+g(d) force
 -------------------------

 -----
 DPGEN
 -----
 Symbolic Z-matrix:
 Charge =  0 Multiplicity = 2

                         Standard orientation:
 ---------------------------------------------------------------------
 Center     Atomic      Atomic             Coordinates (Angstroms)
 Number     Number       Type             X           Y           Z
 ---------------------------------------------------------------------
      1         11           0       -0.878657    2.234642   -1.016038
      2         11           0        5.067299    0.087953    0.007395
      3         11           0        2.032151    1.531595    0.486193
      4         11           0        3.037843   -1.835628   -0.207267
      5         11           0       -0.631199   -1.725932   -0.078805
      6         11           0       -3.066988    0.507388    1.266274
      7         11           0       -5.560450   -0.800018   -0.457753
 ---------------------------------------------------------------------

 SCF Done:  E(UB3LYP) =  -1136.11467232     A.U. after   21 cycles

 The electronic state is 2-A.
 Alpha  occ. eigenvalues --  -38.44952 -38.44316 -38.44227 -38.44119 -38.44016
 Alpha  occ. eigenvalues --  -38.43804 -38.43561  -2.20765  -2.20215  -2.20051
 Alpha  occ. eigenvalues --   -2.19961  -2.19912  -2.19577  -2.19374  -1.14446
 Alpha  occ. eigenvalues --   -1.14385  -1.14375  -1.14044  -1.13867  -1.13858
 Alpha  occ. eigenvalues --   -1.13750  -1.13723  -1.13663  -1.13661  -1.13640
 Alpha  occ. eigenvalues --   -1.13593  -1.13530  -1.13517  -1.13493  -1.13239
 Alpha  occ. eigenvalues --   -1.13238  -1.13207  -1.13047  -1.13026  -1.13005
 Alpha  occ. eigenvalues --   -0.17102  -0.14480  -0.11556  -0.11228
 Alpha virt. eigenvalues --   -0.05994  -0.05845  -0.04836  -0.03385  -0.03164
 Alpha virt. eigenvalues --   -0.02457  -0.01828  -0.01535  -0.00891  -0.00606
 Alpha virt. eigenvalues --   -0.00303   0.00033   0.00234   0.00530   0.00636

  Beta  occ. eigenvalues --  -38.44854 -38.44292 -38.44224 -38.44100 -38.43991
  Beta  occ. eigenvalues --  -38.43790 -38.43549  -2.20586  -2.20176  -2.20047
  Beta  occ. eigenvalues --   -2.19927  -2.19865  -2.19551  -2.19351  -1.14328
  Beta  occ. eigenvalues --   -1.14267  -1.14233  -1.13991  -1.13846  -1.13832
  Beta  occ. eigenvalues --   -1.13738  -1.13722  -1.13659  -1.13638  -1.13610
  Beta  occ. eigenvalues --   -1.13560  -1.13497  -1.13479  -1.13459  -1.13222
  Beta  occ. eigenvalues --   -1.13218  -1.13192  -1.13030  -1.13007  -1.12992
  Beta  occ. eigenvalues --   -0.16412  -0.14283  -0.11083
  Beta virt. eigenvalues --   -0.07544  -0.05788  -0.05544  -0.04381  -0.03217
  Beta virt. eigenvalues --   -0.02761  -0.02002  -0.01556  -0.01281  -0.00714
  Beta virt. eigenvalues --   -0.00295  -0.00194   0.00227   0.00396   0.00590

 Mulliken charges and spin densities:
               1          2
     1  Na   0.184404   0.045815
     2  Na   0.480170   0.143349
     3  Na  -0.649184   0.187570
     4  Na  -0.272317  -0.159315
     5  Na  -0.261966   0.585025
     6  Na   0.361494   0.152682
     7  Na   0.157398   0.044872
 Sum of Mulliken charges =  -0.00000   1.00000

 Dipole moment (field-independent basis, Debye):
    X=              0.7031    Y=              0.1500    Z=             -0.3354  Tot=              0.7933
 Quadrupole moment (field-independent basis, Debye-Ang):
   XX=            -64.4474   YY=            -70.8815   ZZ=            -66.8237
   XY=              0.4279   XZ=              3.8849   YZ=              1.8612

 Normal termination of Gaussian 16 at Tue Nov 28 19:31:39 2023.
