 Gaussian 16, Revision B.01,
 Gaussian 16:  ES64L-G16RevB.01 20-Dec-2017

 -------------------------
 #P B3LYP/6-311+g(d) force
 -------------------------

 -----
 DPGEN
 -----
 Symbolic Z-matrix:
 Charge =  0 Multiplicity = 2

                         Standard orientation:
 ---------------------------------------------------------------------
 Center     Atomic      Atomic             Coordinates (Angstroms)
 Number     Number       Type             X           Y           Z
 ---------------------------------------------------------------------
      1         11           0       -0.530415   -0.800742   -1.421071
      2         11           0       -0.528315   -0.793442    1.424129
      3         11           0       -3.001915   -0.292940    0.002029
      4         11           0       -0.895912    1.700658   -0.005171
      5         11           0        1.552487    0.916656    1.341129
      6         11           0        1.552987    0.909456   -1.344271
      7         11           0        1.851084   -1.639645    0.003229
 ---------------------------------------------------------------------

 SCF Done:  E(UB3LYP) =  -1136.06051059     A.U. after   23 cycles

 The electronic state is 2-A.
 Alpha  occ. eigenvalues --  -38.44525 -38.44469 -38.44464 -38.44250 -38.44240
 Alpha  occ. eigenvalues --  -38.43248 -38.42772  -2.20751  -2.20678  -2.20589
 Alpha  occ. eigenvalues --   -2.20535  -2.20530  -2.19387  -2.19015  -1.14821
 Alpha  occ. eigenvalues --   -1.14733  -1.14684  -1.14567  -1.14372  -1.14306
 Alpha  occ. eigenvalues --   -1.14300  -1.14220  -1.14173  -1.14104  -1.14084
 Alpha  occ. eigenvalues --   -1.14064  -1.14023  -1.13993  -1.13952  -1.13082
 Alpha  occ. eigenvalues --   -1.13022  -1.12971  -1.12742  -1.12652  -1.12592
 Alpha  occ. eigenvalues --   -0.22009  -0.14440  -0.13080  -0.11929
 Alpha virt. eigenvalues --   -0.05796  -0.04238  -0.03851  -0.03774  -0.02806
 Alpha virt. eigenvalues --   -0.02697  -0.01363  -0.00322  -0.00279   0.00281
 Alpha virt. eigenvalues --    0.00708   0.00981   0.01007   0.01068   0.01085

  Beta  occ. eigenvalues --  -38.44522 -38.44412 -38.44407 -38.44179 -38.44170
  Beta  occ. eigenvalues --  -38.43234 -38.42753  -2.20652  -2.20577  -2.20549
  Beta  occ. eigenvalues --   -2.20449  -2.20409  -2.19370  -2.18988  -1.14757
  Beta  occ. eigenvalues --   -1.14629  -1.14577  -1.14513  -1.14302  -1.14250
  Beta  occ. eigenvalues --   -1.14248  -1.14166  -1.14160  -1.14034  -1.14006
  Beta  occ. eigenvalues --   -1.13993  -1.13955  -1.13914  -1.13840  -1.13078
  Beta  occ. eigenvalues --   -1.12969  -1.12950  -1.12731  -1.12584  -1.12564
  Beta  occ. eigenvalues --   -0.21150  -0.14190  -0.11672
  Beta virt. eigenvalues --   -0.08527  -0.05731  -0.03802  -0.03421  -0.03237
  Beta virt. eigenvalues --   -0.02051  -0.01903  -0.01308  -0.00264  -0.00068
  Beta virt. eigenvalues --    0.00315   0.00769   0.01024   0.01085   0.01123

 Mulliken charges and spin densities:
               1          2
     1  Na  -0.221040   0.335473
     2  Na  -0.217945   0.335989
     3  Na   0.917506  -0.002832
     4  Na  -0.935386   0.120698
     5  Na   0.397989   0.123516
     6  Na   0.401565   0.125743
     7  Na  -0.342689  -0.038586
 Sum of Mulliken charges =  -0.00000   1.00000

 Dipole moment (field-independent basis, Debye):
    X=             -0.3923    Y=             -0.0622    Z=              0.0002  Tot=              0.3972
 Quadrupole moment (field-independent basis, Debye-Ang):
   XX=            -55.7406   YY=            -76.2456   ZZ=            -65.0219
   XY=             -0.0983   XZ=             -0.0022   YZ=             -0.0055

 Normal termination of Gaussian 16 at Fri Dec  8 18:55:53 2023.
