 Gaussian 16, Revision B.01,
 Gaussian 16:  ES64L-G16RevB.01 20-Dec-2017

 -------------------------
 #P B3LYP/6-311+g(d) force
 -------------------------

 -----
 DPGEN
 -----
 Symbolic Z-matrix:
 Charge =  0 Multiplicity = 2

                         Standard orientation:
 ---------------------------------------------------------------------
 Center     Atomic      Atomic             Coordinates (Angstroms)
 Number     Number       Type             X           Y           Z
 ---------------------------------------------------------------------
      1         11           0        3.103803    1.187795   -0.169327
      2         11           0        0.310982   -0.367159    1.999470
      3         11           0       -3.196072    0.420577    0.173845
      4         11           0        0.099379    0.294544   -1.602998
      5         11           0       -1.516795   -2.684576   -0.440166
      6         11           0       -0.798273    3.085127    0.045502
      7         11           0        1.996975   -1.936308   -0.006326
 ---------------------------------------------------------------------

 SCF Done:  E(UB3LYP) =  -1136.13503669     A.U. after   20 cycles

 The electronic state is 2-A.
 Alpha  occ. eigenvalues --  -38.44304 -38.44258 -38.43693 -38.43601 -38.43538
 Alpha  occ. eigenvalues --  -38.43357 -38.43158  -2.20099  -2.20076  -2.19504
 Alpha  occ. eigenvalues --   -2.19491  -2.19462  -2.19182  -2.19110  -1.13777
 Alpha  occ. eigenvalues --   -1.13759  -1.13751  -1.13737  -1.13732  -1.13722
 Alpha  occ. eigenvalues --   -1.13295  -1.13180  -1.13158  -1.13150  -1.13127
 Alpha  occ. eigenvalues --   -1.13125  -1.13107  -1.13065  -1.13064  -1.12858
 Alpha  occ. eigenvalues --   -1.12838  -1.12827  -1.12799  -1.12745  -1.12724
 Alpha  occ. eigenvalues --   -0.18450  -0.13117  -0.12298  -0.10524
 Alpha virt. eigenvalues --   -0.05941  -0.05131  -0.04870  -0.03181  -0.02778
 Alpha virt. eigenvalues --   -0.02357  -0.01716  -0.01168  -0.00629  -0.00406
 Alpha virt. eigenvalues --   -0.00005   0.00340   0.00779   0.00821   0.00874

  Beta  occ. eigenvalues --  -38.44303 -38.44253 -38.43693 -38.43526 -38.43508
  Beta  occ. eigenvalues --  -38.43348 -38.43097  -2.20098  -2.20070  -2.19494
  Beta  occ. eigenvalues --   -2.19448  -2.19330  -2.19167  -2.19000  -1.13762
  Beta  occ. eigenvalues --   -1.13760  -1.13744  -1.13740  -1.13721  -1.13711
  Beta  occ. eigenvalues --   -1.13233  -1.13175  -1.13147  -1.13127  -1.13099
  Beta  occ. eigenvalues --   -1.13067  -1.13029  -1.12982  -1.12971  -1.12838
  Beta  occ. eigenvalues --   -1.12823  -1.12814  -1.12725  -1.12664  -1.12643
  Beta  occ. eigenvalues --   -0.17728  -0.12900  -0.12071
  Beta virt. eigenvalues --   -0.06637  -0.05921  -0.05070  -0.04808  -0.02419
  Beta virt. eigenvalues --   -0.02068  -0.01629  -0.01343  -0.01082  -0.00666
  Beta virt. eigenvalues --   -0.00444   0.00144   0.00373   0.00808   0.00844

 Mulliken charges and spin densities:
               1          2
     1  Na   0.061785  -0.112879
     2  Na  -0.411644   0.668414
     3  Na  -0.020498  -0.035009
     4  Na  -0.075976   0.497992
     5  Na  -0.008465  -0.016964
     6  Na  -0.076504  -0.122582
     7  Na   0.531303   0.121028
 Sum of Mulliken charges =  -0.00000   1.00000

 Dipole moment (field-independent basis, Debye):
    X=              0.0254    Y=              0.2997    Z=              0.1130  Tot=              0.3213
 Quadrupole moment (field-independent basis, Debye-Ang):
   XX=            -55.1352   YY=            -62.1534   ZZ=            -75.5905
   XY=              1.4839   XZ=             -0.7296   YZ=              1.5989

 Normal termination of Gaussian 16 at Thu Dec  7 08:59:41 2023.
