 Gaussian 16, Revision B.01,
 Gaussian 16:  ES64L-G16RevB.01 20-Dec-2017

 -------------------------
 #P B3LYP/6-311+g(d) force
 -------------------------

 -----
 DPGEN
 -----
 Symbolic Z-matrix:
 Charge =  0 Multiplicity = 2

                         Standard orientation:
 ---------------------------------------------------------------------
 Center     Atomic      Atomic             Coordinates (Angstroms)
 Number     Number       Type             X           Y           Z
 ---------------------------------------------------------------------
      1         11           0        1.805823    0.825569   -1.061374
      2         11           0        0.069258   -1.726382   -1.291190
      3         11           0       -3.266204   -1.707526    0.221062
      4         11           0        3.659854   -1.373693    0.540438
      5         11           0       -2.489434    1.041036   -0.284519
      6         11           0        0.007383   -0.210461    1.739366
      7         11           0        0.213320    3.151456    0.136216
 ---------------------------------------------------------------------

 SCF Done:  E(UB3LYP) =  -1136.12385966     A.U. after   21 cycles

 The electronic state is 2-A.
 Alpha  occ. eigenvalues --  -38.44724 -38.44268 -38.44233 -38.44143 -38.43810
 Alpha  occ. eigenvalues --  -38.43248 -38.42750  -2.20509  -2.20149  -2.20116
 Alpha  occ. eigenvalues --   -2.20028  -2.19699  -2.19228  -2.18614  -1.14196
 Alpha  occ. eigenvalues --   -1.14161  -1.14130  -1.14012  -1.13824  -1.13803
 Alpha  occ. eigenvalues --   -1.13748  -1.13742  -1.13739  -1.13659  -1.13657
 Alpha  occ. eigenvalues --   -1.13629  -1.13433  -1.13361  -1.13275  -1.12924
 Alpha  occ. eigenvalues --   -1.12897  -1.12847  -1.12296  -1.12258  -1.12248
 Alpha  occ. eigenvalues --   -0.18571  -0.13770  -0.12116  -0.10323
 Alpha virt. eigenvalues --   -0.06760  -0.05197  -0.04336  -0.03491  -0.02585
 Alpha virt. eigenvalues --   -0.02328  -0.02082  -0.01317  -0.00455  -0.00282
 Alpha virt. eigenvalues --    0.00082   0.00215   0.00546   0.00639   0.00771

  Beta  occ. eigenvalues --  -38.44709 -38.44269 -38.44229 -38.44078 -38.43752
  Beta  occ. eigenvalues --  -38.43214 -38.42749  -2.20483  -2.20147  -2.20117
  Beta  occ. eigenvalues --   -2.19908  -2.19596  -2.19170  -2.18616  -1.14180
  Beta  occ. eigenvalues --   -1.14131  -1.14114  -1.14016  -1.13817  -1.13779
  Beta  occ. eigenvalues --   -1.13746  -1.13729  -1.13660  -1.13656  -1.13575
  Beta  occ. eigenvalues --   -1.13541  -1.13362  -1.13269  -1.13206  -1.12882
  Beta  occ. eigenvalues --   -1.12848  -1.12792  -1.12295  -1.12256  -1.12240
  Beta  occ. eigenvalues --   -0.17884  -0.13559  -0.11927
  Beta virt. eigenvalues --   -0.06642  -0.06455  -0.05149  -0.04194  -0.02862
  Beta virt. eigenvalues --   -0.02318  -0.01840  -0.01293  -0.01163  -0.00475
  Beta virt. eigenvalues --   -0.00028   0.00144   0.00281   0.00689   0.00747

 Mulliken charges and spin densities:
               1          2
     1  Na   0.256963   0.359903
     2  Na  -0.246655   0.140947
     3  Na   0.536266  -0.016410
     4  Na  -0.069497  -0.061494
     5  Na  -0.215846   0.076263
     6  Na  -0.559256   0.652279
     7  Na   0.298027  -0.151488
 Sum of Mulliken charges =  -0.00000   1.00000

 Dipole moment (field-independent basis, Debye):
    X=             -0.0619    Y=             -0.6575    Z=              0.2200  Tot=              0.6961
 Quadrupole moment (field-independent basis, Debye-Ang):
   XX=            -51.3375   YY=            -65.8583   ZZ=            -75.3663
   XY=              0.2286   XZ=              0.7582   YZ=             -1.0583

 Normal termination of Gaussian 16 at Tue Dec  5 15:04:55 2023.
