 Gaussian 16, Revision B.01,
 Gaussian 16:  ES64L-G16RevB.01 20-Dec-2017

 -------------------------
 #P B3LYP/6-311+g(d) force
 -------------------------

 -----
 DPGEN
 -----
 Symbolic Z-matrix:
 Charge =  0 Multiplicity = 2

                         Standard orientation:
 ---------------------------------------------------------------------
 Center     Atomic      Atomic             Coordinates (Angstroms)
 Number     Number       Type             X           Y           Z
 ---------------------------------------------------------------------
      1         11           0       -2.793097    1.895229   -0.222525
      2         11           0        8.668395   -0.538748   -0.949383
      3         11           0        6.121612   -0.500719    1.004259
      4         11           0        2.476776   -1.151593    0.284040
      5         11           0        0.485693    1.984857   -0.077599
      6         11           0       -6.662013    0.551924    0.289057
      7         11           0       -8.297366   -2.240950   -0.327850
 ---------------------------------------------------------------------

 SCF Done:  E(UB3LYP) =  -1136.10448203     A.U. after   19 cycles

 The electronic state is 2-A.
 Alpha  occ. eigenvalues --  -38.45185 -38.44890 -38.44724 -38.44542 -38.44456
 Alpha  occ. eigenvalues --  -38.44317 -38.44138  -2.20965  -2.20659  -2.20520
 Alpha  occ. eigenvalues --   -2.20330  -2.20221  -2.20073  -2.19913  -1.14616
 Alpha  occ. eigenvalues --   -1.14604  -1.14572  -1.14313  -1.14313  -1.14293
 Alpha  occ. eigenvalues --   -1.14162  -1.14160  -1.14158  -1.13988  -1.13986
 Alpha  occ. eigenvalues --   -1.13978  -1.13903  -1.13889  -1.13850  -1.13751
 Alpha  occ. eigenvalues --   -1.13746  -1.13714  -1.13593  -1.13587  -1.13564
 Alpha  occ. eigenvalues --   -0.14950  -0.13970  -0.12957  -0.11479
 Alpha virt. eigenvalues --   -0.07243  -0.05368  -0.04459  -0.03275  -0.02954
 Alpha virt. eigenvalues --   -0.02687  -0.02557  -0.02086  -0.01668  -0.01450
 Alpha virt. eigenvalues --   -0.01177  -0.00427  -0.00327   0.00246   0.00279

  Beta  occ. eigenvalues --  -38.45093 -38.44855 -38.44655 -38.44479 -38.44477
  Beta  occ. eigenvalues --  -38.44329 -38.44151  -2.20794  -2.20594  -2.20392
  Beta  occ. eigenvalues --   -2.20266  -2.20211  -2.20098  -2.19943  -1.14500
  Beta  occ. eigenvalues --   -1.14486  -1.14464  -1.14269  -1.14268  -1.14251
  Beta  occ. eigenvalues --   -1.14079  -1.14073  -1.14071  -1.13954  -1.13940
  Beta  occ. eigenvalues --   -1.13907  -1.13903  -1.13897  -1.13823  -1.13771
  Beta  occ. eigenvalues --   -1.13765  -1.13712  -1.13619  -1.13612  -1.13542
  Beta  occ. eigenvalues --   -0.14269  -0.13406  -0.12499
  Beta virt. eigenvalues --   -0.08402  -0.06762  -0.04920  -0.04191  -0.03090
  Beta virt. eigenvalues --   -0.02758  -0.02486  -0.02325  -0.01937  -0.01493
  Beta virt. eigenvalues --   -0.01079  -0.00792  -0.00213  -0.00075   0.00305

 Mulliken charges and spin densities:
               1          2
     1  Na   0.049236   0.317996
     2  Na   0.282582   0.365488
     3  Na  -0.447003  -0.110666
     4  Na   0.030019   0.384014
     5  Na   0.096458  -0.037702
     6  Na  -0.091020  -0.082503
     7  Na   0.079727   0.163373
 Sum of Mulliken charges =  -0.00000   1.00000

 Dipole moment (field-independent basis, Debye):
    X=              0.1082    Y=             -0.7698    Z=             -0.4313  Tot=              0.8890
 Quadrupole moment (field-independent basis, Debye-Ang):
   XX=            -53.6439   YY=            -64.4396   ZZ=            -72.2170
   XY=              7.8206   XZ=             -3.7392   YZ=              1.8023

 Normal termination of Gaussian 16 at Sun Dec  3 18:13:04 2023.
