 Gaussian 16, Revision B.01,
 Gaussian 16:  ES64L-G16RevB.01 20-Dec-2017

 -------------------------
 #P B3LYP/6-311+g(d) force
 -------------------------

 -----
 DPGEN
 -----
 Symbolic Z-matrix:
 Charge =  0 Multiplicity = 2

                         Standard orientation:
 ---------------------------------------------------------------------
 Center     Atomic      Atomic             Coordinates (Angstroms)
 Number     Number       Type             X           Y           Z
 ---------------------------------------------------------------------
      1         11           0        1.368032   -2.675096    0.174697
      2         11           0        0.556793    2.874148   -0.077011
      3         11           0        3.409074    0.407774   -0.234330
      4         11           0       -2.729936    1.612373   -0.124519
      5         11           0        0.319873   -0.249292   -1.312262
      6         11           0       -0.223351   -0.068268    1.990840
      7         11           0       -2.700485   -1.901638   -0.417415
 ---------------------------------------------------------------------

 SCF Done:  E(UB3LYP) =  -1136.13436480     A.U. after   20 cycles

 The electronic state is 2-A.
 Alpha  occ. eigenvalues --  -38.44481 -38.43984 -38.43981 -38.43784 -38.43268
 Alpha  occ. eigenvalues --  -38.43192 -38.43089  -2.20283  -2.19806  -2.19782
 Alpha  occ. eigenvalues --   -2.19637  -2.19106  -2.19105  -2.19093  -1.13962
 Alpha  occ. eigenvalues --   -1.13935  -1.13919  -1.13482  -1.13479  -1.13458
 Alpha  occ. eigenvalues --   -1.13455  -1.13423  -1.13411  -1.13379  -1.13295
 Alpha  occ. eigenvalues --   -1.13243  -1.12852  -1.12814  -1.12774  -1.12749
 Alpha  occ. eigenvalues --   -1.12735  -1.12730  -1.12711  -1.12700  -1.12696
 Alpha  occ. eigenvalues --   -0.18435  -0.13149  -0.12333  -0.10228
 Alpha virt. eigenvalues --   -0.06005  -0.05469  -0.04689  -0.02988  -0.02615
 Alpha virt. eigenvalues --   -0.02103  -0.01944  -0.01302  -0.00686  -0.00499
 Alpha virt. eigenvalues --   -0.00015   0.00287   0.00719   0.00781   0.00837

  Beta  occ. eigenvalues --  -38.44474 -38.43980 -38.43967 -38.43776 -38.43265
  Beta  occ. eigenvalues --  -38.43090 -38.43052  -2.20272  -2.19801  -2.19758
  Beta  occ. eigenvalues --   -2.19626  -2.19103  -2.19039  -2.18905  -1.13944
  Beta  occ. eigenvalues --   -1.13924  -1.13913  -1.13475  -1.13469  -1.13444
  Beta  occ. eigenvalues --   -1.13427  -1.13409  -1.13396  -1.13372  -1.13262
  Beta  occ. eigenvalues --   -1.13239  -1.12818  -1.12765  -1.12752  -1.12728
  Beta  occ. eigenvalues --   -1.12700  -1.12655  -1.12631  -1.12582  -1.12559
  Beta  occ. eigenvalues --   -0.17763  -0.12883  -0.12098
  Beta virt. eigenvalues --   -0.06447  -0.05855  -0.05444  -0.04648  -0.02296
  Beta virt. eigenvalues --   -0.01927  -0.01802  -0.01246  -0.01103  -0.00697
  Beta virt. eigenvalues --   -0.00522   0.00147   0.00354   0.00787   0.00793

 Mulliken charges and spin densities:
               1          2
     1  Na   0.257035   0.001070
     2  Na   0.073841  -0.021310
     3  Na   0.298892   0.005555
     4  Na   0.115243   0.024469
     5  Na  -0.628070   0.259653
     6  Na  -0.264514   0.653204
     7  Na   0.147573   0.077358
 Sum of Mulliken charges =  -0.00000   1.00000

 Dipole moment (field-independent basis, Debye):
    X=              0.2255    Y=             -0.1127    Z=              0.2009  Tot=              0.3224
 Quadrupole moment (field-independent basis, Debye-Ang):
   XX=            -53.0052   YY=            -61.6754   ZZ=            -76.7683
   XY=             -0.2644   XZ=              0.9104   YZ=             -0.2501

 Normal termination of Gaussian 16 at Thu Dec  7 20:00:32 2023.
