 Gaussian 16, Revision B.01,
 Gaussian 16:  ES64L-G16RevB.01 20-Dec-2017

 -------------------------
 #P B3LYP/6-311+g(d) force
 -------------------------

 -----
 DPGEN
 -----
 Symbolic Z-matrix:
 Charge =  0 Multiplicity = 2

                         Standard orientation:
 ---------------------------------------------------------------------
 Center     Atomic      Atomic             Coordinates (Angstroms)
 Number     Number       Type             X           Y           Z
 ---------------------------------------------------------------------
      1         11           0        8.681837    1.456553    0.216502
      2         11           0        0.028234   -0.549894   -0.572978
      3         11           0        6.956995   -0.993946    0.284785
      4         11           0        3.202703   -0.128705   -0.158294
      5         11           0       -3.688733   -1.351847    0.001381
      6         11           0       -9.127020    0.259628    0.634123
      7         11           0       -6.054015    1.308211   -0.405519
 ---------------------------------------------------------------------

 SCF Done:  E(UB3LYP) =  -1136.10625384     A.U. after   21 cycles

 The electronic state is 2-A.
 Alpha  occ. eigenvalues --  -38.45054 -38.44874 -38.44832 -38.44633 -38.44410
 Alpha  occ. eigenvalues --  -38.43971 -38.43597  -2.20833  -2.20678  -2.20618
 Alpha  occ. eigenvalues --   -2.20396  -2.20218  -2.19775  -2.19366  -1.14479
 Alpha  occ. eigenvalues --   -1.14477  -1.14450  -1.14381  -1.14320  -1.14316
 Alpha  occ. eigenvalues --   -1.14271  -1.14265  -1.14223  -1.14081  -1.14064
 Alpha  occ. eigenvalues --   -1.14043  -1.13875  -1.13869  -1.13864  -1.13431
 Alpha  occ. eigenvalues --   -1.13430  -1.13406  -1.13049  -1.13048  -1.13011
 Alpha  occ. eigenvalues --   -0.14862  -0.14387  -0.12826  -0.11254
 Alpha virt. eigenvalues --   -0.06754  -0.05692  -0.04279  -0.03241  -0.02923
 Alpha virt. eigenvalues --   -0.02858  -0.02535  -0.01794  -0.01680  -0.01111
 Alpha virt. eigenvalues --   -0.00598  -0.00547  -0.00475   0.00274   0.00579

  Beta  occ. eigenvalues --  -38.44975 -38.44845 -38.44745 -38.44651 -38.44415
  Beta  occ. eigenvalues --  -38.43912 -38.43614  -2.20684  -2.20625  -2.20457
  Beta  occ. eigenvalues --   -2.20432  -2.20231  -2.19665  -2.19403  -1.14377
  Beta  occ. eigenvalues --   -1.14375  -1.14355  -1.14349  -1.14284  -1.14280
  Beta  occ. eigenvalues --   -1.14161  -1.14156  -1.14125  -1.14111  -1.14088
  Beta  occ. eigenvalues --   -1.14031  -1.13886  -1.13877  -1.13854  -1.13356
  Beta  occ. eigenvalues --   -1.13354  -1.13340  -1.13079  -1.13079  -1.12992
  Beta  occ. eigenvalues --   -0.14289  -0.13841  -0.12222
  Beta virt. eigenvalues --   -0.08165  -0.06303  -0.05276  -0.04079  -0.03079
  Beta virt. eigenvalues --   -0.02776  -0.02562  -0.02255  -0.01632  -0.01325
  Beta virt. eigenvalues --   -0.00791  -0.00453  -0.00315  -0.00080   0.00416

 Mulliken charges and spin densities:
               1          2
     1  Na   0.105929   0.129718
     2  Na  -1.225489  -0.109735
     3  Na   0.569198   0.010720
     4  Na   0.155272   0.353882
     5  Na   0.431327   0.277334
     6  Na   0.105335   0.358797
     7  Na  -0.141572  -0.020716
 Sum of Mulliken charges =  -0.00000   1.00000

 Dipole moment (field-independent basis, Debye):
    X=             -0.1450    Y=              0.3621    Z=              0.3060  Tot=              0.4957
 Quadrupole moment (field-independent basis, Debye-Ang):
   XX=            -37.1674   YY=            -63.8142   ZZ=            -74.9458
   XY=              9.2223   XZ=             -2.2183   YZ=             -2.2974

 Normal termination of Gaussian 16 at Sun Dec  3 12:44:47 2023.
