 Gaussian 16, Revision B.01,
 Gaussian 16:  ES64L-G16RevB.01 20-Dec-2017

 -------------------------
 #P B3LYP/6-311+g(d) force
 -------------------------

 -----
 DPGEN
 -----
 Symbolic Z-matrix:
 Charge =  0 Multiplicity = 2

                         Standard orientation:
 ---------------------------------------------------------------------
 Center     Atomic      Atomic             Coordinates (Angstroms)
 Number     Number       Type             X           Y           Z
 ---------------------------------------------------------------------
      1         11           0        0.392237   -0.417931   -1.274015
      2         11           0        0.347771    0.632801    2.282675
      3         11           0        3.801257   -1.723288   -0.722954
      4         11           0       -2.089215   -1.865829    1.618202
      5         11           0        2.461074    1.595240    0.087058
      6         11           0       -3.337715   -0.835873   -1.409478
      7         11           0       -1.575409    2.614880   -0.581488
 ---------------------------------------------------------------------

 SCF Done:  E(UB3LYP) =  -1136.12153912     A.U. after   23 cycles

 The electronic state is 2-A.
 Alpha  occ. eigenvalues --  -38.44377 -38.44247 -38.44173 -38.44150 -38.44109
 Alpha  occ. eigenvalues --  -38.44019 -38.43533  -2.20193  -2.20042  -2.20028
 Alpha  occ. eigenvalues --   -2.20019  -2.19903  -2.19884  -2.19298  -1.13857
 Alpha  occ. eigenvalues --   -1.13847  -1.13813  -1.13807  -1.13758  -1.13740
 Alpha  occ. eigenvalues --   -1.13710  -1.13685  -1.13666  -1.13639  -1.13627
 Alpha  occ. eigenvalues --   -1.13586  -1.13574  -1.13550  -1.13545  -1.13541
 Alpha  occ. eigenvalues --   -1.13529  -1.13474  -1.12972  -1.12971  -1.12927
 Alpha  occ. eigenvalues --   -0.17746  -0.13425  -0.11899  -0.11031
 Alpha virt. eigenvalues --   -0.05902  -0.05760  -0.04877  -0.03179  -0.02899
 Alpha virt. eigenvalues --   -0.02738  -0.02084  -0.01317  -0.00790  -0.00110
 Alpha virt. eigenvalues --    0.00060   0.00142   0.00217   0.00396   0.00718

  Beta  occ. eigenvalues --  -38.44314 -38.44205 -38.44151 -38.44149 -38.44097
  Beta  occ. eigenvalues --  -38.43952 -38.43542  -2.20078  -2.20019  -2.20003
  Beta  occ. eigenvalues --   -2.19951  -2.19882  -2.19760  -2.19316  -1.13795
  Beta  occ. eigenvalues --   -1.13776  -1.13769  -1.13734  -1.13726  -1.13706
  Beta  occ. eigenvalues --   -1.13662  -1.13646  -1.13631  -1.13605  -1.13585
  Beta  occ. eigenvalues --   -1.13580  -1.13559  -1.13530  -1.13521  -1.13463
  Beta  occ. eigenvalues --   -1.13447  -1.13384  -1.12983  -1.12983  -1.12938
  Beta  occ. eigenvalues --   -0.17045  -0.13201  -0.10953
  Beta virt. eigenvalues --   -0.07876  -0.05728  -0.05507  -0.04228  -0.02836
  Beta virt. eigenvalues --   -0.02356  -0.02255  -0.01922  -0.01227  -0.00349
  Beta virt. eigenvalues --   -0.00123   0.00167   0.00203   0.00374   0.00579

 Mulliken charges and spin densities:
               1          2
     1  Na  -1.281618   0.454219
     2  Na   0.032856   0.359292
     3  Na   0.252999  -0.078328
     4  Na  -0.094351   0.124304
     5  Na   0.850142  -0.017293
     6  Na   0.486600   0.080817
     7  Na  -0.246627   0.076989
 Sum of Mulliken charges =  -0.00000   1.00000

 Dipole moment (field-independent basis, Debye):
    X=             -0.4136    Y=              0.4939    Z=              0.2539  Tot=              0.6925
 Quadrupole moment (field-independent basis, Debye-Ang):
   XX=            -58.6923   YY=            -69.0268   ZZ=            -68.9084
   XY=              0.2403   XZ=              3.5435   YZ=             -3.3651

 Normal termination of Gaussian 16 at Thu Dec  7 13:31:02 2023.
