 Gaussian 16, Revision B.01,
 Gaussian 16:  ES64L-G16RevB.01 20-Dec-2017

 -------------------------
 #P B3LYP/6-311+g(d) force
 -------------------------

 -----
 DPGEN
 -----
 Symbolic Z-matrix:
 Charge =  0 Multiplicity = 2

                         Standard orientation:
 ---------------------------------------------------------------------
 Center     Atomic      Atomic             Coordinates (Angstroms)
 Number     Number       Type             X           Y           Z
 ---------------------------------------------------------------------
      1         11           0        0.680423   -0.317633   -1.822780
      2         11           0       -2.328679    0.203466    1.706601
      3         11           0        3.665803   -0.693092    0.192287
      4         11           0        0.957736   -0.469186    1.725817
      5         11           0       -1.735944   -2.316568   -0.695973
      6         11           0        0.903315    2.415382   -0.236779
      7         11           0       -2.142654    1.177631   -0.869174
 ---------------------------------------------------------------------

 SCF Done:  E(UB3LYP) =  -1136.12177434     A.U. after   24 cycles

 The electronic state is 2-A.
 Alpha  occ. eigenvalues --  -38.44603 -38.44542 -38.43952 -38.43812 -38.43632
 Alpha  occ. eigenvalues --  -38.43527 -38.42671  -2.20476  -2.20415  -2.19918
 Alpha  occ. eigenvalues --   -2.19731  -2.19608  -2.19382  -2.18554  -1.14290
 Alpha  occ. eigenvalues --   -1.14125  -1.14112  -1.14069  -1.14045  -1.14037
 Alpha  occ. eigenvalues --   -1.13618  -1.13567  -1.13532  -1.13399  -1.13381
 Alpha  occ. eigenvalues --   -1.13355  -1.13305  -1.13255  -1.13180  -1.13067
 Alpha  occ. eigenvalues --   -1.13021  -1.13004  -1.12252  -1.12228  -1.12160
 Alpha  occ. eigenvalues --   -0.19070  -0.13682  -0.12117  -0.11246
 Alpha virt. eigenvalues --   -0.06325  -0.04664  -0.04390  -0.03447  -0.02971
 Alpha virt. eigenvalues --   -0.02674  -0.02038  -0.00710  -0.00535   0.00124
 Alpha virt. eigenvalues --    0.00274   0.00336   0.00410   0.00831   0.00881

  Beta  occ. eigenvalues --  -38.44608 -38.44489 -38.43880 -38.43765 -38.43620
  Beta  occ. eigenvalues --  -38.43490 -38.42671  -2.20425  -2.20378  -2.19787
  Beta  occ. eigenvalues --   -2.19646  -2.19591  -2.19318  -2.18555  -1.14228
  Beta  occ. eigenvalues --   -1.14115  -1.14074  -1.14053  -1.14046  -1.13970
  Beta  occ. eigenvalues --   -1.13537  -1.13457  -1.13441  -1.13345  -1.13307
  Beta  occ. eigenvalues --   -1.13297  -1.13267  -1.13231  -1.13173  -1.13009
  Beta  occ. eigenvalues --   -1.12980  -1.12955  -1.12254  -1.12209  -1.12164
  Beta  occ. eigenvalues --   -0.18255  -0.13549  -0.11024
  Beta virt. eigenvalues --   -0.07995  -0.06128  -0.04348  -0.03991  -0.03039
  Beta virt. eigenvalues --   -0.02311  -0.02080  -0.01813  -0.00575  -0.00258
  Beta virt. eigenvalues --    0.00175   0.00323   0.00387   0.00517   0.00905

 Mulliken charges and spin densities:
               1          2
     1  Na  -0.083718   0.351790
     2  Na   0.145364   0.180106
     3  Na   0.357073  -0.058725
     4  Na  -0.275723   0.265273
     5  Na  -0.299120   0.172851
     6  Na  -0.431164   0.005313
     7  Na   0.587288   0.083393
 Sum of Mulliken charges =  -0.00000   1.00000

 Dipole moment (field-independent basis, Debye):
    X=              0.6404    Y=             -0.1835    Z=              0.0262  Tot=              0.6667
 Quadrupole moment (field-independent basis, Debye-Ang):
   XX=            -53.9318   YY=            -73.5800   ZZ=            -67.7443
   XY=             -0.1658   XZ=             -1.4406   YZ=              4.3954

 Normal termination of Gaussian 16 at Tue Dec  5 14:39:55 2023.
