 Gaussian 16, Revision B.01,
 Gaussian 16:  ES64L-G16RevB.01 20-Dec-2017

 -------------------------
 #P B3LYP/6-311+g(d) force
 -------------------------

 -----
 DPGEN
 -----
 Symbolic Z-matrix:
 Charge =  0 Multiplicity = 2

                         Standard orientation:
 ---------------------------------------------------------------------
 Center     Atomic      Atomic             Coordinates (Angstroms)
 Number     Number       Type             X           Y           Z
 ---------------------------------------------------------------------
      1         11           0        2.613766   -1.289963   -0.720608
      2         11           0       -0.443558   -1.658111    1.819523
      3         11           0        3.983445    1.012028    1.087225
      4         11           0       -2.340540    2.643276   -0.026823
      5         11           0        0.615203    1.649359   -0.911469
      6         11           0       -0.608213   -1.626945   -1.839813
      7         11           0       -3.820103   -0.729642    0.591966
 ---------------------------------------------------------------------

 SCF Done:  E(UB3LYP) =  -1136.12003295     A.U. after   21 cycles

 The electronic state is 2-A.
 Alpha  occ. eigenvalues --  -38.44998 -38.44971 -38.44382 -38.44162 -38.43973
 Alpha  occ. eigenvalues --  -38.43412 -38.43054  -2.20760  -2.20737  -2.20193
 Alpha  occ. eigenvalues --   -2.20005  -2.19840  -2.19257  -2.18848  -1.14443
 Alpha  occ. eigenvalues --   -1.14417  -1.14405  -1.14395  -1.14373  -1.14358
 Alpha  occ. eigenvalues --   -1.13861  -1.13837  -1.13814  -1.13682  -1.13651
 Alpha  occ. eigenvalues --   -1.13623  -1.13520  -1.13508  -1.13466  -1.12952
 Alpha  occ. eigenvalues --   -1.12930  -1.12884  -1.12522  -1.12512  -1.12486
 Alpha  occ. eigenvalues --   -0.17416  -0.13682  -0.11505  -0.11153
 Alpha virt. eigenvalues --   -0.06807  -0.05376  -0.04624  -0.03406  -0.02733
 Alpha virt. eigenvalues --   -0.02570  -0.02343  -0.01265  -0.01056  -0.00507
 Alpha virt. eigenvalues --   -0.00019   0.00090   0.00262   0.00528   0.00605

  Beta  occ. eigenvalues --  -38.44979 -38.44938 -38.44324 -38.44103 -38.43961
  Beta  occ. eigenvalues --  -38.43386 -38.43056  -2.20725  -2.20676  -2.20084
  Beta  occ. eigenvalues --   -2.19898  -2.19825  -2.19211  -2.18853  -1.14420
  Beta  occ. eigenvalues --   -1.14382  -1.14372  -1.14361  -1.14334  -1.14319
  Beta  occ. eigenvalues --   -1.13788  -1.13761  -1.13743  -1.13603  -1.13578
  Beta  occ. eigenvalues --   -1.13544  -1.13505  -1.13497  -1.13419  -1.12925
  Beta  occ. eigenvalues --   -1.12881  -1.12852  -1.12525  -1.12508  -1.12487
  Beta  occ. eigenvalues --   -0.16780  -0.13142  -0.11273
  Beta virt. eigenvalues --   -0.07700  -0.06441  -0.05269  -0.04114  -0.03172
  Beta virt. eigenvalues --   -0.02277  -0.02238  -0.01822  -0.01175  -0.00756
  Beta virt. eigenvalues --   -0.00326   0.00033   0.00200   0.00332   0.00632

 Mulliken charges and spin densities:
               1          2
     1  Na   0.443187   0.172951
     2  Na  -0.153685   0.103266
     3  Na   0.186314   0.250580
     4  Na   0.201829  -0.147201
     5  Na  -0.958212   0.168319
     6  Na   0.259546   0.195486
     7  Na   0.021020   0.256598
 Sum of Mulliken charges =  -0.00000   1.00000

 Dipole moment (field-independent basis, Debye):
    X=             -0.1383    Y=             -1.0213    Z=              0.3660  Tot=              1.0937
 Quadrupole moment (field-independent basis, Debye-Ang):
   XX=            -56.4047   YY=            -75.1884   ZZ=            -66.5435
   XY=              1.6211   XZ=              2.5303   YZ=              3.6621

 Normal termination of Gaussian 16 at Sun Dec  3 22:51:44 2023.
