 Gaussian 16, Revision B.01,
 Gaussian 16:  ES64L-G16RevB.01 20-Dec-2017

 -------------------------
 #P B3LYP/6-311+g(d) force
 -------------------------

 -----
 DPGEN
 -----
 Symbolic Z-matrix:
 Charge =  0 Multiplicity = 2

                         Standard orientation:
 ---------------------------------------------------------------------
 Center     Atomic      Atomic             Coordinates (Angstroms)
 Number     Number       Type             X           Y           Z
 ---------------------------------------------------------------------
      1         11           0       -3.073487   -0.796219   -0.222843
      2         11           0        1.728739    2.275458   -0.048647
      3         11           0       -1.604913    2.265365   -0.246665
      4         11           0       -0.441735   -2.403529    0.086423
      5         11           0        0.564601   -0.167510   -1.661114
      6         11           0        0.051748    0.167289    2.140193
      7         11           0        2.775046   -1.340854   -0.047347
 ---------------------------------------------------------------------

 SCF Done:  E(UB3LYP) =  -1136.13356821     A.U. after   19 cycles

 The electronic state is 2-A.
 Alpha  occ. eigenvalues --  -38.43849 -38.43832 -38.43777 -38.43435 -38.43412
 Alpha  occ. eigenvalues --  -38.43387 -38.43073  -2.19742  -2.19735  -2.19628
 Alpha  occ. eigenvalues --   -2.19483  -2.19304  -2.19255  -2.19042  -1.13510
 Alpha  occ. eigenvalues --   -1.13412  -1.13381  -1.13372  -1.13362  -1.13350
 Alpha  occ. eigenvalues --   -1.13328  -1.13283  -1.13274  -1.13194  -1.13160
 Alpha  occ. eigenvalues --   -1.13075  -1.12977  -1.12965  -1.12939  -1.12923
 Alpha  occ. eigenvalues --   -1.12914  -1.12864  -1.12726  -1.12698  -1.12645
 Alpha  occ. eigenvalues --   -0.19212  -0.13084  -0.12652  -0.11165
 Alpha virt. eigenvalues --   -0.05408  -0.05152  -0.04340  -0.03238  -0.03109
 Alpha virt. eigenvalues --   -0.02802  -0.01430  -0.00974  -0.00065  -0.00060
 Alpha virt. eigenvalues --    0.00096   0.00344   0.00839   0.00935   0.00971

  Beta  occ. eigenvalues --  -38.43844 -38.43776 -38.43728 -38.43405 -38.43381
  Beta  occ. eigenvalues --  -38.43371 -38.43062  -2.19732  -2.19628  -2.19550
  Beta  occ. eigenvalues --   -2.19367  -2.19295  -2.19247  -2.19027  -1.13492
  Beta  occ. eigenvalues --   -1.13366  -1.13355  -1.13332  -1.13288  -1.13277
  Beta  occ. eigenvalues --   -1.13260  -1.13235  -1.13218  -1.13122  -1.13099
  Beta  occ. eigenvalues --   -1.13000  -1.12962  -1.12934  -1.12921  -1.12911
  Beta  occ. eigenvalues --   -1.12892  -1.12863  -1.12713  -1.12645  -1.12642
  Beta  occ. eigenvalues --   -0.18451  -0.12856  -0.12391
  Beta virt. eigenvalues --   -0.07171  -0.05341  -0.05153  -0.04326  -0.02450
  Beta virt. eigenvalues --   -0.02250  -0.01711  -0.01365  -0.00928  -0.00116
  Beta virt. eigenvalues --    0.00047   0.00108   0.00372   0.00894   0.00933

 Mulliken charges and spin densities:
               1          2
     1  Na  -0.158929  -0.080372
     2  Na   0.287861  -0.056826
     3  Na   0.145551  -0.014080
     4  Na   0.488932   0.118725
     5  Na  -0.647745   0.407222
     6  Na  -0.704005   0.643302
     7  Na   0.588334  -0.017971
 Sum of Mulliken charges =  -0.00000   1.00000

 Dipole moment (field-independent basis, Debye):
    X=              0.1597    Y=              0.1446    Z=              0.2366  Tot=              0.3201
 Quadrupole moment (field-independent basis, Debye-Ang):
   XX=            -56.6767   YY=            -65.9722   ZZ=            -72.0991
   XY=             -0.5074   XZ=              1.1934   YZ=             -0.5844

 Normal termination of Gaussian 16 at Tue Dec  5 17:22:51 2023.
