 Gaussian 16, Revision B.01,
 Gaussian 16:  ES64L-G16RevB.01 20-Dec-2017

 -------------------------
 #P B3LYP/6-311+g(d) force
 -------------------------

 -----
 DPGEN
 -----
 Symbolic Z-matrix:
 Charge =  0 Multiplicity = 2

                         Standard orientation:
 ---------------------------------------------------------------------
 Center     Atomic      Atomic             Coordinates (Angstroms)
 Number     Number       Type             X           Y           Z
 ---------------------------------------------------------------------
      1         11           0        1.942406   -2.202090    0.737040
      2         11           0       -4.085814   -0.956486   -1.369635
      3         11           0        0.087055   -0.027252   -1.212817
      4         11           0       -1.185281   -0.936050    1.957451
      5         11           0        3.926647   -0.261877   -0.992313
      6         11           0        1.824328    2.605381    0.346907
      7         11           0       -2.509341    1.778374    0.533367
 ---------------------------------------------------------------------

 SCF Done:  E(UB3LYP) =  -1136.11874435     A.U. after   25 cycles

 The electronic state is 2-A.
 Alpha  occ. eigenvalues --  -38.45112 -38.44817 -38.44743 -38.44526 -38.43837
 Alpha  occ. eigenvalues --  -38.43375 -38.42839  -2.20958  -2.20609  -2.20553
 Alpha  occ. eigenvalues --   -2.20340  -2.19687  -2.19139  -2.18683  -1.14680
 Alpha  occ. eigenvalues --   -1.14608  -1.14582  -1.14259  -1.14249  -1.14232
 Alpha  occ. eigenvalues --   -1.14208  -1.14202  -1.14167  -1.14039  -1.14008
 Alpha  occ. eigenvalues --   -1.13957  -1.13355  -1.13330  -1.13309  -1.12826
 Alpha  occ. eigenvalues --   -1.12812  -1.12772  -1.12360  -1.12353  -1.12328
 Alpha  occ. eigenvalues --   -0.17577  -0.14154  -0.11078  -0.10986
 Alpha virt. eigenvalues --   -0.06691  -0.05871  -0.04805  -0.02988  -0.02870
 Alpha virt. eigenvalues --   -0.02515  -0.02378  -0.01330  -0.00975  -0.00554
 Alpha virt. eigenvalues --   -0.00049   0.00001   0.00182   0.00326   0.00667

  Beta  occ. eigenvalues --  -38.45111 -38.44714 -38.44712 -38.44519 -38.43780
  Beta  occ. eigenvalues --  -38.43385 -38.42838  -2.20958  -2.20499  -2.20412
  Beta  occ. eigenvalues --   -2.20331  -2.19582  -2.19159  -2.18684  -1.14659
  Beta  occ. eigenvalues --   -1.14611  -1.14588  -1.14195  -1.14167  -1.14133
  Beta  occ. eigenvalues --   -1.14124  -1.14112  -1.14080  -1.14020  -1.14006
  Beta  occ. eigenvalues --   -1.13931  -1.13282  -1.13254  -1.13237  -1.12839
  Beta  occ. eigenvalues --   -1.12826  -1.12778  -1.12365  -1.12357  -1.12305
  Beta  occ. eigenvalues --   -0.17087  -0.13625  -0.10816
  Beta virt. eigenvalues --   -0.07477  -0.06471  -0.05420  -0.04476  -0.02869
  Beta virt. eigenvalues --   -0.02597  -0.02004  -0.01767  -0.01133  -0.00708
  Beta virt. eigenvalues --   -0.00249   0.00044   0.00080   0.00343   0.00453

 Mulliken charges and spin densities:
               1          2
     1  Na  -0.190508   0.042530
     2  Na   0.066173   0.557217
     3  Na  -1.218377  -0.074145
     4  Na   0.024058   0.213773
     5  Na   0.890418   0.110242
     6  Na  -0.048954  -0.042813
     7  Na   0.477189   0.193196
 Sum of Mulliken charges =  -0.00000   1.00000

 Dipole moment (field-independent basis, Debye):
    X=             -0.0284    Y=              0.1037    Z=              0.1078  Tot=              0.1523
 Quadrupole moment (field-independent basis, Debye-Ang):
   XX=            -55.2896   YY=            -75.8118   ZZ=            -67.6538
   XY=             -1.9148   XZ=             -3.2218   YZ=              4.3432

 Normal termination of Gaussian 16 at Tue Dec  5 14:24:43 2023.
