 Gaussian 16, Revision B.01,
 Gaussian 16:  ES64L-G16RevB.01 20-Dec-2017

 -------------------------
 #P B3LYP/6-311+g(d) force
 -------------------------

 -----
 DPGEN
 -----
 Symbolic Z-matrix:
 Charge =  0 Multiplicity = 2

                         Standard orientation:
 ---------------------------------------------------------------------
 Center     Atomic      Atomic             Coordinates (Angstroms)
 Number     Number       Type             X           Y           Z
 ---------------------------------------------------------------------
      1         11           0        4.236725   -0.698444   -1.202798
      2         11           0       -0.168130    1.920242    1.541341
      3         11           0        0.969078   -2.179020   -0.735978
      4         11           0       -0.276307   -1.813166    2.477705
      5         11           0       -2.392468   -0.342032   -0.764052
      6         11           0        2.677062    2.561104   -0.222278
      7         11           0       -5.045962    0.551316   -1.093940
 ---------------------------------------------------------------------

 SCF Done:  E(UB3LYP) =  -1136.10838284     A.U. after   26 cycles

 The electronic state is 2-A.
 Alpha  occ. eigenvalues --  -38.45535 -38.45108 -38.44417 -38.44406 -38.43828
 Alpha  occ. eigenvalues --  -38.43799 -38.43560  -2.21334  -2.20881  -2.20202
 Alpha  occ. eigenvalues --   -2.20199  -2.19644  -2.19596  -2.19431  -1.14993
 Alpha  occ. eigenvalues --   -1.14974  -1.14945  -1.14542  -1.14529  -1.14496
 Alpha  occ. eigenvalues --   -1.13895  -1.13875  -1.13866  -1.13857  -1.13843
 Alpha  occ. eigenvalues --   -1.13792  -1.13495  -1.13276  -1.13274  -1.13266
 Alpha  occ. eigenvalues --   -1.13262  -1.13231  -1.13084  -1.13082  -1.12985
 Alpha  occ. eigenvalues --   -0.16739  -0.13462  -0.12351  -0.11645
 Alpha virt. eigenvalues --   -0.06568  -0.05620  -0.04808  -0.03385  -0.02848
 Alpha virt. eigenvalues --   -0.02517  -0.02383  -0.01383  -0.01253  -0.00596
 Alpha virt. eigenvalues --   -0.00239  -0.00119   0.00054   0.00137   0.00674

  Beta  occ. eigenvalues --  -38.45445 -38.45049 -38.44398 -38.44387 -38.43827
  Beta  occ. eigenvalues --  -38.43770 -38.43554  -2.21168  -2.20772  -2.20168
  Beta  occ. eigenvalues --   -2.20164  -2.19598  -2.19592  -2.19421  -1.14884
  Beta  occ. eigenvalues --   -1.14863  -1.14820  -1.14468  -1.14449  -1.14428
  Beta  occ. eigenvalues --   -1.13875  -1.13854  -1.13839  -1.13828  -1.13816
  Beta  occ. eigenvalues --   -1.13761  -1.13463  -1.13279  -1.13271  -1.13231
  Beta  occ. eigenvalues --   -1.13228  -1.13219  -1.13077  -1.13074  -1.12966
  Beta  occ. eigenvalues --   -0.16061  -0.12875  -0.11466
  Beta virt. eigenvalues --   -0.08803  -0.06152  -0.05088  -0.04395  -0.03086
  Beta virt. eigenvalues --   -0.02587  -0.02245  -0.02110  -0.01169  -0.00971
  Beta virt. eigenvalues --   -0.00419  -0.00082  -0.00039   0.00272   0.00315

 Mulliken charges and spin densities:
               1          2
     1  Na  -0.190588   0.225935
     2  Na  -0.064482   0.503715
     3  Na   2.199119   0.291633
     4  Na   0.103711  -0.019703
     5  Na  -0.962305   0.084921
     6  Na   0.150998  -0.058600
     7  Na  -1.236453  -0.027901
 Sum of Mulliken charges =  -0.00000   1.00000

 Dipole moment (field-independent basis, Debye):
    X=              0.7508    Y=             -0.4161    Z=              0.9039  Tot=              1.2466
 Quadrupole moment (field-independent basis, Debye-Ang):
   XX=            -62.3612   YY=            -71.6028   ZZ=            -65.4234
   XY=             -3.9038   XZ=             -4.3134   YZ=              1.7560

 Normal termination of Gaussian 16 at Sun Dec  3 14:41:31 2023.
