 Gaussian 16, Revision B.01,
 Gaussian 16:  ES64L-G16RevB.01 20-Dec-2017

 -------------------------
 #P B3LYP/6-311+g(d) force
 -------------------------

 -----
 DPGEN
 -----
 Symbolic Z-matrix:
 Charge =  0 Multiplicity = 2

                         Standard orientation:
 ---------------------------------------------------------------------
 Center     Atomic      Atomic             Coordinates (Angstroms)
 Number     Number       Type             X           Y           Z
 ---------------------------------------------------------------------
      1         11           0       -6.014238    1.552747   -0.723812
      2         11           0        5.178410   -0.179299    0.450100
      3         11           0       -3.570226    1.370206    1.371831
      4         11           0       -1.121626   -1.427299    1.441160
      5         11           0        2.033422   -1.926317   -0.468493
      6         11           0        7.448094    1.744163   -0.649424
      7         11           0       -3.953835   -1.134201   -1.421362
 ---------------------------------------------------------------------

 SCF Done:  E(UB3LYP) =  -1136.10488778     A.U. after   28 cycles

 The electronic state is 2-A.
 Alpha  occ. eigenvalues --  -38.46773 -38.44849 -38.44661 -38.44230 -38.43971
 Alpha  occ. eigenvalues --  -38.43631 -38.43423  -2.22537  -2.20687  -2.20480
 Alpha  occ. eigenvalues --   -2.20006  -2.19767  -2.19405  -2.19208  -1.16227
 Alpha  occ. eigenvalues --   -1.16184  -1.16150  -1.14362  -1.14344  -1.14325
 Alpha  occ. eigenvalues --   -1.14143  -1.14136  -1.14116  -1.13667  -1.13662
 Alpha  occ. eigenvalues --   -1.13612  -1.13419  -1.13411  -1.13410  -1.13094
 Alpha  occ. eigenvalues --   -1.13082  -1.13039  -1.12885  -1.12883  -1.12856
 Alpha  occ. eigenvalues --   -0.16386  -0.13878  -0.12172  -0.10575
 Alpha virt. eigenvalues --   -0.07948  -0.05276  -0.04390  -0.03759  -0.02808
 Alpha virt. eigenvalues --   -0.02614  -0.02352  -0.02168  -0.01375  -0.01043
 Alpha virt. eigenvalues --   -0.00647  -0.00324   0.00112   0.00150   0.00155

  Beta  occ. eigenvalues --  -38.46741 -38.44801 -38.44661 -38.44161 -38.43922
  Beta  occ. eigenvalues --  -38.43626 -38.43432  -2.22479  -2.20597  -2.20482
  Beta  occ. eigenvalues --   -2.19878  -2.19675  -2.19399  -2.19229  -1.16189
  Beta  occ. eigenvalues --   -1.16139  -1.16101  -1.14303  -1.14289  -1.14266
  Beta  occ. eigenvalues --   -1.14145  -1.14124  -1.14107  -1.13579  -1.13574
  Beta  occ. eigenvalues --   -1.13533  -1.13362  -1.13348  -1.13347  -1.13094
  Beta  occ. eigenvalues --   -1.13084  -1.13001  -1.12904  -1.12901  -1.12834
  Beta  occ. eigenvalues --   -0.15980  -0.13313  -0.11821
  Beta virt. eigenvalues --   -0.07778  -0.07073  -0.05005  -0.04144  -0.03457
  Beta virt. eigenvalues --   -0.02557  -0.02315  -0.02086  -0.01946  -0.01286
  Beta virt. eigenvalues --   -0.00633  -0.00463  -0.00035   0.00223   0.00282

 Mulliken charges and spin densities:
               1          2
     1  Na   0.468826   0.051725
     2  Na  -0.319032  -0.042397
     3  Na  -0.184360   0.220477
     4  Na  -0.251053   0.039399
     5  Na  -0.027055   0.322479
     6  Na   0.317257   0.231470
     7  Na  -0.004583   0.176846
 Sum of Mulliken charges =  -0.00000   1.00000

 Dipole moment (field-independent basis, Debye):
    X=             -3.2396    Y=              0.5614    Z=             -0.7962  Tot=              3.3829
 Quadrupole moment (field-independent basis, Debye-Ang):
   XX=            -61.1551   YY=            -64.7210   ZZ=            -70.4208
   XY=              0.8719   XZ=             -1.0608   YZ=              2.3423

 Normal termination of Gaussian 16 at Mon Dec  4 03:33:38 2023.
