 Gaussian 16, Revision B.01,
 Gaussian 16:  ES64L-G16RevB.01 20-Dec-2017

 -------------------------
 #P B3LYP/6-311+g(d) force
 -------------------------

 -----
 DPGEN
 -----
 Symbolic Z-matrix:
 Charge =  0 Multiplicity = 2

                         Standard orientation:
 ---------------------------------------------------------------------
 Center     Atomic      Atomic             Coordinates (Angstroms)
 Number     Number       Type             X           Y           Z
 ---------------------------------------------------------------------
      1         11           0       -0.532921    2.644576    0.125540
      2         11           0        0.374885   -0.529905    1.770584
      3         11           0       -3.713503    0.529056   -0.902350
      4         11           0       -2.549932   -1.734252    0.764313
      5         11           0       -0.164084   -0.774375   -1.140873
      6         11           0        3.126859    1.534992    0.154405
      7         11           0        3.458696   -1.670091   -0.771619
 ---------------------------------------------------------------------

 SCF Done:  E(UB3LYP) =  -1136.11833915     A.U. after   23 cycles

 The electronic state is 2-A.
 Alpha  occ. eigenvalues --  -38.45051 -38.44743 -38.44372 -38.44055 -38.43979
 Alpha  occ. eigenvalues --  -38.43754 -38.42469  -2.20960  -2.20540  -2.20225
 Alpha  occ. eigenvalues --   -2.19995  -2.19897  -2.19568  -2.18273  -1.14756
 Alpha  occ. eigenvalues --   -1.14603  -1.14559  -1.14235  -1.14197  -1.14166
 Alpha  occ. eigenvalues --   -1.13941  -1.13867  -1.13829  -1.13715  -1.13627
 Alpha  occ. eigenvalues --   -1.13578  -1.13551  -1.13531  -1.13522  -1.13232
 Alpha  occ. eigenvalues --   -1.13223  -1.13191  -1.11965  -1.11950  -1.11894
 Alpha  occ. eigenvalues --   -0.18317  -0.14333  -0.11265  -0.10852
 Alpha virt. eigenvalues --   -0.06937  -0.05451  -0.04400  -0.03296  -0.02908
 Alpha virt. eigenvalues --   -0.02520  -0.01937  -0.01359  -0.00728  -0.00369
 Alpha virt. eigenvalues --   -0.00086   0.00121   0.00434   0.00552   0.00729

  Beta  occ. eigenvalues --  -38.45054 -38.44736 -38.44308 -38.43965 -38.43958
  Beta  occ. eigenvalues --  -38.43717 -38.42468  -2.20970  -2.20529  -2.20106
  Beta  occ. eigenvalues --   -2.19867  -2.19833  -2.19499  -2.18273  -1.14726
  Beta  occ. eigenvalues --   -1.14612  -1.14578  -1.14227  -1.14194  -1.14139
  Beta  occ. eigenvalues --   -1.13866  -1.13784  -1.13747  -1.13611  -1.13545
  Beta  occ. eigenvalues --   -1.13534  -1.13496  -1.13467  -1.13422  -1.13185
  Beta  occ. eigenvalues --   -1.13170  -1.13149  -1.11967  -1.11944  -1.11890
  Beta  occ. eigenvalues --   -0.17707  -0.13747  -0.11001
  Beta virt. eigenvalues --   -0.07318  -0.06702  -0.05236  -0.03929  -0.03071
  Beta virt. eigenvalues --   -0.02674  -0.01865  -0.01445  -0.01245  -0.00510
  Beta virt. eigenvalues --   -0.00184   0.00045   0.00193   0.00542   0.00691

 Mulliken charges and spin densities:
               1          2
     1  Na  -0.468721  -0.135651
     2  Na   0.246387   0.321900
     3  Na   0.367324   0.363757
     4  Na   0.359383  -0.065498
     5  Na  -0.809892   0.145865
     6  Na   0.126730   0.081482
     7  Na   0.178789   0.288147
 Sum of Mulliken charges =  -0.00000   1.00000

 Dipole moment (field-independent basis, Debye):
    X=              0.1557    Y=             -0.2243    Z=              0.4313  Tot=              0.5105
 Quadrupole moment (field-independent basis, Debye-Ang):
   XX=            -56.7281   YY=            -73.8921   ZZ=            -67.9535
   XY=              2.3700   XZ=              0.2388   YZ=             -0.3983

 Normal termination of Gaussian 16 at Sat Dec  9 06:29:32 2023.
