 Gaussian 16, Revision B.01,
 Gaussian 16:  ES64L-G16RevB.01 20-Dec-2017

 -------------------------
 #P B3LYP/6-311+g(d) force
 -------------------------

 -----
 DPGEN
 -----
 Symbolic Z-matrix:
 Charge =  0 Multiplicity = 2

                         Standard orientation:
 ---------------------------------------------------------------------
 Center     Atomic      Atomic             Coordinates (Angstroms)
 Number     Number       Type             X           Y           Z
 ---------------------------------------------------------------------
      1         11           0       -0.059376   -0.448995    1.685903
      2         11           0        0.187534    0.105454   -1.239525
      3         11           0        3.272044   -0.101459   -0.075323
      4         11           0        0.603937   -2.930749   -0.036531
      5         11           0       -2.429501    1.974425    0.216816
      6         11           0       -2.730044   -1.346899   -0.454221
      7         11           0        1.155405    2.748222   -0.097119
 ---------------------------------------------------------------------

 SCF Done:  E(UB3LYP) =  -1136.13253646     A.U. after   22 cycles

 The electronic state is 2-A.
 Alpha  occ. eigenvalues --  -38.44336 -38.43796 -38.43750 -38.43664 -38.43605
 Alpha  occ. eigenvalues --  -38.42798 -38.42701  -2.20159  -2.19658  -2.19586
 Alpha  occ. eigenvalues --   -2.19526  -2.19484  -2.18818  -2.18796  -1.13840
 Alpha  occ. eigenvalues --   -1.13818  -1.13791  -1.13346  -1.13323  -1.13299
 Alpha  occ. eigenvalues --   -1.13270  -1.13250  -1.13239  -1.13222  -1.13202
 Alpha  occ. eigenvalues --   -1.13177  -1.13154  -1.13135  -1.13093  -1.12672
 Alpha  occ. eigenvalues --   -1.12450  -1.12415  -1.12410  -1.12401  -1.12380
 Alpha  occ. eigenvalues --   -0.18951  -0.13177  -0.12739  -0.09911
 Alpha virt. eigenvalues --   -0.05818  -0.05231  -0.04981  -0.02816  -0.02601
 Alpha virt. eigenvalues --   -0.01802  -0.01639  -0.01327  -0.00532  -0.00499
 Alpha virt. eigenvalues --    0.00058   0.00335   0.00794   0.00826   0.00856

  Beta  occ. eigenvalues --  -38.44331 -38.43778 -38.43745 -38.43660 -38.43596
  Beta  occ. eigenvalues --  -38.42714 -38.42653  -2.20154  -2.19628  -2.19580
  Beta  occ. eigenvalues --   -2.19522  -2.19474  -2.18728  -2.18649  -1.13829
  Beta  occ. eigenvalues --   -1.13810  -1.13783  -1.13329  -1.13289  -1.13275
  Beta  occ. eigenvalues --   -1.13265  -1.13236  -1.13226  -1.13213  -1.13192
  Beta  occ. eigenvalues --   -1.13161  -1.13128  -1.13120  -1.13086  -1.12583
  Beta  occ. eigenvalues --   -1.12385  -1.12349  -1.12316  -1.12295  -1.12277
  Beta  occ. eigenvalues --   -0.18268  -0.12904  -0.12479
  Beta virt. eigenvalues --   -0.06106  -0.05768  -0.05191  -0.04931  -0.02098
  Beta virt. eigenvalues --   -0.01864  -0.01709  -0.01254  -0.00736  -0.00552
  Beta virt. eigenvalues --   -0.00522   0.00205   0.00395   0.00817   0.00846

 Mulliken charges and spin densities:
               1          2
     1  Na  -0.245572   0.700760
     2  Na  -0.760827   0.287023
     3  Na   0.200047  -0.059290
     4  Na   0.297310  -0.019841
     5  Na   0.135307   0.020885
     6  Na   0.158373   0.095962
     7  Na   0.215362  -0.025499
 Sum of Mulliken charges =  -0.00000   1.00000

 Dipole moment (field-independent basis, Debye):
    X=              0.2530    Y=             -0.0163    Z=              0.1566  Tot=              0.2980
 Quadrupole moment (field-independent basis, Debye-Ang):
   XX=            -52.8851   YY=            -58.3783   ZZ=            -78.3544
   XY=             -0.8572   XZ=              0.4142   YZ=              1.4235

 Normal termination of Gaussian 16 at Thu Dec  7 18:56:34 2023.
