 Gaussian 16, Revision B.01,
 Gaussian 16:  ES64L-G16RevB.01 20-Dec-2017

 -------------------------
 #P B3LYP/6-311+g(d) force
 -------------------------

 -----
 DPGEN
 -----
 Symbolic Z-matrix:
 Charge =  0 Multiplicity = 2

                         Standard orientation:
 ---------------------------------------------------------------------
 Center     Atomic      Atomic             Coordinates (Angstroms)
 Number     Number       Type             X           Y           Z
 ---------------------------------------------------------------------
      1         11           0        0.485375   -0.016222    1.823230
      2         11           0        4.069015   -0.233300    0.243351
      3         11           0        0.674948   -1.595252   -1.678143
      4         11           0        1.047955    1.752971   -0.845470
      5         11           0       -1.745607   -2.480128    0.936986
      6         11           0       -2.831444   -0.212544   -0.851391
      7         11           0       -1.700242    2.784477    0.371437
 ---------------------------------------------------------------------

 SCF Done:  E(UB3LYP) =  -1136.12801068     A.U. after   21 cycles

 The electronic state is 2-A.
 Alpha  occ. eigenvalues --  -38.45199 -38.44417 -38.44068 -38.43876 -38.43500
 Alpha  occ. eigenvalues --  -38.43267 -38.42869  -2.20937  -2.20264  -2.19897
 Alpha  occ. eigenvalues --   -2.19757  -2.19399  -2.19134  -2.18716  -1.14615
 Alpha  occ. eigenvalues --   -1.14608  -1.14559  -1.13959  -1.13922  -1.13899
 Alpha  occ. eigenvalues --   -1.13596  -1.13553  -1.13487  -1.13457  -1.13403
 Alpha  occ. eigenvalues --   -1.13361  -1.13108  -1.13076  -1.13001  -1.12812
 Alpha  occ. eigenvalues --   -1.12791  -1.12759  -1.12383  -1.12372  -1.12362
 Alpha  occ. eigenvalues --   -0.18144  -0.13105  -0.12074  -0.10828
 Alpha virt. eigenvalues --   -0.06713  -0.04679  -0.04453  -0.03468  -0.02880
 Alpha virt. eigenvalues --   -0.02618  -0.02319  -0.00974  -0.00489  -0.00228
 Alpha virt. eigenvalues --    0.00114   0.00215   0.00410   0.00723   0.00789

  Beta  occ. eigenvalues --  -38.45205 -38.44405 -38.44007 -38.43798 -38.43483
  Beta  occ. eigenvalues --  -38.43250 -38.42869  -2.20950  -2.20244  -2.19785
  Beta  occ. eigenvalues --   -2.19613  -2.19371  -2.19105  -2.18717  -1.14625
  Beta  occ. eigenvalues --   -1.14609  -1.14569  -1.13941  -1.13900  -1.13887
  Beta  occ. eigenvalues --   -1.13518  -1.13465  -1.13410  -1.13360  -1.13298
  Beta  occ. eigenvalues --   -1.13260  -1.13089  -1.13025  -1.12986  -1.12797
  Beta  occ. eigenvalues --   -1.12763  -1.12725  -1.12386  -1.12372  -1.12352
  Beta  occ. eigenvalues --   -0.17399  -0.12982  -0.11888
  Beta virt. eigenvalues --   -0.06923  -0.06584  -0.04593  -0.04276  -0.02866
  Beta virt. eigenvalues --   -0.02349  -0.02240  -0.01561  -0.00949  -0.00283
  Beta virt. eigenvalues --   -0.00145   0.00177   0.00250   0.00571   0.00770

 Mulliken charges and spin densities:
               1          2
     1  Na  -0.367964   0.553579
     2  Na   0.218033  -0.077981
     3  Na  -0.267101   0.283256
     4  Na  -0.074521   0.211165
     5  Na   0.213137  -0.071178
     6  Na  -0.048562   0.217422
     7  Na   0.326979  -0.116263
 Sum of Mulliken charges =  -0.00000   1.00000

 Dipole moment (field-independent basis, Debye):
    X=              0.9281    Y=             -0.3324    Z=             -0.0667  Tot=              0.9881
 Quadrupole moment (field-independent basis, Debye-Ang):
   XX=            -51.0843   YY=            -69.6812   ZZ=            -72.0669
   XY=             -1.0693   XZ=              0.6938   YZ=             -0.0765

 Normal termination of Gaussian 16 at Wed Nov 29 17:02:03 2023.
