 Gaussian 16, Revision B.01,
 Gaussian 16:  ES64L-G16RevB.01 20-Dec-2017

 -------------------------
 #P B3LYP/6-311+g(d) force
 -------------------------

 -----
 DPGEN
 -----
 Symbolic Z-matrix:
 Charge =  0 Multiplicity = 2

                         Standard orientation:
 ---------------------------------------------------------------------
 Center     Atomic      Atomic             Coordinates (Angstroms)
 Number     Number       Type             X           Y           Z
 ---------------------------------------------------------------------
      1         11           0       -1.555149   -1.711011   -0.867166
      2         11           0       -4.829093   -1.121960   -0.457725
      3         11           0       -4.630230    1.764784   -0.691455
      4         11           0       -1.889304    1.548397    0.946403
      5         11           0        0.450398   -0.828312    1.689420
      6         11           0        4.977334   -0.315556    0.441100
      7         11           0        7.476045    0.663656   -1.060579
 ---------------------------------------------------------------------

 SCF Done:  E(UB3LYP) =  -1136.11214577     A.U. after   19 cycles

 The electronic state is 2-A.
 Alpha  occ. eigenvalues --  -38.44795 -38.44633 -38.44483 -38.44136 -38.43929
 Alpha  occ. eigenvalues --  -38.43895 -38.43746  -2.20643  -2.20501  -2.20368
 Alpha  occ. eigenvalues --   -2.20029  -2.19717  -2.19677  -2.19560  -1.14319
 Alpha  occ. eigenvalues --   -1.14305  -1.14254  -1.14183  -1.14156  -1.14122
 Alpha  occ. eigenvalues --   -1.14115  -1.14005  -1.14003  -1.13676  -1.13659
 Alpha  occ. eigenvalues --   -1.13640  -1.13462  -1.13374  -1.13374  -1.13334
 Alpha  occ. eigenvalues --   -1.13332  -1.13249  -1.13228  -1.13218  -1.13204
 Alpha  occ. eigenvalues --   -0.17373  -0.13315  -0.12311  -0.11686
 Alpha virt. eigenvalues --   -0.06492  -0.05514  -0.04469  -0.03763  -0.03205
 Alpha virt. eigenvalues --   -0.02552  -0.02063  -0.01624  -0.01333  -0.01233
 Alpha virt. eigenvalues --   -0.00304  -0.00078   0.00244   0.00351   0.00424

  Beta  occ. eigenvalues --  -38.44730 -38.44558 -38.44444 -38.44111 -38.43929
  Beta  occ. eigenvalues --  -38.43895 -38.43744  -2.20526  -2.20365  -2.20298
  Beta  occ. eigenvalues --   -2.19986  -2.19717  -2.19677  -2.19557  -1.14236
  Beta  occ. eigenvalues --   -1.14229  -1.14158  -1.14091  -1.14082  -1.14063
  Beta  occ. eigenvalues --   -1.14005  -1.13959  -1.13940  -1.13635  -1.13629
  Beta  occ. eigenvalues --   -1.13598  -1.13462  -1.13374  -1.13374  -1.13334
  Beta  occ. eigenvalues --   -1.13332  -1.13249  -1.13220  -1.13212  -1.13204
  Beta  occ. eigenvalues --   -0.16537  -0.13261  -0.12255
  Beta virt. eigenvalues --   -0.07515  -0.06385  -0.05137  -0.04201  -0.03285
  Beta virt. eigenvalues --   -0.02522  -0.02338  -0.02001  -0.01552  -0.01253
  Beta virt. eigenvalues --   -0.00685   0.00006   0.00033   0.00360   0.00412

 Mulliken charges and spin densities:
               1          2
     1  Na  -0.070661   0.368753
     2  Na   0.084478   0.167360
     3  Na   0.325228  -0.057473
     4  Na  -0.126089   0.440462
     5  Na  -0.342263   0.111121
     6  Na  -0.646530  -0.034068
     7  Na   0.775837   0.003846
 Sum of Mulliken charges =  -0.00000   1.00000

 Dipole moment (field-independent basis, Debye):
    X=             -1.2693    Y=             -0.0070    Z=             -0.2193  Tot=              1.2881
 Quadrupole moment (field-independent basis, Debye-Ang):
   XX=            -63.6698   YY=            -69.7195   ZZ=            -67.6423
   XY=              2.2006   XZ=             -2.9864   YZ=             -2.6369

 Normal termination of Gaussian 16 at Tue Nov 28 20:33:07 2023.
