 Gaussian 16, Revision B.01,
 Gaussian 16:  ES64L-G16RevB.01 20-Dec-2017

 -------------------------
 #P B3LYP/6-311+g(d) force
 -------------------------

 -----
 DPGEN
 -----
 Symbolic Z-matrix:
 Charge =  0 Multiplicity = 2

                         Standard orientation:
 ---------------------------------------------------------------------
 Center     Atomic      Atomic             Coordinates (Angstroms)
 Number     Number       Type             X           Y           Z
 ---------------------------------------------------------------------
      1         11           0       -0.530139    2.694247    0.688687
      2         11           0       -3.853925    0.723245    1.378913
      3         11           0       -3.733615   -1.797205   -0.051362
      4         11           0       -0.320723   -2.609862   -1.338589
      5         11           0        2.865556   -0.794414   -0.807174
      6         11           0        1.073095    2.650549   -1.981062
      7         11           0        4.499751   -0.866561    2.110587
 ---------------------------------------------------------------------

 SCF Done:  E(UB3LYP) =  -1136.10621954     A.U. after   20 cycles

 The electronic state is 2-A.
 Alpha  occ. eigenvalues --  -38.44919 -38.44780 -38.44477 -38.44320 -38.44308
 Alpha  occ. eigenvalues --  -38.44135 -38.44015  -2.20716  -2.20551  -2.20309
 Alpha  occ. eigenvalues --   -2.20137  -2.20102  -2.19914  -2.19787  -1.14349
 Alpha  occ. eigenvalues --   -1.14348  -1.14336  -1.14207  -1.14198  -1.14162
 Alpha  occ. eigenvalues --   -1.14118  -1.13950  -1.13930  -1.13807  -1.13789
 Alpha  occ. eigenvalues --   -1.13772  -1.13758  -1.13739  -1.13738  -1.13581
 Alpha  occ. eigenvalues --   -1.13574  -1.13538  -1.13478  -1.13460  -1.13444
 Alpha  occ. eigenvalues --   -0.15769  -0.13835  -0.12466  -0.11522
 Alpha virt. eigenvalues --   -0.06509  -0.06240  -0.04054  -0.03333  -0.03106
 Alpha virt. eigenvalues --   -0.02642  -0.02248  -0.01478  -0.01152  -0.00807
 Alpha virt. eigenvalues --   -0.00482  -0.00385  -0.00170   0.00317   0.00557

  Beta  occ. eigenvalues --  -38.44816 -38.44699 -38.44440 -38.44327 -38.44294
  Beta  occ. eigenvalues --  -38.44146 -38.44029  -2.20525  -2.20399  -2.20242
  Beta  occ. eigenvalues --   -2.20153  -2.20076  -2.19934  -2.19819  -1.14219
  Beta  occ. eigenvalues --   -1.14217  -1.14210  -1.14104  -1.14095  -1.14090
  Beta  occ. eigenvalues --   -1.14062  -1.13904  -1.13885  -1.13802  -1.13797
  Beta  occ. eigenvalues --   -1.13779  -1.13740  -1.13722  -1.13717  -1.13596
  Beta  occ. eigenvalues --   -1.13588  -1.13541  -1.13505  -1.13478  -1.13429
  Beta  occ. eigenvalues --   -0.15313  -0.13307  -0.12020
  Beta virt. eigenvalues --   -0.08176  -0.06222  -0.05661  -0.03703  -0.03163
  Beta virt. eigenvalues --   -0.02934  -0.02330  -0.01950  -0.01176  -0.00895
  Beta virt. eigenvalues --   -0.00692  -0.00303  -0.00088   0.00155   0.00376

 Mulliken charges and spin densities:
               1          2
     1  Na  -0.406126  -0.050008
     2  Na   0.268596   0.185014
     3  Na  -0.065174  -0.051956
     4  Na   0.116837   0.499580
     5  Na  -0.754560  -0.246195
     6  Na   0.440325   0.114967
     7  Na   0.400102   0.548598
 Sum of Mulliken charges =  -0.00000   1.00000

 Dipole moment (field-independent basis, Debye):
    X=              0.0422    Y=              0.2053    Z=              0.3285  Tot=              0.3897
 Quadrupole moment (field-independent basis, Debye-Ang):
   XX=            -65.8700   YY=            -72.2993   ZZ=            -62.1494
   XY=              2.4508   XZ=              0.2745   YZ=              0.7384

 Normal termination of Gaussian 16 at Sun Dec  3 15:10:28 2023.
