 Gaussian 16, Revision B.01,
 Gaussian 16:  ES64L-G16RevB.01 20-Dec-2017

 -------------------------
 #P B3LYP/6-311+g(d) force
 -------------------------

 -----
 DPGEN
 -----
 Symbolic Z-matrix:
 Charge =  0 Multiplicity = 2

                         Standard orientation:
 ---------------------------------------------------------------------
 Center     Atomic      Atomic             Coordinates (Angstroms)
 Number     Number       Type             X           Y           Z
 ---------------------------------------------------------------------
      1         11           0       -1.789199    2.324489   -0.397658
      2         11           0        2.541203    0.686334    2.059691
      3         11           0        1.602440    1.233824   -1.462355
      4         11           0        4.289846   -1.065014   -0.653472
      5         11           0        0.870656   -1.726514   -0.270454
      6         11           0       -2.465369   -0.320393    1.197140
      7         11           0       -5.049577   -1.132726   -0.472893
 ---------------------------------------------------------------------

 SCF Done:  E(UB3LYP) =  -1136.10463475     A.U. after   28 cycles

 The electronic state is 2-A.
 Alpha  occ. eigenvalues --  -38.46304 -38.44857 -38.44197 -38.44067 -38.44066
 Alpha  occ. eigenvalues --  -38.43978 -38.43744  -2.22114  -2.20666  -2.19972
 Alpha  occ. eigenvalues --   -2.19925  -2.19906  -2.19836  -2.19538  -1.15803
 Alpha  occ. eigenvalues --   -1.15783  -1.15724  -1.14347  -1.14320  -1.14295
 Alpha  occ. eigenvalues --   -1.13682  -1.13637  -1.13633  -1.13621  -1.13590
 Alpha  occ. eigenvalues --   -1.13567  -1.13544  -1.13539  -1.13507  -1.13504
 Alpha  occ. eigenvalues --   -1.13498  -1.13425  -1.13225  -1.13201  -1.13155
 Alpha  occ. eigenvalues --   -0.17696  -0.14318  -0.10738  -0.10643
 Alpha virt. eigenvalues --   -0.07778  -0.06098  -0.04613  -0.03305  -0.02952
 Alpha virt. eigenvalues --   -0.02505  -0.02173  -0.01820  -0.01136  -0.00582
 Alpha virt. eigenvalues --   -0.00519   0.00003   0.00163   0.00327   0.00385

  Beta  occ. eigenvalues --  -38.46283 -38.44840 -38.44199 -38.44065 -38.43949
  Beta  occ. eigenvalues --  -38.43946 -38.43756  -2.22079  -2.20638  -2.19976
  Beta  occ. eigenvalues --   -2.19921  -2.19781  -2.19687  -2.19562  -1.15765
  Beta  occ. eigenvalues --   -1.15740  -1.15702  -1.14331  -1.14282  -1.14268
  Beta  occ. eigenvalues --   -1.13681  -1.13641  -1.13636  -1.13624  -1.13585
  Beta  occ. eigenvalues --   -1.13502  -1.13501  -1.13464  -1.13416  -1.13381
  Beta  occ. eigenvalues --   -1.13380  -1.13355  -1.13239  -1.13216  -1.13169
  Beta  occ. eigenvalues --   -0.17027  -0.14163  -0.10671
  Beta virt. eigenvalues --   -0.07658  -0.06547  -0.05939  -0.04457  -0.03077
  Beta virt. eigenvalues --   -0.02807  -0.01906  -0.01551  -0.01304  -0.00963
  Beta virt. eigenvalues --   -0.00459  -0.00329   0.00049   0.00323   0.00407

 Mulliken charges and spin densities:
               1          2
     1  Na  -0.150040  -0.071152
     2  Na  -0.314159   0.611326
     3  Na  -0.340350   0.142967
     4  Na   0.811931   0.205080
     5  Na  -0.080559   0.118323
     6  Na  -0.062312   0.014134
     7  Na   0.135489  -0.020678
 Sum of Mulliken charges =  -0.00000   1.00000

 Dipole moment (field-independent basis, Debye):
    X=              0.8242    Y=             -0.2731    Z=             -0.9150  Tot=              1.2614
 Quadrupole moment (field-independent basis, Debye-Ang):
   XX=            -57.0783   YY=            -71.3645   ZZ=            -74.0955
   XY=             -2.5924   XZ=             -0.8515   YZ=             -0.8253

 Normal termination of Gaussian 16 at Fri Dec  8 18:47:20 2023.
