 Gaussian 16, Revision B.01,
 Gaussian 16:  ES64L-G16RevB.01 20-Dec-2017

 -------------------------
 #P B3LYP/6-311+g(d) force
 -------------------------

 -----
 DPGEN
 -----
 Symbolic Z-matrix:
 Charge =  0 Multiplicity = 2

                         Standard orientation:
 ---------------------------------------------------------------------
 Center     Atomic      Atomic             Coordinates (Angstroms)
 Number     Number       Type             X           Y           Z
 ---------------------------------------------------------------------
      1         11           0        0.195544   -2.089578    0.734609
      2         11           0        3.269304   -2.784748   -0.277609
      3         11           0        3.821794    0.653852   -0.523769
      4         11           0       -0.086206    0.925471   -0.400565
      5         11           0       -3.506790    0.075020    0.843150
      6         11           0        2.211423    3.249062    0.427361
      7         11           0       -5.905070   -0.029079   -0.803177
 ---------------------------------------------------------------------

 SCF Done:  E(UB3LYP) =  -1136.11980621     A.U. after   20 cycles

 The electronic state is 2-A.
 Alpha  occ. eigenvalues --  -38.44575 -38.44540 -38.44482 -38.44101 -38.43888
 Alpha  occ. eigenvalues --  -38.43572 -38.43485  -2.20419  -2.20378  -2.20343
 Alpha  occ. eigenvalues --   -2.19932  -2.19723  -2.19391  -2.19319  -1.14138
 Alpha  occ. eigenvalues --   -1.14061  -1.14042  -1.14035  -1.14033  -1.14029
 Alpha  occ. eigenvalues --   -1.14023  -1.14002  -1.13935  -1.13620  -1.13601
 Alpha  occ. eigenvalues --   -1.13541  -1.13403  -1.13386  -1.13359  -1.13050
 Alpha  occ. eigenvalues --   -1.13049  -1.13026  -1.12986  -1.12974  -1.12961
 Alpha  occ. eigenvalues --   -0.16886  -0.14233  -0.12245  -0.11548
 Alpha virt. eigenvalues --   -0.05682  -0.05295  -0.04903  -0.03803  -0.02924
 Alpha virt. eigenvalues --   -0.02278  -0.01898  -0.01694  -0.00940  -0.00658
 Alpha virt. eigenvalues --   -0.00275   0.00093   0.00137   0.00303   0.00735

  Beta  occ. eigenvalues --  -38.44497 -38.44492 -38.44430 -38.44076 -38.43889
  Beta  occ. eigenvalues --  -38.43547 -38.43482  -2.20291  -2.20273  -2.20250
  Beta  occ. eigenvalues --   -2.19887  -2.19735  -2.19345  -2.19315  -1.14045
  Beta  occ. eigenvalues --   -1.14003  -1.13980  -1.13969  -1.13961  -1.13936
  Beta  occ. eigenvalues --   -1.13933  -1.13928  -1.13864  -1.13585  -1.13573
  Beta  occ. eigenvalues --   -1.13502  -1.13404  -1.13400  -1.13318  -1.13019
  Beta  occ. eigenvalues --   -1.13007  -1.12999  -1.12978  -1.12969  -1.12961
  Beta  occ. eigenvalues --   -0.16195  -0.13392  -0.12177
  Beta virt. eigenvalues --   -0.08102  -0.05282  -0.04879  -0.04512  -0.03594
  Beta virt. eigenvalues --   -0.02632  -0.02013  -0.01701  -0.01386  -0.00798
  Beta virt. eigenvalues --   -0.00281  -0.00068   0.00212   0.00288   0.00447

 Mulliken charges and spin densities:
               1          2
     1  Na  -0.006718   0.057052
     2  Na   0.256996   0.119240
     3  Na  -0.074423   0.347529
     4  Na  -1.366336  -0.026036
     5  Na   0.068065   0.076909
     6  Na   0.924869   0.107916
     7  Na   0.197547   0.317389
 Sum of Mulliken charges =  -0.00000   1.00000

 Dipole moment (field-independent basis, Debye):
    X=             -0.0064    Y=              0.1546    Z=             -0.1354  Tot=              0.2056
 Quadrupole moment (field-independent basis, Debye-Ang):
   XX=            -61.1525   YY=            -67.5063   ZZ=            -68.4009
   XY=              0.6935   XZ=              2.3952   YZ=              1.1251

 Normal termination of Gaussian 16 at Tue Nov 28 22:13:59 2023.
