 Gaussian 16, Revision B.01,
 Gaussian 16:  ES64L-G16RevB.01 20-Dec-2017

 -------------------------
 #P B3LYP/6-311+g(d) force
 -------------------------

 -----
 DPGEN
 -----
 Symbolic Z-matrix:
 Charge =  0 Multiplicity = 2

                         Standard orientation:
 ---------------------------------------------------------------------
 Center     Atomic      Atomic             Coordinates (Angstroms)
 Number     Number       Type             X           Y           Z
 ---------------------------------------------------------------------
      1         11           0        0.302877    3.197712   -0.212465
      2         11           0        1.979668   -2.427087    0.122807
      3         11           0       -0.155631   -0.332544   -1.533617
      4         11           0       -2.016563   -2.355430   -0.100222
      5         11           0        2.923049    0.703030   -0.272107
      6         11           0        0.029919    0.226153    2.033144
      7         11           0       -3.063319    0.988166   -0.037542
 ---------------------------------------------------------------------

 SCF Done:  E(UB3LYP) =  -1136.13719532     A.U. after   19 cycles

 The electronic state is 2-A.
 Alpha  occ. eigenvalues --  -38.44296 -38.43867 -38.43802 -38.43658 -38.43621
 Alpha  occ. eigenvalues --  -38.43398 -38.43099  -2.20099  -2.19711  -2.19654
 Alpha  occ. eigenvalues --   -2.19496  -2.19413  -2.19270  -2.19074  -1.13777
 Alpha  occ. eigenvalues --   -1.13762  -1.13734  -1.13433  -1.13363  -1.13342
 Alpha  occ. eigenvalues --   -1.13330  -1.13324  -1.13298  -1.13165  -1.13152
 Alpha  occ. eigenvalues --   -1.13134  -1.13086  -1.13070  -1.13058  -1.12944
 Alpha  occ. eigenvalues --   -1.12893  -1.12884  -1.12762  -1.12713  -1.12690
 Alpha  occ. eigenvalues --   -0.18394  -0.13081  -0.12353  -0.10393
 Alpha virt. eigenvalues --   -0.05730  -0.05255  -0.05033  -0.03096  -0.02776
 Alpha virt. eigenvalues --   -0.02311  -0.01566  -0.01304  -0.00627  -0.00566
 Alpha virt. eigenvalues --    0.00003   0.00348   0.00775   0.00827   0.00856

  Beta  occ. eigenvalues --  -38.44294 -38.43862 -38.43794 -38.43655 -38.43618
  Beta  occ. eigenvalues --  -38.43301 -38.43044  -2.20097  -2.19705  -2.19643
  Beta  occ. eigenvalues --   -2.19492  -2.19410  -2.19091  -2.18974  -1.13766
  Beta  occ. eigenvalues --   -1.13754  -1.13735  -1.13422  -1.13342  -1.13337
  Beta  occ. eigenvalues --   -1.13329  -1.13296  -1.13290  -1.13159  -1.13135
  Beta  occ. eigenvalues --   -1.13129  -1.13070  -1.13069  -1.13056  -1.12825
  Beta  occ. eigenvalues --   -1.12768  -1.12755  -1.12687  -1.12639  -1.12619
  Beta  occ. eigenvalues --   -0.17685  -0.12855  -0.12144
  Beta virt. eigenvalues --   -0.06505  -0.05723  -0.05234  -0.04963  -0.02322
  Beta virt. eigenvalues --   -0.02043  -0.01476  -0.01279  -0.01223  -0.00674
  Beta virt. eigenvalues --   -0.00616   0.00153   0.00384   0.00796   0.00854

 Mulliken charges and spin densities:
               1          2
     1  Na  -0.024374  -0.077374
     2  Na   0.186803  -0.010259
     3  Na  -0.195182   0.427593
     4  Na   0.278003  -0.046325
     5  Na   0.147590  -0.009930
     6  Na  -0.463507   0.799862
     7  Na   0.070667  -0.083567
 Sum of Mulliken charges =  -0.00000   1.00000

 Dipole moment (field-independent basis, Debye):
    X=             -0.2974    Y=             -0.0359    Z=              0.0976  Tot=              0.3151
 Quadrupole moment (field-independent basis, Debye-Ang):
   XX=            -56.4225   YY=            -59.6191   ZZ=            -76.4147
   XY=             -0.7561   XZ=             -0.4017   YZ=             -1.3395

 Normal termination of Gaussian 16 at Fri Dec  8 02:10:49 2023.
