 Gaussian 16, Revision B.01,
 Gaussian 16:  ES64L-G16RevB.01 20-Dec-2017

 -------------------------
 #P B3LYP/6-311+g(d) force
 -------------------------

 -----
 DPGEN
 -----
 Symbolic Z-matrix:
 Charge =  0 Multiplicity = 2

                         Standard orientation:
 ---------------------------------------------------------------------
 Center     Atomic      Atomic             Coordinates (Angstroms)
 Number     Number       Type             X           Y           Z
 ---------------------------------------------------------------------
      1         11           0        0.075620    0.303443    1.748522
      2         11           0       -0.157668   -0.119000   -1.573203
      3         11           0        2.576844    1.340193   -0.335439
      4         11           0       -3.000360    0.064287    0.168005
      5         11           0       -0.688557    2.806437   -0.108118
      6         11           0        2.076545   -1.773751    0.338695
      7         11           0       -0.882425   -2.621609   -0.238461
 ---------------------------------------------------------------------

 SCF Done:  E(UB3LYP) =  -1136.13501139     A.U. after   18 cycles

 The electronic state is 2-A.
 Alpha  occ. eigenvalues --  -38.43756 -38.43567 -38.43544 -38.43335 -38.43272
 Alpha  occ. eigenvalues --  -38.43048 -38.42924  -2.19623  -2.19463  -2.19429
 Alpha  occ. eigenvalues --   -2.19283  -2.19227  -2.19072  -2.19017  -1.13307
 Alpha  occ. eigenvalues --   -1.13296  -1.13258  -1.13169  -1.13139  -1.13129
 Alpha  occ. eigenvalues --   -1.13111  -1.13102  -1.13092  -1.13035  -1.12985
 Alpha  occ. eigenvalues --   -1.12919  -1.12900  -1.12870  -1.12812  -1.12763
 Alpha  occ. eigenvalues --   -1.12688  -1.12674  -1.12665  -1.12621  -1.12611
 Alpha  occ. eigenvalues --   -0.19570  -0.13112  -0.12951  -0.10769
 Alpha virt. eigenvalues --   -0.05361  -0.04914  -0.04719  -0.03073  -0.02975
 Alpha virt. eigenvalues --   -0.02233  -0.01345  -0.01105  -0.00073  -0.00063
 Alpha virt. eigenvalues --    0.00112   0.00368   0.00908   0.00927   0.00981

  Beta  occ. eigenvalues --  -38.43751 -38.43557 -38.43537 -38.43326 -38.43260
  Beta  occ. eigenvalues --  -38.42967 -38.42852  -2.19618  -2.19449  -2.19421
  Beta  occ. eigenvalues --   -2.19270  -2.19210  -2.18924  -2.18887  -1.13304
  Beta  occ. eigenvalues --   -1.13271  -1.13252  -1.13161  -1.13134  -1.13095
  Beta  occ. eigenvalues --   -1.13089  -1.13079  -1.13072  -1.13030  -1.12965
  Beta  occ. eigenvalues --   -1.12897  -1.12876  -1.12830  -1.12804  -1.12673
  Beta  occ. eigenvalues --   -1.12583  -1.12576  -1.12567  -1.12533  -1.12519
  Beta  occ. eigenvalues --   -0.18837  -0.12836  -0.12659
  Beta virt. eigenvalues --   -0.06806  -0.05357  -0.04903  -0.04701  -0.02254
  Beta virt. eigenvalues --   -0.02159  -0.01279  -0.01182  -0.01035  -0.00124
  Beta virt. eigenvalues --   -0.00051   0.00178   0.00391   0.00911   0.00946

 Mulliken charges and spin densities:
               1          2
     1  Na  -0.379462   0.638219
     2  Na  -0.450604   0.512321
     3  Na   0.107582  -0.022488
     4  Na   0.067026  -0.078818
     5  Na   0.040888  -0.108868
     6  Na   0.304955   0.063048
     7  Na   0.309615  -0.003415
 Sum of Mulliken charges =  -0.00000   1.00000

 Dipole moment (field-independent basis, Debye):
    X=             -0.1849    Y=              0.2976    Z=              0.0987  Tot=              0.3640
 Quadrupole moment (field-independent basis, Debye-Ang):
   XX=            -57.6161   YY=            -60.6628   ZZ=            -74.5339
   XY=              0.1487   XZ=             -0.6656   YZ=             -1.0297

 Normal termination of Gaussian 16 at Fri Dec  8 02:55:51 2023.
