 Gaussian 16, Revision B.01,
 Gaussian 16:  ES64L-G16RevB.01 20-Dec-2017

 -------------------------
 #P B3LYP/6-311+g(d) force
 -------------------------

 -----
 DPGEN
 -----
 Symbolic Z-matrix:
 Charge =  0 Multiplicity = 2

                         Standard orientation:
 ---------------------------------------------------------------------
 Center     Atomic      Atomic             Coordinates (Angstroms)
 Number     Number       Type             X           Y           Z
 ---------------------------------------------------------------------
      1         11           0       -1.518883    1.227101   -0.471210
      2         11           0        2.261747    0.705293   -1.409784
      3         11           0        2.878244   -2.679209   -0.254620
      4         11           0        1.631178   -0.186599    2.162927
      5         11           0       -4.296651   -0.847725    0.219022
      6         11           0        0.422091    3.942604    0.155172
      7         11           0       -1.377726   -2.161464   -0.401507
 ---------------------------------------------------------------------

 SCF Done:  E(UB3LYP) =  -1136.12262891     A.U. after   19 cycles

 The electronic state is 2-A.
 Alpha  occ. eigenvalues --  -38.44931 -38.44886 -38.44173 -38.44151 -38.43922
 Alpha  occ. eigenvalues --  -38.43861 -38.43352  -2.20736  -2.20688  -2.19970
 Alpha  occ. eigenvalues --   -2.19921  -2.19705  -2.19690  -2.19169  -1.14446
 Alpha  occ. eigenvalues --   -1.14419  -1.14389  -1.14347  -1.14346  -1.14268
 Alpha  occ. eigenvalues --   -1.13662  -1.13643  -1.13598  -1.13587  -1.13569
 Alpha  occ. eigenvalues --   -1.13543  -1.13432  -1.13401  -1.13375  -1.13351
 Alpha  occ. eigenvalues --   -1.13333  -1.13266  -1.12826  -1.12809  -1.12771
 Alpha  occ. eigenvalues --   -0.17018  -0.13657  -0.12229  -0.09738
 Alpha virt. eigenvalues --   -0.06347  -0.05883  -0.05303  -0.03211  -0.02625
 Alpha virt. eigenvalues --   -0.02303  -0.02078  -0.01843  -0.01143  -0.00590
 Alpha virt. eigenvalues --   -0.00141   0.00112   0.00374   0.00574   0.00646

  Beta  occ. eigenvalues --  -38.44926 -38.44889 -38.44146 -38.44125 -38.43926
  Beta  occ. eigenvalues --  -38.43856 -38.43247  -2.20729  -2.20695  -2.19915
  Beta  occ. eigenvalues --   -2.19882  -2.19697  -2.19697  -2.18974  -1.14442
  Beta  occ. eigenvalues --   -1.14407  -1.14387  -1.14351  -1.14348  -1.14270
  Beta  occ. eigenvalues --   -1.13600  -1.13595  -1.13579  -1.13559  -1.13552
  Beta  occ. eigenvalues --   -1.13491  -1.13428  -1.13387  -1.13374  -1.13348
  Beta  occ. eigenvalues --   -1.13337  -1.13266  -1.12693  -1.12676  -1.12637
  Beta  occ. eigenvalues --   -0.16549  -0.13379  -0.12146
  Beta virt. eigenvalues --   -0.06237  -0.05865  -0.05711  -0.05283  -0.02784
  Beta virt. eigenvalues --   -0.02310  -0.02040  -0.01718  -0.01222  -0.01141
  Beta virt. eigenvalues --   -0.00434   0.00159   0.00221   0.00590   0.00617

 Mulliken charges and spin densities:
               1          2
     1  Na  -0.956826   0.060113
     2  Na   0.001831   0.306662
     3  Na   0.382805   0.145706
     4  Na  -0.277929   0.593983
     5  Na   0.785357  -0.052935
     6  Na   0.376050  -0.068390
     7  Na  -0.311288   0.014861
 Sum of Mulliken charges =  -0.00000   1.00000

 Dipole moment (field-independent basis, Debye):
    X=             -1.6399    Y=             -0.4360    Z=             -0.1415  Tot=              1.7028
 Quadrupole moment (field-independent basis, Debye-Ang):
   XX=            -53.5233   YY=            -58.7327   ZZ=            -79.7970
   XY=              0.8602   XZ=             -2.5488   YZ=              1.7214

 Normal termination of Gaussian 16 at Thu Dec  7 04:43:57 2023.
