 Gaussian 16, Revision B.01,
 Gaussian 16:  ES64L-G16RevB.01 20-Dec-2017

 -------------------------
 #P B3LYP/6-311+g(d) force
 -------------------------

 -----
 DPGEN
 -----
 Symbolic Z-matrix:
 Charge =  0 Multiplicity = 2

                         Standard orientation:
 ---------------------------------------------------------------------
 Center     Atomic      Atomic             Coordinates (Angstroms)
 Number     Number       Type             X           Y           Z
 ---------------------------------------------------------------------
      1         11           0        0.760771   -2.555980    0.013052
      2         11           0       -0.230919    0.000996   -1.523292
      3         11           0       -2.569713    1.569512   -0.184633
      4         11           0        0.822183    0.128126    2.001220
      5         11           0       -2.514916   -1.898844    0.234551
      6         11           0        0.675629    3.077440    0.099999
      7         11           0        3.056964   -0.321249   -0.640897
 ---------------------------------------------------------------------

 SCF Done:  E(UB3LYP) =  -1136.13622760     A.U. after   19 cycles

 The electronic state is 2-A.
 Alpha  occ. eigenvalues --  -38.43898 -38.43856 -38.43753 -38.43558 -38.43483
 Alpha  occ. eigenvalues --  -38.43299 -38.43077  -2.19760  -2.19705  -2.19564
 Alpha  occ. eigenvalues --   -2.19400  -2.19381  -2.19237  -2.19096  -1.13439
 Alpha  occ. eigenvalues --   -1.13428  -1.13418  -1.13397  -1.13364  -1.13323
 Alpha  occ. eigenvalues --   -1.13242  -1.13227  -1.13200  -1.13087  -1.13063
 Alpha  occ. eigenvalues --   -1.13054  -1.13048  -1.13011  -1.13001  -1.12965
 Alpha  occ. eigenvalues --   -1.12888  -1.12845  -1.12768  -1.12730  -1.12701
 Alpha  occ. eigenvalues --   -0.18745  -0.13064  -0.12627  -0.10655
 Alpha virt. eigenvalues --   -0.05539  -0.05156  -0.04849  -0.03134  -0.02948
 Alpha virt. eigenvalues --   -0.02362  -0.01452  -0.01218  -0.00420  -0.00205
 Alpha virt. eigenvalues --   -0.00007   0.00348   0.00813   0.00856   0.00906

  Beta  occ. eigenvalues --  -38.43878 -38.43852 -38.43750 -38.43556 -38.43397
  Beta  occ. eigenvalues --  -38.43287 -38.43020  -2.19726  -2.19700  -2.19562
  Beta  occ. eigenvalues --   -2.19397  -2.19222  -2.19221  -2.18992  -1.13420
  Beta  occ. eigenvalues --   -1.13414  -1.13385  -1.13364  -1.13351  -1.13324
  Beta  occ. eigenvalues --   -1.13229  -1.13217  -1.13200  -1.13084  -1.13054
  Beta  occ. eigenvalues --   -1.13036  -1.12979  -1.12928  -1.12903  -1.12889
  Beta  occ. eigenvalues --   -1.12842  -1.12826  -1.12696  -1.12655  -1.12629
  Beta  occ. eigenvalues --   -0.18042  -0.12812  -0.12400
  Beta virt. eigenvalues --   -0.06760  -0.05509  -0.05052  -0.04806  -0.02431
  Beta virt. eigenvalues --   -0.02195  -0.01417  -0.01297  -0.01117  -0.00433
  Beta virt. eigenvalues --   -0.00252   0.00153   0.00391   0.00842   0.00878

 Mulliken charges and spin densities:
               1          2
     1  Na   0.366899   0.171888
     2  Na  -0.215984   0.271385
     3  Na   0.160724  -0.033573
     4  Na  -0.531117   0.654793
     5  Na  -0.095845  -0.007475
     6  Na   0.008343  -0.089059
     7  Na   0.306981   0.032041
 Sum of Mulliken charges =  -0.00000   1.00000

 Dipole moment (field-independent basis, Debye):
    X=              0.0739    Y=              0.2814    Z=              0.1460  Tot=              0.3255
 Quadrupole moment (field-independent basis, Debye-Ang):
   XX=            -57.3971   YY=            -61.3414   ZZ=            -74.5159
   XY=              0.7432   XZ=             -2.2743   YZ=             -0.5139

 Normal termination of Gaussian 16 at Thu Dec  7 08:45:49 2023.
