 Gaussian 16, Revision B.01,
 Gaussian 16:  ES64L-G16RevB.01 20-Dec-2017

 -------------------------
 #P B3LYP/6-311+g(d) force
 -------------------------

 -----
 DPGEN
 -----
 Symbolic Z-matrix:
 Charge =  0 Multiplicity = 2

                         Standard orientation:
 ---------------------------------------------------------------------
 Center     Atomic      Atomic             Coordinates (Angstroms)
 Number     Number       Type             X           Y           Z
 ---------------------------------------------------------------------
      1         11           0        1.852488   -1.453889   -0.398465
      2         11           0        0.875930    2.263166    0.011269
      3         11           0       -1.632374    0.559975   -1.008138
      4         11           0       -0.733323   -3.391343   -0.684762
      5         11           0       -2.502685   -1.790177    1.508883
      6         11           0       -2.240685    3.328994    0.021983
      7         11           0        4.380648    0.483274    0.549231
 ---------------------------------------------------------------------

 SCF Done:  E(UB3LYP) =  -1136.12274626     A.U. after   21 cycles

 The electronic state is 2-A.
 Alpha  occ. eigenvalues --  -38.44990 -38.44791 -38.44728 -38.43690 -38.43373
 Alpha  occ. eigenvalues --  -38.43255 -38.43167  -2.20844  -2.20636  -2.20632
 Alpha  occ. eigenvalues --   -2.19552  -2.19178  -2.19122  -2.19021  -1.14583
 Alpha  occ. eigenvalues --   -1.14508  -1.14479  -1.14415  -1.14330  -1.14305
 Alpha  occ. eigenvalues --   -1.14301  -1.14207  -1.14179  -1.13238  -1.13218
 Alpha  occ. eigenvalues --   -1.13188  -1.12861  -1.12834  -1.12806  -1.12803
 Alpha  occ. eigenvalues --   -1.12799  -1.12713  -1.12666  -1.12659  -1.12638
 Alpha  occ. eigenvalues --   -0.17512  -0.13926  -0.13070  -0.09712
 Alpha virt. eigenvalues --   -0.06352  -0.05889  -0.04861  -0.03354  -0.02752
 Alpha virt. eigenvalues --   -0.02243  -0.01833  -0.01360  -0.01180  -0.00784
 Alpha virt. eigenvalues --    0.00016   0.00148   0.00432   0.00563   0.00591

  Beta  occ. eigenvalues --  -38.44995 -38.44790 -38.44719 -38.43664 -38.43336
  Beta  occ. eigenvalues --  -38.43223 -38.43082  -2.20854  -2.20633  -2.20621
  Beta  occ. eigenvalues --   -2.19509  -2.19107  -2.19069  -2.18863  -1.14588
  Beta  occ. eigenvalues --   -1.14514  -1.14479  -1.14408  -1.14326  -1.14301
  Beta  occ. eigenvalues --   -1.14267  -1.14205  -1.14171  -1.13208  -1.13169
  Beta  occ. eigenvalues --   -1.13146  -1.12812  -1.12786  -1.12773  -1.12768
  Beta  occ. eigenvalues --   -1.12753  -1.12646  -1.12556  -1.12549  -1.12537
  Beta  occ. eigenvalues --   -0.17157  -0.13529  -0.12594
  Beta virt. eigenvalues --   -0.06281  -0.06029  -0.05830  -0.04627  -0.02862
  Beta virt. eigenvalues --   -0.02472  -0.02017  -0.01717  -0.01069  -0.00908
  Beta virt. eigenvalues --   -0.00443   0.00282   0.00333   0.00558   0.00663

 Mulliken charges and spin densities:
               1          2
     1  Na  -1.138411   0.160230
     2  Na  -0.556306  -0.108401
     3  Na  -0.836609   0.464616
     4  Na   0.510385  -0.044216
     5  Na   0.036580   0.306742
     6  Na   0.920293  -0.166490
     7  Na   1.064068   0.387518
 Sum of Mulliken charges =  -0.00000   1.00000

 Dipole moment (field-independent basis, Debye):
    X=             -0.8369    Y=              1.7762    Z=             -0.2262  Tot=              1.9765
 Quadrupole moment (field-independent basis, Debye-Ang):
   XX=            -68.2044   YY=            -56.7987   ZZ=            -72.5267
   XY=             -6.4029   XZ=              3.3418   YZ=              2.4282

 Normal termination of Gaussian 16 at Tue Nov 28 23:52:21 2023.
