 Gaussian 16, Revision B.01,
 Gaussian 16:  ES64L-G16RevB.01 20-Dec-2017

 -------------------------
 #P B3LYP/6-311+g(d) force
 -------------------------

 -----
 DPGEN
 -----
 Symbolic Z-matrix:
 Charge =  0 Multiplicity = 2

                         Standard orientation:
 ---------------------------------------------------------------------
 Center     Atomic      Atomic             Coordinates (Angstroms)
 Number     Number       Type             X           Y           Z
 ---------------------------------------------------------------------
      1         11           0        3.914133    1.716708   -0.237891
      2         11           0       -3.752483    1.756604    0.227592
      3         11           0        1.510041   -2.091417   -1.038808
      4         11           0       -2.364638   -1.198172   -1.297476
      5         11           0        1.792009   -0.844785    1.695443
      6         11           0       -1.545932   -0.710326    1.527233
      7         11           0        0.446871    1.371387   -0.876093
 ---------------------------------------------------------------------

 SCF Done:  E(UB3LYP) =  -1136.11813314     A.U. after   25 cycles

 The electronic state is 2-A.
 Alpha  occ. eigenvalues --  -38.44589 -38.44572 -38.44402 -38.44126 -38.43826
 Alpha  occ. eigenvalues --  -38.43724 -38.43688  -2.20460  -2.20355  -2.20222
 Alpha  occ. eigenvalues --   -2.19969  -2.19755  -2.19636  -2.19455  -1.14211
 Alpha  occ. eigenvalues --   -1.14120  -1.14044  -1.14026  -1.14016  -1.13974
 Alpha  occ. eigenvalues --   -1.13935  -1.13900  -1.13819  -1.13713  -1.13630
 Alpha  occ. eigenvalues --   -1.13574  -1.13462  -1.13431  -1.13346  -1.13297
 Alpha  occ. eigenvalues --   -1.13280  -1.13210  -1.13129  -1.13124  -1.13088
 Alpha  occ. eigenvalues --   -0.18242  -0.13991  -0.11104  -0.10930
 Alpha virt. eigenvalues --   -0.06525  -0.06103  -0.04591  -0.03147  -0.02510
 Alpha virt. eigenvalues --   -0.02347  -0.02241  -0.01718  -0.00702  -0.00353
 Alpha virt. eigenvalues --    0.00062   0.00194   0.00243   0.00442   0.00519

  Beta  occ. eigenvalues --  -38.44562 -38.44549 -38.44381 -38.44111 -38.43776
  Beta  occ. eigenvalues --  -38.43694 -38.43676  -2.20388  -2.20337  -2.20187
  Beta  occ. eigenvalues --   -2.19943  -2.19666  -2.19548  -2.19467  -1.14163
  Beta  occ. eigenvalues --   -1.14064  -1.14012  -1.14004  -1.13990  -1.13953
  Beta  occ. eigenvalues --   -1.13901  -1.13865  -1.13797  -1.13688  -1.13600
  Beta  occ. eigenvalues --   -1.13556  -1.13389  -1.13365  -1.13278  -1.13236
  Beta  occ. eigenvalues --   -1.13225  -1.13146  -1.13135  -1.13129  -1.13095
  Beta  occ. eigenvalues --   -0.17542  -0.13858  -0.10906
  Beta virt. eigenvalues --   -0.07037  -0.06344  -0.06035  -0.03927  -0.02885
  Beta virt. eigenvalues --   -0.02438  -0.01907  -0.01768  -0.01284  -0.00336
  Beta virt. eigenvalues --   -0.00205   0.00116   0.00222   0.00329   0.00522

 Mulliken charges and spin densities:
               1          2
     1  Na   0.154732  -0.070675
     2  Na   0.329632   0.002898
     3  Na  -0.072943   0.091197
     4  Na   0.419710   0.384630
     5  Na   0.389235   0.276807
     6  Na  -0.286694   0.168275
     7  Na  -0.933673   0.146868
 Sum of Mulliken charges =  -0.00000   1.00000

 Dipole moment (field-independent basis, Debye):
    X=             -0.6748    Y=             -0.2932    Z=             -0.3476  Tot=              0.8137
 Quadrupole moment (field-independent basis, Debye-Ang):
   XX=            -51.9540   YY=            -71.7215   ZZ=            -71.5449
   XY=             -4.6258   XZ=              1.3973   YZ=              2.5609

 Normal termination of Gaussian 16 at Thu Dec  7 10:28:19 2023.
