 Gaussian 16, Revision B.01,
 Gaussian 16:  ES64L-G16RevB.01 20-Dec-2017

 -------------------------
 #P B3LYP/6-311+g(d) force
 -------------------------

 -----
 DPGEN
 -----
 Symbolic Z-matrix:
 Charge =  0 Multiplicity = 2

                         Standard orientation:
 ---------------------------------------------------------------------
 Center     Atomic      Atomic             Coordinates (Angstroms)
 Number     Number       Type             X           Y           Z
 ---------------------------------------------------------------------
      1         11           0       -2.872795   -2.001633    0.292620
      2         11           0        0.035643    0.215717    1.689496
      3         11           0       -2.492832    1.677942   -0.290273
      4         11           0        0.044179    0.092981   -1.318498
      5         11           0        0.865403    3.191848   -0.149475
      6         11           0        1.190378   -2.902382   -0.474361
      7         11           0        3.230024   -0.274473    0.250491
 ---------------------------------------------------------------------

 SCF Done:  E(UB3LYP) =  -1136.13146792     A.U. after   20 cycles

 The electronic state is 2-A.
 Alpha  occ. eigenvalues --  -38.44101 -38.44071 -38.44008 -38.43906 -38.43798
 Alpha  occ. eigenvalues --  -38.43110 -38.42927  -2.19924  -2.19865  -2.19834
 Alpha  occ. eigenvalues --   -2.19719  -2.19626  -2.19060  -2.18957  -1.13596
 Alpha  occ. eigenvalues --   -1.13588  -1.13581  -1.13566  -1.13534  -1.13509
 Alpha  occ. eigenvalues --   -1.13495  -1.13478  -1.13456  -1.13399  -1.13377
 Alpha  occ. eigenvalues --   -1.13355  -1.13312  -1.13277  -1.13252  -1.12885
 Alpha  occ. eigenvalues --   -1.12673  -1.12645  -1.12619  -1.12580  -1.12554
 Alpha  occ. eigenvalues --   -0.18421  -0.13092  -0.12393  -0.09862
 Alpha virt. eigenvalues --   -0.05636  -0.05546  -0.05248  -0.02848  -0.02549
 Alpha virt. eigenvalues --   -0.01766  -0.01713  -0.01646  -0.00752  -0.00614
 Alpha virt. eigenvalues --    0.00024   0.00301   0.00761   0.00778   0.00780

  Beta  occ. eigenvalues --  -38.44094 -38.44067 -38.43997 -38.43902 -38.43781
  Beta  occ. eigenvalues --  -38.43033 -38.42877  -2.19915  -2.19847  -2.19829
  Beta  occ. eigenvalues --   -2.19716  -2.19597  -2.18918  -2.18866  -1.13585
  Beta  occ. eigenvalues --   -1.13580  -1.13566  -1.13547  -1.13507  -1.13498
  Beta  occ. eigenvalues --   -1.13487  -1.13474  -1.13443  -1.13391  -1.13372
  Beta  occ. eigenvalues --   -1.13342  -1.13286  -1.13247  -1.13235  -1.12794
  Beta  occ. eigenvalues --   -1.12578  -1.12542  -1.12531  -1.12511  -1.12488
  Beta  occ. eigenvalues --   -0.17762  -0.12800  -0.12154
  Beta virt. eigenvalues --   -0.06156  -0.05572  -0.05505  -0.05122  -0.02140
  Beta virt. eigenvalues --   -0.01936  -0.01637  -0.01550  -0.00876  -0.00745
  Beta virt. eigenvalues --   -0.00592   0.00169   0.00360   0.00779   0.00796

 Mulliken charges and spin densities:
               1          2
     1  Na  -0.082238  -0.000392
     2  Na  -0.177813   0.778405
     3  Na   0.213618   0.004610
     4  Na  -0.174769   0.228556
     5  Na   0.055012  -0.062317
     6  Na   0.016764   0.047491
     7  Na   0.149426   0.003647
 Sum of Mulliken charges =  -0.00000   1.00000

 Dipole moment (field-independent basis, Debye):
    X=              0.1098    Y=              0.1362    Z=              0.1083  Tot=              0.2057
 Quadrupole moment (field-independent basis, Debye-Ang):
   XX=            -54.8182   YY=            -56.2303   ZZ=            -78.5860
   XY=              1.2188   XZ=              0.1134   YZ=             -0.3651

 Normal termination of Gaussian 16 at Thu Dec  7 06:06:33 2023.
