 Gaussian 16, Revision B.01,
 Gaussian 16:  ES64L-G16RevB.01 20-Dec-2017

 -------------------------
 #P B3LYP/6-311+g(d) force
 -------------------------

 -----
 DPGEN
 -----
 Symbolic Z-matrix:
 Charge =  0 Multiplicity = 2

                         Standard orientation:
 ---------------------------------------------------------------------
 Center     Atomic      Atomic             Coordinates (Angstroms)
 Number     Number       Type             X           Y           Z
 ---------------------------------------------------------------------
      1         11           0        0.056644    3.746160   -0.346732
      2         11           0       -1.373540   -3.007428    0.426214
      3         11           0       -2.626996    2.199335   -1.011545
      4         11           0       -4.041623   -1.678753    0.390708
      5         11           0        1.474609    1.532869    1.865912
      6         11           0        4.289621   -0.680937   -0.136554
      7         11           0        2.221286   -2.111246   -1.188004
 ---------------------------------------------------------------------

 SCF Done:  E(UB3LYP) =  -1136.10320996     A.U. after   18 cycles

 The electronic state is 2-A.
 Alpha  occ. eigenvalues --  -38.45020 -38.44731 -38.44548 -38.44545 -38.44220
 Alpha  occ. eigenvalues --  -38.44030 -38.43861  -2.20870  -2.20531  -2.20403
 Alpha  occ. eigenvalues --   -2.20354  -2.20019  -2.19836  -2.19668  -1.14760
 Alpha  occ. eigenvalues --   -1.14498  -1.14476  -1.14292  -1.14184  -1.14170
 Alpha  occ. eigenvalues --   -1.14023  -1.14013  -1.14006  -1.14005  -1.13994
 Alpha  occ. eigenvalues --   -1.13957  -1.13668  -1.13654  -1.13635  -1.13516
 Alpha  occ. eigenvalues --   -1.13486  -1.13465  -1.13337  -1.13323  -1.13308
 Alpha  occ. eigenvalues --   -0.15866  -0.13734  -0.13356  -0.10473
 Alpha virt. eigenvalues --   -0.07099  -0.05360  -0.04324  -0.03738  -0.03190
 Alpha virt. eigenvalues --   -0.02542  -0.01927  -0.01569  -0.01312  -0.01020
 Alpha virt. eigenvalues --   -0.00445  -0.00155   0.00170   0.00377   0.00658

  Beta  occ. eigenvalues --  -38.45013 -38.44731 -38.44536 -38.44517 -38.44121
  Beta  occ. eigenvalues --  -38.43957 -38.43870  -2.20861  -2.20533  -2.20354
  Beta  occ. eigenvalues --   -2.20333  -2.19835  -2.19700  -2.19691  -1.14740
  Beta  occ. eigenvalues --   -1.14495  -1.14456  -1.14284  -1.14186  -1.14167
  Beta  occ. eigenvalues --   -1.13991  -1.13989  -1.13983  -1.13981  -1.13967
  Beta  occ. eigenvalues --   -1.13944  -1.13541  -1.13533  -1.13514  -1.13452
  Beta  occ. eigenvalues --   -1.13395  -1.13370  -1.13357  -1.13329  -1.13268
  Beta  occ. eigenvalues --   -0.15397  -0.13300  -0.12870
  Beta virt. eigenvalues --   -0.07094  -0.06993  -0.04956  -0.03957  -0.03471
  Beta virt. eigenvalues --   -0.02801  -0.02445  -0.01638  -0.01426  -0.01041
  Beta virt. eigenvalues --   -0.00833  -0.00219   0.00083   0.00401   0.00516

 Mulliken charges and spin densities:
               1          2
     1  Na   0.229383  -0.084683
     2  Na  -0.328949   0.037616
     3  Na  -0.187887   0.345466
     4  Na   0.424520  -0.029754
     5  Na  -0.328283   0.590977
     6  Na   0.355744  -0.052580
     7  Na  -0.164529   0.192958
 Sum of Mulliken charges =  -0.00000   1.00000

 Dipole moment (field-independent basis, Debye):
    X=              0.2768    Y=             -0.6042    Z=              0.0315  Tot=              0.6654
 Quadrupole moment (field-independent basis, Debye-Ang):
   XX=            -56.8463   YY=            -71.9796   ZZ=            -73.2839
   XY=              3.7847   XZ=              0.0511   YZ=             -1.1669

 Normal termination of Gaussian 16 at Sun Dec  3 11:47:05 2023.
