 Gaussian 16, Revision B.01,
 Gaussian 16:  ES64L-G16RevB.01 20-Dec-2017

 -------------------------
 #P B3LYP/6-311+g(d) force
 -------------------------

 -----
 DPGEN
 -----
 Symbolic Z-matrix:
 Charge =  0 Multiplicity = 2

                         Standard orientation:
 ---------------------------------------------------------------------
 Center     Atomic      Atomic             Coordinates (Angstroms)
 Number     Number       Type             X           Y           Z
 ---------------------------------------------------------------------
      1         11           0       -0.283484   -0.239629   -1.792738
      2         11           0       -2.760640   -1.322596   -0.843458
      3         11           0       -2.118069    2.006287    0.014154
      4         11           0       -0.941854   -0.353423    1.913842
      5         11           0        1.450403    1.945748    0.678141
      6         11           0        1.329444   -2.077789    1.046571
      7         11           0        3.324200    0.041401   -1.016513
 ---------------------------------------------------------------------

 SCF Done:  E(UB3LYP) =  -1136.12557663     A.U. after   22 cycles

 The electronic state is 2-A.
 Alpha  occ. eigenvalues --  -38.44424 -38.44285 -38.44241 -38.43914 -38.43340
 Alpha  occ. eigenvalues --  -38.43131 -38.43093  -2.20265  -2.20251  -2.20141
 Alpha  occ. eigenvalues --   -2.19903  -2.19213  -2.19016  -2.18962  -1.14117
 Alpha  occ. eigenvalues --   -1.13939  -1.13924  -1.13903  -1.13890  -1.13859
 Alpha  occ. eigenvalues --   -1.13775  -1.13732  -1.13718  -1.13634  -1.13535
 Alpha  occ. eigenvalues --   -1.13502  -1.12924  -1.12843  -1.12814  -1.12703
 Alpha  occ. eigenvalues --   -1.12690  -1.12649  -1.12639  -1.12632  -1.12583
 Alpha  occ. eigenvalues --   -0.19017  -0.13805  -0.11990  -0.11408
 Alpha virt. eigenvalues --   -0.05889  -0.04975  -0.04445  -0.03420  -0.02941
 Alpha virt. eigenvalues --   -0.02918  -0.01752  -0.00772  -0.00532   0.00152
 Alpha virt. eigenvalues --    0.00275   0.00346   0.00581   0.00827   0.00850

  Beta  occ. eigenvalues --  -38.44404 -38.44222 -38.44216 -38.43829 -38.43310
  Beta  occ. eigenvalues --  -38.43127 -38.43087  -2.20228  -2.20141  -2.20095
  Beta  occ. eigenvalues --   -2.19749  -2.19163  -2.19011  -2.18955  -1.14045
  Beta  occ. eigenvalues --   -1.13918  -1.13887  -1.13870  -1.13822  -1.13786
  Beta  occ. eigenvalues --   -1.13737  -1.13702  -1.13659  -1.13521  -1.13428
  Beta  occ. eigenvalues --   -1.13393  -1.12871  -1.12801  -1.12784  -1.12695
  Beta  occ. eigenvalues --   -1.12680  -1.12642  -1.12625  -1.12611  -1.12580
  Beta  occ. eigenvalues --   -0.18277  -0.13517  -0.11109
  Beta virt. eigenvalues --   -0.08012  -0.05708  -0.04924  -0.03895  -0.03057
  Beta virt. eigenvalues --   -0.02241  -0.02098  -0.01600  -0.00724  -0.00262
  Beta virt. eigenvalues --    0.00196   0.00315   0.00392   0.00710   0.00862

 Mulliken charges and spin densities:
               1          2
     1  Na  -0.551479   0.565785
     2  Na   0.448068  -0.049740
     3  Na   0.135242  -0.041188
     4  Na   0.258745   0.589173
     5  Na  -0.455248  -0.082313
     6  Na  -0.400891  -0.063689
     7  Na   0.565563   0.081971
 Sum of Mulliken charges =  -0.00000   1.00000

 Dipole moment (field-independent basis, Debye):
    X=              0.0333    Y=             -0.1799    Z=             -0.4089  Tot=              0.4479
 Quadrupole moment (field-independent basis, Debye-Ang):
   XX=            -53.4220   YY=            -74.3699   ZZ=            -67.7266
   XY=             -0.1762   XZ=             -1.3959   YZ=              0.4855

 Normal termination of Gaussian 16 at Fri Dec  8 02:38:14 2023.
