 Gaussian 16, Revision B.01,
 Gaussian 16:  ES64L-G16RevB.01 20-Dec-2017

 -------------------------
 #P B3LYP/6-311+g(d) force
 -------------------------

 -----
 DPGEN
 -----
 Symbolic Z-matrix:
 Charge =  0 Multiplicity = 2

                         Standard orientation:
 ---------------------------------------------------------------------
 Center     Atomic      Atomic             Coordinates (Angstroms)
 Number     Number       Type             X           Y           Z
 ---------------------------------------------------------------------
      1         11           0        2.658988   -0.152083   -1.078752
      2         11           0        1.797781   -2.588418    1.085130
      3         11           0       -0.518890   -1.947726   -0.911578
      4         11           0       -0.430067    1.194902   -1.575608
      5         11           0       -0.798239    0.345952    2.023591
      6         11           0        1.259940    3.314060    0.611378
      7         11           0       -3.969511   -0.166687   -0.154162
 ---------------------------------------------------------------------

 SCF Done:  E(UB3LYP) =  -1136.12890137     A.U. after   20 cycles

 The electronic state is 2-A.
 Alpha  occ. eigenvalues --  -38.44354 -38.44342 -38.44243 -38.43660 -38.43530
 Alpha  occ. eigenvalues --  -38.43512 -38.43499  -2.20167  -2.20086  -2.20077
 Alpha  occ. eigenvalues --   -2.19570  -2.19415  -2.19355  -2.19310  -1.13845
 Alpha  occ. eigenvalues --   -1.13803  -1.13781  -1.13775  -1.13762  -1.13758
 Alpha  occ. eigenvalues --   -1.13747  -1.13709  -1.13682  -1.13321  -1.13276
 Alpha  occ. eigenvalues --   -1.13168  -1.13114  -1.13068  -1.13016  -1.13008
 Alpha  occ. eigenvalues --   -1.12993  -1.12979  -1.12977  -1.12967  -1.12937
 Alpha  occ. eigenvalues --   -0.18032  -0.12574  -0.12145  -0.11215
 Alpha virt. eigenvalues --   -0.06063  -0.05238  -0.04182  -0.03405  -0.03154
 Alpha virt. eigenvalues --   -0.02767  -0.01930  -0.01111  -0.00602  -0.00098
 Alpha virt. eigenvalues --    0.00228   0.00289   0.00486   0.00722   0.00838

  Beta  occ. eigenvalues --  -38.44347 -38.44280 -38.44222 -38.43636 -38.43523
  Beta  occ. eigenvalues --  -38.43478 -38.43464  -2.20097  -2.20041  -2.20029
  Beta  occ. eigenvalues --   -2.19531  -2.19331  -2.19318  -2.19298  -1.13770
  Beta  occ. eigenvalues --   -1.13760  -1.13755  -1.13735  -1.13719  -1.13717
  Beta  occ. eigenvalues --   -1.13700  -1.13677  -1.13665  -1.13278  -1.13233
  Beta  occ. eigenvalues --   -1.13142  -1.13061  -1.13000  -1.12986  -1.12970
  Beta  occ. eigenvalues --   -1.12965  -1.12957  -1.12948  -1.12946  -1.12917
  Beta  occ. eigenvalues --   -0.17238  -0.12437  -0.11973
  Beta virt. eigenvalues --   -0.07318  -0.05946  -0.04962  -0.03977  -0.02904
  Beta virt. eigenvalues --   -0.02622  -0.02017  -0.01692  -0.00985  -0.00287
  Beta virt. eigenvalues --   -0.00144   0.00303   0.00319   0.00614   0.00730

 Mulliken charges and spin densities:
               1          2
     1  Na  -0.038038   0.127313
     2  Na   0.416293  -0.023017
     3  Na  -0.126870   0.146208
     4  Na   0.062220   0.256099
     5  Na  -0.531472   0.700844
     6  Na   0.009281  -0.121313
     7  Na   0.208586  -0.086135
 Sum of Mulliken charges =  -0.00000   1.00000

 Dipole moment (field-independent basis, Debye):
    X=             -0.1199    Y=              0.0045    Z=              0.1901  Tot=              0.2248
 Quadrupole moment (field-independent basis, Debye-Ang):
   XX=            -56.8444   YY=            -67.2252   ZZ=            -69.4627
   XY=             -0.1043   XZ=              0.8145   YZ=              0.1680

 Normal termination of Gaussian 16 at Thu Dec  7 14:36:19 2023.
