 Gaussian 16, Revision B.01,
 Gaussian 16:  ES64L-G16RevB.01 20-Dec-2017

 -------------------------
 #P B3LYP/6-311+g(d) force
 -------------------------

 -----
 DPGEN
 -----
 Symbolic Z-matrix:
 Charge =  0 Multiplicity = 2

                         Standard orientation:
 ---------------------------------------------------------------------
 Center     Atomic      Atomic             Coordinates (Angstroms)
 Number     Number       Type             X           Y           Z
 ---------------------------------------------------------------------
      1         11           0       -2.703030    2.010313   -0.007455
      2         11           0       -4.072364   -1.526437   -0.313154
      3         11           0        0.234706    0.008785    1.510089
      4         11           0        2.936614    1.106067    0.120502
      5         11           0        3.436620   -2.025566   -0.502921
      6         11           0        0.538082    3.396981   -0.632210
      7         11           0       -0.370628   -2.970143   -0.174851
 ---------------------------------------------------------------------

 SCF Done:  E(UB3LYP) =  -1136.11592392     A.U. after   23 cycles

 The electronic state is 2-A.
 Alpha  occ. eigenvalues --  -38.44677 -38.44629 -38.44405 -38.44359 -38.44306
 Alpha  occ. eigenvalues --  -38.44103 -38.44054  -2.20437  -2.20417  -2.20258
 Alpha  occ. eigenvalues --   -2.20115  -2.20078  -2.19925  -2.19917  -1.14136
 Alpha  occ. eigenvalues --   -1.14115  -1.14095  -1.14087  -1.14064  -1.14035
 Alpha  occ. eigenvalues --   -1.13947  -1.13929  -1.13863  -1.13787  -1.13755
 Alpha  occ. eigenvalues --   -1.13755  -1.13747  -1.13736  -1.13699  -1.13642
 Alpha  occ. eigenvalues --   -1.13612  -1.13586  -1.13574  -1.13530  -1.13501
 Alpha  occ. eigenvalues --   -0.17054  -0.13448  -0.12900  -0.09865
 Alpha virt. eigenvalues --   -0.06954  -0.06748  -0.04028  -0.03090  -0.03026
 Alpha virt. eigenvalues --   -0.02708  -0.02279  -0.01628  -0.01205  -0.01021
 Alpha virt. eigenvalues --    0.00137   0.00339   0.00383   0.00444   0.00547

  Beta  occ. eigenvalues --  -38.44670 -38.44630 -38.44346 -38.44316 -38.44284
  Beta  occ. eigenvalues --  -38.44048 -38.44037  -2.20427  -2.20419  -2.20148
  Beta  occ. eigenvalues --   -2.20041  -2.20033  -2.19900  -2.19818  -1.14130
  Beta  occ. eigenvalues --   -1.14106  -1.14098  -1.14089  -1.14056  -1.14020
  Beta  occ. eigenvalues --   -1.13882  -1.13857  -1.13780  -1.13734  -1.13728
  Beta  occ. eigenvalues --   -1.13699  -1.13695  -1.13690  -1.13675  -1.13606
  Beta  occ. eigenvalues --   -1.13587  -1.13542  -1.13511  -1.13454  -1.13444
  Beta  occ. eigenvalues --   -0.16600  -0.12790  -0.12643
  Beta virt. eigenvalues --   -0.06855  -0.06586  -0.06459  -0.03875  -0.02652
  Beta virt. eigenvalues --   -0.02530  -0.02424  -0.01922  -0.01411  -0.01169
  Beta virt. eigenvalues --   -0.00742   0.00360   0.00385   0.00489   0.00609

 Mulliken charges and spin densities:
               1          2
     1  Na  -0.235506   0.163093
     2  Na   0.146116   0.269163
     3  Na   0.319098   0.079743
     4  Na  -0.208742   0.297869
     5  Na   0.181281   0.272342
     6  Na   0.126391  -0.110103
     7  Na  -0.328639   0.027892
 Sum of Mulliken charges =  -0.00000   1.00000

 Dipole moment (field-independent basis, Debye):
    X=              0.0269    Y=              0.2713    Z=             -0.0974  Tot=              0.2895
 Quadrupole moment (field-independent basis, Debye-Ang):
   XX=            -75.1973   YY=            -56.4931   ZZ=            -71.0321
   XY=              1.7046   XZ=             -0.1406   YZ=              1.1082

 Normal termination of Gaussian 16 at Sun Dec  3 18:33:32 2023.
