 Gaussian 16, Revision B.01,
 Gaussian 16:  ES64L-G16RevB.01 20-Dec-2017

 -------------------------
 #P B3LYP/6-311+g(d) force
 -------------------------

 -----
 DPGEN
 -----
 Symbolic Z-matrix:
 Charge =  0 Multiplicity = 2

                         Standard orientation:
 ---------------------------------------------------------------------
 Center     Atomic      Atomic             Coordinates (Angstroms)
 Number     Number       Type             X           Y           Z
 ---------------------------------------------------------------------
      1         11           0       -0.029234   -0.447806    2.476456
      2         11           0        0.046709    0.172237   -1.953559
      3         11           0        1.133225   -2.602918   -0.654495
      4         11           0       -2.213518   -1.804032    0.215380
      5         11           0        0.860538    2.694416    0.263696
      6         11           0        3.116033    0.399598    0.023666
      7         11           0       -2.913753    1.588505   -0.371143
 ---------------------------------------------------------------------

 SCF Done:  E(UB3LYP) =  -1136.13522066     A.U. after   19 cycles

 The electronic state is 2-A.
 Alpha  occ. eigenvalues --  -38.44790 -38.44017 -38.43891 -38.43692 -38.43571
 Alpha  occ. eigenvalues --  -38.43354 -38.43165  -2.20610  -2.19924  -2.19721
 Alpha  occ. eigenvalues --   -2.19480  -2.19414  -2.19191  -2.19014  -1.14256
 Alpha  occ. eigenvalues --   -1.14235  -1.14233  -1.13606  -1.13574  -1.13545
 Alpha  occ. eigenvalues --   -1.13399  -1.13386  -1.13365  -1.13155  -1.13145
 Alpha  occ. eigenvalues --   -1.13125  -1.13101  -1.13079  -1.13036  -1.12870
 Alpha  occ. eigenvalues --   -1.12860  -1.12819  -1.12710  -1.12661  -1.12641
 Alpha  occ. eigenvalues --   -0.18199  -0.12804  -0.12097  -0.11614
 Alpha virt. eigenvalues --   -0.05484  -0.05089  -0.04497  -0.03583  -0.03358
 Alpha virt. eigenvalues --   -0.03116  -0.01362  -0.00931  -0.00267  -0.00145
 Alpha virt. eigenvalues --   -0.00108   0.00387   0.00723   0.00749   0.00896

  Beta  occ. eigenvalues --  -38.44683 -38.43951 -38.43890 -38.43691 -38.43566
  Beta  occ. eigenvalues --  -38.43350 -38.43152  -2.20412  -2.19804  -2.19723
  Beta  occ. eigenvalues --   -2.19478  -2.19409  -2.19185  -2.18993  -1.14124
  Beta  occ. eigenvalues --   -1.14099  -1.14090  -1.13530  -1.13484  -1.13457
  Beta  occ. eigenvalues --   -1.13401  -1.13376  -1.13360  -1.13149  -1.13140
  Beta  occ. eigenvalues --   -1.13124  -1.13090  -1.13059  -1.13037  -1.12867
  Beta  occ. eigenvalues --   -1.12840  -1.12815  -1.12684  -1.12643  -1.12625
  Beta  occ. eigenvalues --   -0.17441  -0.12616  -0.11882
  Beta virt. eigenvalues --   -0.07638  -0.05404  -0.05011  -0.04337  -0.02774
  Beta virt. eigenvalues --   -0.02538  -0.02297  -0.01282  -0.00859  -0.00237
  Beta virt. eigenvalues --   -0.00186   0.00030   0.00418   0.00867   0.00908

 Mulliken charges and spin densities:
               1          2
     1  Na  -0.397130   0.552336
     2  Na  -0.014189   0.406384
     3  Na   0.198554   0.013491
     4  Na   0.082847   0.078952
     5  Na  -0.058541   0.046089
     6  Na   0.112054  -0.029238
     7  Na   0.076406  -0.068013
 Sum of Mulliken charges =  -0.00000   1.00000

 Dipole moment (field-independent basis, Debye):
    X=              0.0951    Y=             -0.0023    Z=              0.2885  Tot=              0.3038
 Quadrupole moment (field-independent basis, Debye-Ang):
   XX=            -60.4635   YY=            -67.2817   ZZ=            -68.9016
   XY=             -0.7735   XZ=              0.3124   YZ=              0.7408

 Normal termination of Gaussian 16 at Sun Dec  3 20:33:56 2023.
