 Gaussian 16, Revision B.01,
 Gaussian 16:  ES64L-G16RevB.01 20-Dec-2017

 -------------------------
 #P B3LYP/6-311+g(d) force
 -------------------------

 -----
 DPGEN
 -----
 Symbolic Z-matrix:
 Charge =  0 Multiplicity = 2

                         Standard orientation:
 ---------------------------------------------------------------------
 Center     Atomic      Atomic             Coordinates (Angstroms)
 Number     Number       Type             X           Y           Z
 ---------------------------------------------------------------------
      1         11           0        1.495528   -0.092323   -2.147136
      2         11           0       -0.076216   -0.310678    2.240168
      3         11           0       -0.940764   -2.279389   -0.656367
      4         11           0       -1.088806    1.357002   -1.199267
      5         11           0        2.467478   -1.358238    0.734323
      6         11           0       -3.468602    0.300274    0.395729
      7         11           0        1.611383    2.383352    0.632551
 ---------------------------------------------------------------------

 SCF Done:  E(UB3LYP) =  -1136.12936539     A.U. after   22 cycles

 The electronic state is 2-A.
 Alpha  occ. eigenvalues --  -38.44193 -38.44175 -38.44065 -38.43937 -38.43708
 Alpha  occ. eigenvalues --  -38.43506 -38.42615  -2.20106  -2.20062  -2.19891
 Alpha  occ. eigenvalues --   -2.19773  -2.19545  -2.19377  -2.18563  -1.13813
 Alpha  occ. eigenvalues --   -1.13752  -1.13748  -1.13702  -1.13697  -1.13686
 Alpha  occ. eigenvalues --   -1.13596  -1.13545  -1.13512  -1.13468  -1.13428
 Alpha  occ. eigenvalues --   -1.13378  -1.13230  -1.13184  -1.13171  -1.13070
 Alpha  occ. eigenvalues --   -1.13041  -1.12989  -1.12277  -1.12226  -1.12174
 Alpha  occ. eigenvalues --   -0.18771  -0.13018  -0.12401  -0.11483
 Alpha virt. eigenvalues --   -0.05731  -0.04711  -0.04233  -0.03676  -0.03325
 Alpha virt. eigenvalues --   -0.03116  -0.01460  -0.00790  -0.00468   0.00195
 Alpha virt. eigenvalues --    0.00341   0.00376   0.00456   0.00778   0.00903

  Beta  occ. eigenvalues --  -38.44124 -38.44110 -38.44064 -38.43907 -38.43675
  Beta  occ. eigenvalues --  -38.43502 -38.42602  -2.19980  -2.19944  -2.19891
  Beta  occ. eigenvalues --   -2.19719  -2.19486  -2.19374  -2.18545  -1.13720
  Beta  occ. eigenvalues --   -1.13677  -1.13670  -1.13618  -1.13602  -1.13597
  Beta  occ. eigenvalues --   -1.13593  -1.13537  -1.13513  -1.13425  -1.13381
  Beta  occ. eigenvalues --   -1.13342  -1.13181  -1.13145  -1.13125  -1.13049
  Beta  occ. eigenvalues --   -1.13035  -1.12983  -1.12247  -1.12204  -1.12164
  Beta  occ. eigenvalues --   -0.17900  -0.12839  -0.11317
  Beta virt. eigenvalues --   -0.08309  -0.05549  -0.04413  -0.03793  -0.03185
  Beta virt. eigenvalues --   -0.02809  -0.02331  -0.01393  -0.00603  -0.00273
  Beta virt. eigenvalues --    0.00279   0.00378   0.00427   0.00575   0.00887

 Mulliken charges and spin densities:
               1          2
     1  Na   0.405487   0.379638
     2  Na  -0.031246   0.591550
     3  Na  -0.322393   0.068506
     4  Na  -0.298040   0.311376
     5  Na   0.187453  -0.077684
     6  Na   0.293076  -0.204493
     7  Na  -0.234337  -0.068894
 Sum of Mulliken charges =  -0.00000   1.00000

 Dipole moment (field-independent basis, Debye):
    X=             -0.0481    Y=             -0.2283    Z=              0.3102  Tot=              0.3881
 Quadrupole moment (field-independent basis, Debye-Ang):
   XX=            -58.3185   YY=            -71.6588   ZZ=            -65.8674
   XY=              0.7280   XZ=             -1.6218   YZ=              6.4055

 Normal termination of Gaussian 16 at Mon Dec  4 01:32:59 2023.
