 Gaussian 16, Revision B.01,
 Gaussian 16:  ES64L-G16RevB.01 20-Dec-2017

 -------------------------
 #P B3LYP/6-311+g(d) force
 -------------------------

 -----
 DPGEN
 -----
 Symbolic Z-matrix:
 Charge =  0 Multiplicity = 2

                         Standard orientation:
 ---------------------------------------------------------------------
 Center     Atomic      Atomic             Coordinates (Angstroms)
 Number     Number       Type             X           Y           Z
 ---------------------------------------------------------------------
      1         11           0        1.437707    2.051325   -0.480852
      2         11           0       -3.647344   -1.274995   -0.588298
      3         11           0        2.018136   -1.743059    0.124572
      4         11           0       -1.032239   -0.759225    1.611619
      5         11           0       -0.657680   -0.514457   -1.257305
      6         11           0        4.697385    0.147078    0.105549
      7         11           0       -2.815964    2.093333    0.484715
 ---------------------------------------------------------------------

 SCF Done:  E(UB3LYP) =  -1136.11035993     A.U. after   28 cycles

 The electronic state is 2-A.
 Alpha  occ. eigenvalues --  -38.45374 -38.44458 -38.44306 -38.44057 -38.43693
 Alpha  occ. eigenvalues --  -38.43558 -38.43278  -2.21292  -2.20488  -2.20181
 Alpha  occ. eigenvalues --   -2.19888  -2.19495  -2.19349  -2.19160  -1.15068
 Alpha  occ. eigenvalues --   -1.14931  -1.14892  -1.14196  -1.14182  -1.14059
 Alpha  occ. eigenvalues --   -1.13861  -1.13804  -1.13780  -1.13542  -1.13526
 Alpha  occ. eigenvalues --   -1.13494  -1.13197  -1.13146  -1.13120  -1.13069
 Alpha  occ. eigenvalues --   -1.13024  -1.12951  -1.12862  -1.12835  -1.12780
 Alpha  occ. eigenvalues --   -0.18440  -0.14549  -0.10936  -0.10767
 Alpha virt. eigenvalues --   -0.07545  -0.05506  -0.04195  -0.03345  -0.03011
 Alpha virt. eigenvalues --   -0.02056  -0.01803  -0.01514  -0.01027  -0.00776
 Alpha virt. eigenvalues --   -0.00398   0.00097   0.00313   0.00545   0.00674

  Beta  occ. eigenvalues --  -38.45366 -38.44425 -38.44245 -38.43959 -38.43685
  Beta  occ. eigenvalues --  -38.43557 -38.43268  -2.21281  -2.20433  -2.20068
  Beta  occ. eigenvalues --   -2.19704  -2.19481  -2.19350  -2.19149  -1.15056
  Beta  occ. eigenvalues --   -1.14903  -1.14885  -1.14162  -1.14112  -1.14021
  Beta  occ. eigenvalues --   -1.13784  -1.13734  -1.13695  -1.13417  -1.13401
  Beta  occ. eigenvalues --   -1.13375  -1.13191  -1.13141  -1.13091  -1.13065
  Beta  occ. eigenvalues --   -1.13018  -1.12945  -1.12859  -1.12812  -1.12744
  Beta  occ. eigenvalues --   -0.17871  -0.13735  -0.10749
  Beta virt. eigenvalues --   -0.07339  -0.07195  -0.05405  -0.03530  -0.03104
  Beta virt. eigenvalues --   -0.02752  -0.01809  -0.01473  -0.01426  -0.00555
  Beta virt. eigenvalues --   -0.00338  -0.00146   0.00174   0.00465   0.00638

 Mulliken charges and spin densities:
               1          2
     1  Na  -0.224061  -0.075000
     2  Na   0.297698   0.404783
     3  Na   0.062253   0.104128
     4  Na   0.199949   0.001457
     5  Na   0.029638  -0.036986
     6  Na  -0.024138   0.503511
     7  Na  -0.341340   0.098106
 Sum of Mulliken charges =  -0.00000   1.00000

 Dipole moment (field-independent basis, Debye):
    X=             -1.0163    Y=             -0.3353    Z=              0.4195  Tot=              1.1495
 Quadrupole moment (field-independent basis, Debye-Ang):
   XX=            -66.1125   YY=            -76.8291   ZZ=            -61.3287
   XY=              1.1523   XZ=             -0.1352   YZ=              0.6910

 Normal termination of Gaussian 16 at Thu Dec  7 03:04:54 2023.
