 Gaussian 16, Revision B.01,
 Gaussian 16:  ES64L-G16RevB.01 20-Dec-2017

 -------------------------
 #P B3LYP/6-311+g(d) force
 -------------------------

 -----
 DPGEN
 -----
 Symbolic Z-matrix:
 Charge =  0 Multiplicity = 2

                         Standard orientation:
 ---------------------------------------------------------------------
 Center     Atomic      Atomic             Coordinates (Angstroms)
 Number     Number       Type             X           Y           Z
 ---------------------------------------------------------------------
      1         11           0       -0.508938    1.558490    1.362629
      2         11           0        2.112241    3.101671   -0.725823
      3         11           0        3.294966    0.404930   -0.019132
      4         11           0        0.036247   -0.934758   -0.172276
      5         11           0       -3.261561   -1.274364    0.274876
      6         11           0        4.166181   -2.787664   -0.101283
      7         11           0       -5.839135   -0.068305   -0.618992
 ---------------------------------------------------------------------

 SCF Done:  E(UB3LYP) =  -1136.11254404     A.U. after   21 cycles

 The electronic state is 2-A.
 Alpha  occ. eigenvalues --  -38.45045 -38.44890 -38.44866 -38.44338 -38.43943
 Alpha  occ. eigenvalues --  -38.43376 -38.43049  -2.20880  -2.20762  -2.20729
 Alpha  occ. eigenvalues --   -2.20188  -2.19798  -2.19281  -2.18825  -1.14695
 Alpha  occ. eigenvalues --   -1.14548  -1.14463  -1.14419  -1.14414  -1.14395
 Alpha  occ. eigenvalues --   -1.14346  -1.14343  -1.14335  -1.13905  -1.13825
 Alpha  occ. eigenvalues --   -1.13776  -1.13500  -1.13465  -1.13432  -1.12969
 Alpha  occ. eigenvalues --   -1.12956  -1.12896  -1.12493  -1.12490  -1.12457
 Alpha  occ. eigenvalues --   -0.17317  -0.14538  -0.11796  -0.11532
 Alpha virt. eigenvalues --   -0.06329  -0.05233  -0.04664  -0.03668  -0.02934
 Alpha virt. eigenvalues --   -0.02631  -0.01675  -0.01660  -0.01150  -0.00887
 Alpha virt. eigenvalues --   -0.00468  -0.00068   0.00234   0.00489   0.00574

  Beta  occ. eigenvalues --  -38.45030 -38.44807 -38.44796 -38.44280 -38.43942
  Beta  occ. eigenvalues --  -38.43352 -38.43049  -2.20855  -2.20656  -2.20554
  Beta  occ. eigenvalues --   -2.20080  -2.19807  -2.19241  -2.18826  -1.14651
  Beta  occ. eigenvalues --   -1.14534  -1.14441  -1.14354  -1.14335  -1.14298
  Beta  occ. eigenvalues --   -1.14251  -1.14227  -1.14224  -1.13821  -1.13752
  Beta  occ. eigenvalues --   -1.13710  -1.13484  -1.13477  -1.13397  -1.12941
  Beta  occ. eigenvalues --   -1.12924  -1.12859  -1.12493  -1.12489  -1.12457
  Beta  occ. eigenvalues --   -0.16681  -0.13629  -0.11436
  Beta virt. eigenvalues --   -0.08235  -0.06004  -0.04869  -0.04417  -0.03377
  Beta virt. eigenvalues --   -0.02619  -0.02121  -0.01630  -0.01281  -0.00899
  Beta virt. eigenvalues --   -0.00546  -0.00261   0.00044   0.00335   0.00568

 Mulliken charges and spin densities:
               1          2
     1  Na   0.121376  -0.037672
     2  Na   0.424073   0.115889
     3  Na   0.012955   0.307130
     4  Na  -0.961975   0.122699
     5  Na  -0.460168   0.086293
     6  Na   0.398367   0.008052
     7  Na   0.465372   0.397609
 Sum of Mulliken charges =  -0.00000   1.00000

 Dipole moment (field-independent basis, Debye):
    X=             -1.5602    Y=              1.3557    Z=              0.1184  Tot=              2.0703
 Quadrupole moment (field-independent basis, Debye-Ang):
   XX=            -67.1043   YY=            -64.9177   ZZ=            -68.8107
   XY=             -1.6969   XZ=              0.2661   YZ=             -0.5936

 Normal termination of Gaussian 16 at Wed Nov 29 03:37:30 2023.
