 Gaussian 16, Revision B.01,
 Gaussian 16:  ES64L-G16RevB.01 20-Dec-2017

 -------------------------
 #P B3LYP/6-311+g(d) force
 -------------------------

 -----
 DPGEN
 -----
 Symbolic Z-matrix:
 Charge =  0 Multiplicity = 2

                         Standard orientation:
 ---------------------------------------------------------------------
 Center     Atomic      Atomic             Coordinates (Angstroms)
 Number     Number       Type             X           Y           Z
 ---------------------------------------------------------------------
      1         11           0       -2.560943    1.340395   -0.284705
      2         11           0        1.187159    0.529670    0.907172
      3         11           0        2.174812   -2.711324    0.116910
      4         11           0       -1.052904   -1.462425   -0.736758
      5         11           0       -4.193876   -1.557052    0.374453
      6         11           0        4.162837   -0.118983   -0.298711
      7         11           0        0.282915    3.979719   -0.078361
 ---------------------------------------------------------------------

 SCF Done:  E(UB3LYP) =  -1136.12495363     A.U. after   19 cycles

 The electronic state is 2-A.
 Alpha  occ. eigenvalues --  -38.44339 -38.44157 -38.44036 -38.43778 -38.43722
 Alpha  occ. eigenvalues --  -38.43722 -38.43472  -2.20179  -2.20005  -2.19915
 Alpha  occ. eigenvalues --   -2.19617  -2.19585  -2.19474  -2.19390  -1.13909
 Alpha  occ. eigenvalues --   -1.13876  -1.13756  -1.13685  -1.13667  -1.13659
 Alpha  occ. eigenvalues --   -1.13637  -1.13620  -1.13494  -1.13278  -1.13266
 Alpha  occ. eigenvalues --   -1.13241  -1.13230  -1.13218  -1.13195  -1.13152
 Alpha  occ. eigenvalues --   -1.13142  -1.13104  -1.13087  -1.13062  -1.12980
 Alpha  occ. eigenvalues --   -0.17404  -0.14322  -0.12153  -0.10196
 Alpha virt. eigenvalues --   -0.05974  -0.05671  -0.05128  -0.03184  -0.02779
 Alpha virt. eigenvalues --   -0.01957  -0.01846  -0.01449  -0.01355  -0.00503
 Alpha virt. eigenvalues --   -0.00097  -0.00032   0.00443   0.00548   0.00676

  Beta  occ. eigenvalues --  -38.44332 -38.44140 -38.44023 -38.43731 -38.43729
  Beta  occ. eigenvalues --  -38.43636 -38.43433  -2.20169  -2.19980  -2.19896
  Beta  occ. eigenvalues --   -2.19525  -2.19492  -2.19425  -2.19323  -1.13902
  Beta  occ. eigenvalues --   -1.13872  -1.13731  -1.13674  -1.13658  -1.13616
  Beta  occ. eigenvalues --   -1.13592  -1.13574  -1.13489  -1.13213  -1.13203
  Beta  occ. eigenvalues --   -1.13181  -1.13165  -1.13155  -1.13120  -1.13114
  Beta  occ. eigenvalues --   -1.13107  -1.13094  -1.13042  -1.13020  -1.12906
  Beta  occ. eigenvalues --   -0.16804  -0.13743  -0.11976
  Beta virt. eigenvalues --   -0.06577  -0.05803  -0.05444  -0.04847  -0.02629
  Beta virt. eigenvalues --   -0.02554  -0.01873  -0.01541  -0.01281  -0.01016
  Beta virt. eigenvalues --   -0.00249   0.00212   0.00253   0.00548   0.00673

 Mulliken charges and spin densities:
               1          2
     1  Na  -0.166855   0.166041
     2  Na  -0.587433   0.064712
     3  Na   0.461820   0.098608
     4  Na  -0.483119   0.052807
     5  Na   0.444205   0.278951
     6  Na   0.148199   0.426841
     7  Na   0.183183  -0.087960
 Sum of Mulliken charges =   0.00000   1.00000

 Dipole moment (field-independent basis, Debye):
    X=             -0.2841    Y=             -0.6217    Z=             -0.0941  Tot=              0.6900
 Quadrupole moment (field-independent basis, Debye-Ang):
   XX=            -69.2981   YY=            -59.7764   ZZ=            -69.4560
   XY=             -1.1850   XZ=             -2.1414   YZ=             -2.3109

 Normal termination of Gaussian 16 at Wed Nov 29 00:27:32 2023.
