 Gaussian 16, Revision B.01,
 Gaussian 16:  ES64L-G16RevB.01 20-Dec-2017

 -------------------------
 #P B3LYP/6-311+g(d) force
 -------------------------

 -----
 DPGEN
 -----
 Symbolic Z-matrix:
 Charge =  0 Multiplicity = 2

                         Standard orientation:
 ---------------------------------------------------------------------
 Center     Atomic      Atomic             Coordinates (Angstroms)
 Number     Number       Type             X           Y           Z
 ---------------------------------------------------------------------
      1         11           0        0.148508   -0.263233   -1.623644
      2         11           0       -1.876242    1.318524   -0.484616
      3         11           0        2.591631    0.172211   -0.277158
      4         11           0        0.924038   -2.211170    0.409039
      5         11           0       -1.972843   -1.357294   -0.157764
      6         11           0       -0.480556    0.109680    1.796870
      7         11           0        0.665465    2.231283    0.337273
 ---------------------------------------------------------------------

 SCF Done:  E(UB3LYP) =  -1136.08281795     A.U. after   19 cycles

 The electronic state is 2-A.
 Alpha  occ. eigenvalues --  -38.44161 -38.44047 -38.43913 -38.43808 -38.43771
 Alpha  occ. eigenvalues --  -38.43432 -38.43309  -2.20374  -2.20360  -2.20110
 Alpha  occ. eigenvalues --   -2.19929  -2.19851  -2.19545  -2.19379  -1.14384
 Alpha  occ. eigenvalues --   -1.14194  -1.14137  -1.14083  -1.14049  -1.13996
 Alpha  occ. eigenvalues --   -1.13946  -1.13731  -1.13645  -1.13583  -1.13533
 Alpha  occ. eigenvalues --   -1.13526  -1.13504  -1.13452  -1.13401  -1.13190
 Alpha  occ. eigenvalues --   -1.13141  -1.13096  -1.13061  -1.13017  -1.12962
 Alpha  occ. eigenvalues --   -0.21585  -0.13690  -0.13182  -0.12285
 Alpha virt. eigenvalues --   -0.05021  -0.04348  -0.04211  -0.03618  -0.03347
 Alpha virt. eigenvalues --   -0.02921  -0.00829  -0.00601  -0.00085   0.00361
 Alpha virt. eigenvalues --    0.00770   0.00900   0.01098   0.01156   0.01170

  Beta  occ. eigenvalues --  -38.44067 -38.43961 -38.43889 -38.43800 -38.43754
  Beta  occ. eigenvalues --  -38.43417 -38.43295  -2.20214  -2.20202  -2.20071
  Beta  occ. eigenvalues --   -2.19905  -2.19840  -2.19524  -2.19358  -1.14318
  Beta  occ. eigenvalues --   -1.14091  -1.14034  -1.13991  -1.13948  -1.13925
  Beta  occ. eigenvalues --   -1.13859  -1.13683  -1.13575  -1.13560  -1.13509
  Beta  occ. eigenvalues --   -1.13495  -1.13446  -1.13399  -1.13385  -1.13169
  Beta  occ. eigenvalues --   -1.13093  -1.13079  -1.13050  -1.12961  -1.12953
  Beta  occ. eigenvalues --   -0.20775  -0.13334  -0.12838
  Beta virt. eigenvalues --   -0.08047  -0.05025  -0.04334  -0.04201  -0.02700
  Beta virt. eigenvalues --   -0.02438  -0.01762  -0.00767  -0.00553   0.00067
  Beta virt. eigenvalues --    0.00392   0.00749   0.00862   0.01118   0.01151

 Mulliken charges and spin densities:
               1          2
     1  Na  -0.453890   0.302454
     2  Na   0.258816   0.080829
     3  Na   0.008014   0.004752
     4  Na   0.104339   0.075741
     5  Na   0.195336  -0.042696
     6  Na  -0.437874   0.459958
     7  Na   0.325259   0.118961
 Sum of Mulliken charges =  -0.00000   1.00000

 Dipole moment (field-independent basis, Debye):
    X=              0.2741    Y=             -0.1113    Z=              0.2451  Tot=              0.3842
 Quadrupole moment (field-independent basis, Debye-Ang):
   XX=            -62.8209   YY=            -66.6434   ZZ=            -68.6856
   XY=              0.1247   XZ=              0.8183   YZ=             -0.7955

 Normal termination of Gaussian 16 at Sat Dec  9 06:58:19 2023.
