 Gaussian 16, Revision B.01,
 Gaussian 16:  ES64L-G16RevB.01 20-Dec-2017

 -------------------------
 #P B3LYP/6-311+g(d) force
 -------------------------

 -----
 DPGEN
 -----
 Symbolic Z-matrix:
 Charge =  0 Multiplicity = 2

                         Standard orientation:
 ---------------------------------------------------------------------
 Center     Atomic      Atomic             Coordinates (Angstroms)
 Number     Number       Type             X           Y           Z
 ---------------------------------------------------------------------
      1         11           0       -1.822090    1.698487    0.030393
      2         11           0        0.958767    0.368850   -1.379058
      3         11           0        1.622363    0.095169    1.944472
      4         11           0        3.042062   -2.111877   -0.421686
      5         11           0       -0.756626   -2.182673   -0.060594
      6         11           0       -3.972257   -1.098294    0.088731
      7         11           0        0.927781    3.230338   -0.202259
 ---------------------------------------------------------------------

 SCF Done:  E(UB3LYP) =  -1136.13011974     A.U. after   20 cycles

 The electronic state is 2-A.
 Alpha  occ. eigenvalues --  -38.44384 -38.44128 -38.43998 -38.43972 -38.43622
 Alpha  occ. eigenvalues --  -38.43360 -38.43160  -2.20198  -2.19961  -2.19838
 Alpha  occ. eigenvalues --   -2.19792  -2.19505  -2.19232  -2.19158  -1.13875
 Alpha  occ. eigenvalues --   -1.13856  -1.13828  -1.13687  -1.13650  -1.13559
 Alpha  occ. eigenvalues --   -1.13548  -1.13516  -1.13490  -1.13453  -1.13447
 Alpha  occ. eigenvalues --   -1.13412  -1.13212  -1.13148  -1.13130  -1.12907
 Alpha  occ. eigenvalues --   -1.12887  -1.12855  -1.12828  -1.12800  -1.12741
 Alpha  occ. eigenvalues --   -0.18255  -0.13232  -0.12856  -0.10126
 Alpha virt. eigenvalues --   -0.06216  -0.05439  -0.04919  -0.03111  -0.02622
 Alpha virt. eigenvalues --   -0.02118  -0.02040  -0.01595  -0.00668  -0.00318
 Alpha virt. eigenvalues --   -0.00101   0.00174   0.00702   0.00760   0.00797

  Beta  occ. eigenvalues --  -38.44377 -38.44119 -38.44001 -38.43968 -38.43618
  Beta  occ. eigenvalues --  -38.43263 -38.43108  -2.20187  -2.19948  -2.19833
  Beta  occ. eigenvalues --   -2.19797  -2.19500  -2.19064  -2.19052  -1.13870
  Beta  occ. eigenvalues --   -1.13825  -1.13823  -1.13678  -1.13619  -1.13555
  Beta  occ. eigenvalues --   -1.13543  -1.13501  -1.13487  -1.13454  -1.13449
  Beta  occ. eigenvalues --   -1.13415  -1.13203  -1.13149  -1.13104  -1.12805
  Beta  occ. eigenvalues --   -1.12784  -1.12763  -1.12711  -1.12702  -1.12670
  Beta  occ. eigenvalues --   -0.17614  -0.13033  -0.12670
  Beta virt. eigenvalues --   -0.06222  -0.06066  -0.05388  -0.04862  -0.02407
  Beta virt. eigenvalues --   -0.02109  -0.01993  -0.01583  -0.01114  -0.00659
  Beta virt. eigenvalues --   -0.00215   0.00168   0.00269   0.00752   0.00777

 Mulliken charges and spin densities:
               1          2
     1  Na  -0.581729   0.087934
     2  Na  -0.354859   0.066784
     3  Na  -0.545628   0.538956
     4  Na   0.785221   0.136418
     5  Na  -0.430071   0.132982
     6  Na   0.186251  -0.107127
     7  Na   0.940816   0.144053
 Sum of Mulliken charges =  -0.00000   1.00000

 Dipole moment (field-independent basis, Debye):
    X=              0.0475    Y=             -0.1970    Z=             -0.1160  Tot=              0.2335
 Quadrupole moment (field-independent basis, Debye-Ang):
   XX=            -53.9714   YY=            -60.0584   ZZ=            -77.9302
   XY=             -1.6459   XZ=             -1.8706   YZ=              0.5493

 Normal termination of Gaussian 16 at Tue Dec  5 12:27:54 2023.
