 Gaussian 16, Revision B.01,
 Gaussian 16:  ES64L-G16RevB.01 20-Dec-2017

 -------------------------
 #P B3LYP/6-311+g(d) force
 -------------------------

 -----
 DPGEN
 -----
 Symbolic Z-matrix:
 Charge =  0 Multiplicity = 2

                         Standard orientation:
 ---------------------------------------------------------------------
 Center     Atomic      Atomic             Coordinates (Angstroms)
 Number     Number       Type             X           Y           Z
 ---------------------------------------------------------------------
      1         11           0       -2.735016    1.485784   -0.886875
      2         11           0       -0.666211    3.381908    0.555101
      3         11           0        3.438982   -0.181402    1.417654
      4         11           0       -4.799377   -1.412153    0.155032
      5         11           0        6.000944   -1.007489   -0.879412
      6         11           0        0.785574    0.576149   -0.584147
      7         11           0       -2.024897   -2.842796    0.222647
 ---------------------------------------------------------------------

 SCF Done:  E(UB3LYP) =  -1136.11386443     A.U. after   19 cycles

 The electronic state is 2-A.
 Alpha  occ. eigenvalues --  -38.44593 -38.44412 -38.44178 -38.44150 -38.44126
 Alpha  occ. eigenvalues --  -38.44027 -38.43945  -2.20382  -2.20240  -2.19973
 Alpha  occ. eigenvalues --   -2.19961  -2.19957  -2.19872  -2.19716  -1.14055
 Alpha  occ. eigenvalues --   -1.14041  -1.14028  -1.13928  -1.13896  -1.13893
 Alpha  occ. eigenvalues --   -1.13661  -1.13636  -1.13621  -1.13616  -1.13605
 Alpha  occ. eigenvalues --   -1.13604  -1.13603  -1.13567  -1.13563  -1.13558
 Alpha  occ. eigenvalues --   -1.13535  -1.13478  -1.13397  -1.13383  -1.13358
 Alpha  occ. eigenvalues --   -0.16397  -0.13658  -0.12615  -0.10319
 Alpha virt. eigenvalues --   -0.06352  -0.06042  -0.04688  -0.03643  -0.02876
 Alpha virt. eigenvalues --   -0.02372  -0.01995  -0.01540  -0.01069  -0.00865
 Alpha virt. eigenvalues --   -0.00399  -0.00307   0.00118   0.00247   0.00560

  Beta  occ. eigenvalues --  -38.44569 -38.44411 -38.44144 -38.44090 -38.44089
  Beta  occ. eigenvalues --  -38.43985 -38.43962  -2.20337  -2.20239  -2.19951
  Beta  occ. eigenvalues --   -2.19906  -2.19794  -2.19790  -2.19753  -1.14025
  Beta  occ. eigenvalues --   -1.14011  -1.13994  -1.13922  -1.13896  -1.13883
  Beta  occ. eigenvalues --   -1.13616  -1.13611  -1.13599  -1.13596  -1.13586
  Beta  occ. eigenvalues --   -1.13519  -1.13509  -1.13490  -1.13488  -1.13479
  Beta  occ. eigenvalues --   -1.13463  -1.13443  -1.13426  -1.13395  -1.13347
  Beta  occ. eigenvalues --   -0.15937  -0.13342  -0.12219
  Beta virt. eigenvalues --   -0.07115  -0.05928  -0.05474  -0.04393  -0.03380
  Beta virt. eigenvalues --   -0.02619  -0.02285  -0.01775  -0.01172  -0.00990
  Beta virt. eigenvalues --   -0.00476  -0.00213  -0.00025   0.00305   0.00451

 Mulliken charges and spin densities:
               1          2
     1  Na   0.313620   0.434674
     2  Na   0.566393   0.090006
     3  Na   0.197498  -0.048756
     4  Na   0.139273   0.009248
     5  Na   0.083093   0.457124
     6  Na  -1.346223  -0.092882
     7  Na   0.046345   0.150586
 Sum of Mulliken charges =  -0.00000   1.00000

 Dipole moment (field-independent basis, Debye):
    X=             -1.1791    Y=              0.5403    Z=              0.3554  Tot=              1.3448
 Quadrupole moment (field-independent basis, Debye-Ang):
   XX=            -70.4349   YY=            -65.6365   ZZ=            -66.3056
   XY=              2.0029   XZ=             -1.6991   YZ=              3.4232

 Normal termination of Gaussian 16 at Tue Nov 28 20:12:08 2023.
