 Gaussian 16, Revision B.01,
 Gaussian 16:  ES64L-G16RevB.01 20-Dec-2017

 -------------------------
 #P B3LYP/6-311+g(d) force
 -------------------------

 -----
 DPGEN
 -----
 Symbolic Z-matrix:
 Charge =  0 Multiplicity = 2

                         Standard orientation:
 ---------------------------------------------------------------------
 Center     Atomic      Atomic             Coordinates (Angstroms)
 Number     Number       Type             X           Y           Z
 ---------------------------------------------------------------------
      1         11           0       -0.356270   -0.195974   -2.016660
      2         11           0        3.217095   -0.587687   -0.702065
      3         11           0       -1.957741    1.833698    1.431652
      4         11           0       -3.079278   -0.650643   -0.938694
      5         11           0       -0.114516   -2.827602    0.613740
      6         11           0        1.038276   -0.197268    2.317145
      7         11           0        1.252433    2.625477   -0.705118
 ---------------------------------------------------------------------

 SCF Done:  E(UB3LYP) =  -1136.12540847     A.U. after   22 cycles

 The electronic state is 2-A.
 Alpha  occ. eigenvalues --  -38.44618 -38.44580 -38.44285 -38.44269 -38.43765
 Alpha  occ. eigenvalues --  -38.43435 -38.43337  -2.20451  -2.20351  -2.20187
 Alpha  occ. eigenvalues --   -2.20059  -2.19609  -2.19222  -2.19135  -1.14127
 Alpha  occ. eigenvalues --   -1.14082  -1.14073  -1.14038  -1.13999  -1.13978
 Alpha  occ. eigenvalues --   -1.13905  -1.13833  -1.13808  -1.13732  -1.13697
 Alpha  occ. eigenvalues --   -1.13690  -1.13307  -1.13241  -1.13217  -1.12917
 Alpha  occ. eigenvalues --   -1.12882  -1.12852  -1.12832  -1.12799  -1.12755
 Alpha  occ. eigenvalues --   -0.17779  -0.12720  -0.12133  -0.11652
 Alpha virt. eigenvalues --   -0.05774  -0.04941  -0.04622  -0.03512  -0.03503
 Alpha virt. eigenvalues --   -0.03309  -0.01494  -0.00798  -0.00597  -0.00094
 Alpha virt. eigenvalues --    0.00155   0.00374   0.00470   0.00578   0.00824

  Beta  occ. eigenvalues --  -38.44569 -38.44543 -38.44222 -38.44222 -38.43755
  Beta  occ. eigenvalues --  -38.43434 -38.43331  -2.20333  -2.20313  -2.20072
  Beta  occ. eigenvalues --   -2.19973  -2.19593  -2.19223  -2.19128  -1.14032
  Beta  occ. eigenvalues --   -1.14020  -1.13999  -1.13979  -1.13968  -1.13957
  Beta  occ. eigenvalues --   -1.13822  -1.13755  -1.13732  -1.13664  -1.13640
  Beta  occ. eigenvalues --   -1.13632  -1.13278  -1.13230  -1.13208  -1.12911
  Beta  occ. eigenvalues --   -1.12884  -1.12846  -1.12818  -1.12790  -1.12750
  Beta  occ. eigenvalues --   -0.17007  -0.12492  -0.11411
  Beta virt. eigenvalues --   -0.08240  -0.05677  -0.04476  -0.04329  -0.03228
  Beta virt. eigenvalues --   -0.02797  -0.02553  -0.01381  -0.00704  -0.00398
  Beta virt. eigenvalues --    0.00029   0.00187   0.00423   0.00538   0.00758

 Mulliken charges and spin densities:
               1          2
     1  Na  -0.074238   0.314063
     2  Na   0.197758  -0.057014
     3  Na  -0.256714   0.145165
     4  Na   0.445593   0.089045
     5  Na  -0.325650  -0.114135
     6  Na   0.213363   0.574286
     7  Na  -0.200113   0.048591
 Sum of Mulliken charges =  -0.00000   1.00000

 Dipole moment (field-independent basis, Debye):
    X=              0.3602    Y=             -0.0537    Z=              0.1218  Tot=              0.3840
 Quadrupole moment (field-independent basis, Debye-Ang):
   XX=            -59.5153   YY=            -71.0646   ZZ=            -66.3614
   XY=             -0.4920   XZ=             -2.3611   YZ=              1.9271

 Normal termination of Gaussian 16 at Mon Dec  4 02:50:19 2023.
