 Gaussian 16, Revision B.01,
 Gaussian 16:  ES64L-G16RevB.01 20-Dec-2017

 -------------------------
 #P B3LYP/6-311+g(d) force
 -------------------------

 -----
 DPGEN
 -----
 Symbolic Z-matrix:
 Charge =  0 Multiplicity = 2

                         Standard orientation:
 ---------------------------------------------------------------------
 Center     Atomic      Atomic             Coordinates (Angstroms)
 Number     Number       Type             X           Y           Z
 ---------------------------------------------------------------------
      1         11           0        1.354282   -1.733861    1.539607
      2         11           0       -2.170878   -0.624318    1.668022
      3         11           0        4.071966   -0.515118   -1.145301
      4         11           0       -3.748829   -0.709847   -1.411257
      5         11           0        1.934359    1.829753    0.485044
      6         11           0       -0.127656   -0.681096   -1.283049
      7         11           0       -1.313245    2.434488    0.146934
 ---------------------------------------------------------------------

 SCF Done:  E(UB3LYP) =  -1136.12265199     A.U. after   24 cycles

 The electronic state is 2-A.
 Alpha  occ. eigenvalues --  -38.45036 -38.44947 -38.44694 -38.44333 -38.44033
 Alpha  occ. eigenvalues --  -38.43072 -38.42229  -2.20881  -2.20722  -2.20537
 Alpha  occ. eigenvalues --   -2.20143  -2.19868  -2.18916  -2.18077  -1.14611
 Alpha  occ. eigenvalues --   -1.14543  -1.14491  -1.14389  -1.14379  -1.14330
 Alpha  occ. eigenvalues --   -1.14210  -1.14186  -1.14179  -1.13807  -1.13783
 Alpha  occ. eigenvalues --   -1.13762  -1.13555  -1.13528  -1.13462  -1.12607
 Alpha  occ. eigenvalues --   -1.12602  -1.12535  -1.11756  -1.11750  -1.11703
 Alpha  occ. eigenvalues --   -0.17965  -0.13956  -0.11334  -0.10824
 Alpha virt. eigenvalues --   -0.06899  -0.05515  -0.04599  -0.03203  -0.02804
 Alpha virt. eigenvalues --   -0.02364  -0.02221  -0.01528  -0.00801  -0.00333
 Alpha virt. eigenvalues --   -0.00016   0.00201   0.00226   0.00422   0.00660

  Beta  occ. eigenvalues --  -38.45028 -38.44905 -38.44665 -38.44282 -38.43975
  Beta  occ. eigenvalues --  -38.43073 -38.42228  -2.20870  -2.20643  -2.20486
  Beta  occ. eigenvalues --   -2.20047  -2.19764  -2.18921  -2.18076  -1.14577
  Beta  occ. eigenvalues --   -1.14539  -1.14486  -1.14335  -1.14321  -1.14281
  Beta  occ. eigenvalues --   -1.14175  -1.14151  -1.14118  -1.13738  -1.13716
  Beta  occ. eigenvalues --   -1.13701  -1.13488  -1.13456  -1.13372  -1.12608
  Beta  occ. eigenvalues --   -1.12597  -1.12535  -1.11752  -1.11746  -1.11703
  Beta  occ. eigenvalues --   -0.17363  -0.13560  -0.10714
  Beta virt. eigenvalues --   -0.07595  -0.06613  -0.05024  -0.04383  -0.02960
  Beta virt. eigenvalues --   -0.02557  -0.01828  -0.01716  -0.01159  -0.00628
  Beta virt. eigenvalues --   -0.00180   0.00081   0.00300   0.00335   0.00588

 Mulliken charges and spin densities:
               1          2
     1  Na   0.091311   0.255097
     2  Na   0.191685   0.094164
     3  Na   0.654185   0.226957
     4  Na   0.623480   0.202234
     5  Na  -0.305134   0.056953
     6  Na  -1.076882   0.093130
     7  Na  -0.178645   0.071466
 Sum of Mulliken charges =  -0.00000   1.00000

 Dipole moment (field-independent basis, Debye):
    X=              0.1678    Y=             -0.5861    Z=             -0.0834  Tot=              0.6153
 Quadrupole moment (field-independent basis, Debye-Ang):
   XX=            -49.9843   YY=            -80.3427   ZZ=            -65.0305
   XY=             -1.4691   XZ=             -2.0641   YZ=             -0.4470

 Normal termination of Gaussian 16 at Thu Dec  7 11:30:24 2023.
