 Gaussian 16, Revision B.01,
 Gaussian 16:  ES64L-G16RevB.01 20-Dec-2017

 -------------------------
 #P B3LYP/6-311+g(d) force
 -------------------------

 -----
 DPGEN
 -----
 Symbolic Z-matrix:
 Charge =  0 Multiplicity = 2

                         Standard orientation:
 ---------------------------------------------------------------------
 Center     Atomic      Atomic             Coordinates (Angstroms)
 Number     Number       Type             X           Y           Z
 ---------------------------------------------------------------------
      1         11           0       -2.025206    1.161386    0.519040
      2         11           0        1.197711   -1.403483    2.024077
      3         11           0       -4.129260   -1.166838   -0.277754
      4         11           0       -0.652608   -2.524909   -0.839967
      5         11           0       -0.280452    3.853870    0.199838
      6         11           0        1.702374    0.678855   -1.526492
      7         11           0        4.187441   -0.598881   -0.098742
 ---------------------------------------------------------------------

 SCF Done:  E(UB3LYP) =  -1136.11477080     A.U. after   21 cycles

 The electronic state is 2-A.
 Alpha  occ. eigenvalues --  -38.45267 -38.44737 -38.44685 -38.44357 -38.44141
 Alpha  occ. eigenvalues --  -38.43367 -38.43071  -2.21020  -2.20550  -2.20499
 Alpha  occ. eigenvalues --   -2.20169  -2.19951  -2.19216  -2.18864  -1.14726
 Alpha  occ. eigenvalues --   -1.14695  -1.14631  -1.14287  -1.14205  -1.14182
 Alpha  occ. eigenvalues --   -1.14169  -1.14141  -1.14078  -1.13817  -1.13810
 Alpha  occ. eigenvalues --   -1.13782  -1.13635  -1.13600  -1.13558  -1.12906
 Alpha  occ. eigenvalues --   -1.12900  -1.12854  -1.12524  -1.12522  -1.12498
 Alpha  occ. eigenvalues --   -0.16948  -0.13656  -0.12058  -0.10479
 Alpha virt. eigenvalues --   -0.07388  -0.05184  -0.04371  -0.03458  -0.03233
 Alpha virt. eigenvalues --   -0.02618  -0.02008  -0.01237  -0.00943  -0.00647
 Alpha virt. eigenvalues --   -0.00395  -0.00173   0.00117   0.00503   0.00671

  Beta  occ. eigenvalues --  -38.45274 -38.44705 -38.44650 -38.44266 -38.44098
  Beta  occ. eigenvalues --  -38.43360 -38.43067  -2.21037  -2.20494  -2.20437
  Beta  occ. eigenvalues --   -2.20001  -2.19869  -2.19207  -2.18855  -1.14739
  Beta  occ. eigenvalues --   -1.14694  -1.14637  -1.14238  -1.14166  -1.14138
  Beta  occ. eigenvalues --   -1.14124  -1.14097  -1.14025  -1.13700  -1.13692
  Beta  occ. eigenvalues --   -1.13672  -1.13578  -1.13542  -1.13506  -1.12899
  Beta  occ. eigenvalues --   -1.12884  -1.12842  -1.12517  -1.12515  -1.12493
  Beta  occ. eigenvalues --   -0.16467  -0.13069  -0.11792
  Beta virt. eigenvalues --   -0.07252  -0.06913  -0.05075  -0.04080  -0.03006
  Beta virt. eigenvalues --   -0.02856  -0.02234  -0.01647  -0.01169  -0.00715
  Beta virt. eigenvalues --   -0.00362  -0.00145  -0.00061   0.00263   0.00566

 Mulliken charges and spin densities:
               1          2
     1  Na  -0.976639   0.148080
     2  Na   0.045924   0.432883
     3  Na   0.533637   0.122625
     4  Na  -0.086113  -0.035556
     5  Na   0.388135  -0.032807
     6  Na   0.087611   0.309502
     7  Na   0.007445   0.055274
 Sum of Mulliken charges =  -0.00000   1.00000

 Dipole moment (field-independent basis, Debye):
    X=              0.8137    Y=             -1.1114    Z=              0.0884  Tot=              1.3803
 Quadrupole moment (field-independent basis, Debye-Ang):
   XX=            -60.5086   YY=            -69.3286   ZZ=            -68.9781
   XY=              0.1395   XZ=              2.7715   YZ=              2.4794

 Normal termination of Gaussian 16 at Mon Dec  4 03:15:20 2023.
