 Gaussian 16, Revision B.01,
 Gaussian 16:  ES64L-G16RevB.01 20-Dec-2017

 -------------------------
 #P B3LYP/6-311+g(d) force
 -------------------------

 -----
 DPGEN
 -----
 Symbolic Z-matrix:
 Charge =  0 Multiplicity = 2

                         Standard orientation:
 ---------------------------------------------------------------------
 Center     Atomic      Atomic             Coordinates (Angstroms)
 Number     Number       Type             X           Y           Z
 ---------------------------------------------------------------------
      1         11           0       -3.160724   -1.685741   -0.205206
      2         11           0       -2.804945    1.538019   -0.873217
      3         11           0        0.382106    3.430188    0.626315
      4         11           0        0.404049   -0.113266    2.171969
      5         11           0        1.540950    0.557251   -1.462297
      6         11           0       -0.363974   -2.697240    0.213120
      7         11           0        4.002538   -1.029211   -0.470684
 ---------------------------------------------------------------------

 SCF Done:  E(UB3LYP) =  -1136.11891224     A.U. after   19 cycles

 The electronic state is 2-A.
 Alpha  occ. eigenvalues --  -38.44765 -38.44350 -38.44308 -38.44192 -38.43940
 Alpha  occ. eigenvalues --  -38.43884 -38.43778  -2.20585  -2.20152  -2.20088
 Alpha  occ. eigenvalues --   -2.20030  -2.19795  -2.19652  -2.19629  -1.14251
 Alpha  occ. eigenvalues --   -1.14218  -1.14199  -1.13879  -1.13799  -1.13779
 Alpha  occ. eigenvalues --   -1.13767  -1.13759  -1.13703  -1.13701  -1.13685
 Alpha  occ. eigenvalues --   -1.13621  -1.13539  -1.13464  -1.13438  -1.13324
 Alpha  occ. eigenvalues --   -1.13309  -1.13288  -1.13277  -1.13273  -1.13237
 Alpha  occ. eigenvalues --   -0.17224  -0.13345  -0.12219  -0.11010
 Alpha virt. eigenvalues --   -0.06295  -0.05517  -0.04728  -0.03292  -0.03017
 Alpha virt. eigenvalues --   -0.02512  -0.02091  -0.01368  -0.00922  -0.00460
 Alpha virt. eigenvalues --   -0.00226   0.00141   0.00532   0.00687   0.00754

  Beta  occ. eigenvalues --  -38.44672 -38.44318 -38.44272 -38.44170 -38.43929
  Beta  occ. eigenvalues --  -38.43875 -38.43770  -2.20413  -2.20094  -2.20022
  Beta  occ. eigenvalues --   -2.19991  -2.19777  -2.19635  -2.19616  -1.14135
  Beta  occ. eigenvalues --   -1.14107  -1.14067  -1.13837  -1.13759  -1.13739
  Beta  occ. eigenvalues --   -1.13724  -1.13714  -1.13675  -1.13655  -1.13651
  Beta  occ. eigenvalues --   -1.13585  -1.13536  -1.13438  -1.13420  -1.13311
  Beta  occ. eigenvalues --   -1.13290  -1.13279  -1.13271  -1.13259  -1.13220
  Beta  occ. eigenvalues --   -0.16646  -0.12830  -0.11978
  Beta virt. eigenvalues --   -0.07501  -0.05885  -0.05312  -0.04585  -0.02774
  Beta virt. eigenvalues --   -0.02556  -0.02032  -0.01717  -0.01240  -0.00816
  Beta virt. eigenvalues --   -0.00375  -0.00019   0.00263   0.00657   0.00740

 Mulliken charges and spin densities:
               1          2
     1  Na  -0.018321  -0.036424
     2  Na  -0.164899   0.233954
     3  Na  -0.023795  -0.023987
     4  Na   0.177340   0.395889
     5  Na  -0.019682   0.244059
     6  Na  -0.018693   0.128641
     7  Na   0.068049   0.057867
 Sum of Mulliken charges =  -0.00000   1.00000

 Dipole moment (field-independent basis, Debye):
    X=              0.5752    Y=             -0.0101    Z=              0.4731  Tot=              0.7449
 Quadrupole moment (field-independent basis, Debye-Ang):
   XX=            -62.6439   YY=            -65.1615   ZZ=            -70.7376
   XY=             -0.8863   XZ=              2.7322   YZ=              0.5586

 Normal termination of Gaussian 16 at Sun Dec  3 13:10:48 2023.
