 Gaussian 16, Revision B.01,
 Gaussian 16:  ES64L-G16RevB.01 20-Dec-2017

 -------------------------
 #P B3LYP/6-311+g(d) force
 -------------------------

 -----
 DPGEN
 -----
 Symbolic Z-matrix:
 Charge =  0 Multiplicity = 2

                         Standard orientation:
 ---------------------------------------------------------------------
 Center     Atomic      Atomic             Coordinates (Angstroms)
 Number     Number       Type             X           Y           Z
 ---------------------------------------------------------------------
      1         11           0        1.567924   -1.760445   -0.679286
      2         11           0        4.906252   -0.341226   -0.718716
      3         11           0        2.618888    1.871226    0.013277
      4         11           0       -0.866537    2.090793    0.476723
      5         11           0       -2.065290   -0.646325   -1.225448
      6         11           0       -0.152506   -1.243801    2.605437
      7         11           0       -6.008730    0.029778   -0.471986
 ---------------------------------------------------------------------

 SCF Done:  E(UB3LYP) =  -1136.10416593     A.U. after   30 cycles

 The electronic state is 2-A.
 Alpha  occ. eigenvalues --  -38.45201 -38.45100 -38.44886 -38.44566 -38.44454
 Alpha  occ. eigenvalues --  -38.44112 -38.43724  -2.21020  -2.20908  -2.20627
 Alpha  occ. eigenvalues --   -2.20401  -2.20226  -2.19820  -2.19533  -1.14696
 Alpha  occ. eigenvalues --   -1.14653  -1.14635  -1.14603  -1.14566  -1.14500
 Alpha  occ. eigenvalues --   -1.14309  -1.14296  -1.14253  -1.14083  -1.14057
 Alpha  occ. eigenvalues --   -1.14021  -1.13929  -1.13902  -1.13822  -1.13501
 Alpha  occ. eigenvalues --   -1.13497  -1.13446  -1.13200  -1.13194  -1.13170
 Alpha  occ. eigenvalues --   -0.17295  -0.13275  -0.12143  -0.10789
 Alpha virt. eigenvalues --   -0.07543  -0.05512  -0.05063  -0.03489  -0.02968
 Alpha virt. eigenvalues --   -0.02658  -0.02307  -0.01787  -0.01496  -0.00813
 Alpha virt. eigenvalues --   -0.00422   0.00008   0.00228   0.00352   0.00424

  Beta  occ. eigenvalues --  -38.45123 -38.45043 -38.44883 -38.44515 -38.44440
  Beta  occ. eigenvalues --  -38.44117 -38.43721  -2.20877  -2.20803  -2.20623
  Beta  occ. eigenvalues --   -2.20310  -2.20201  -2.19830  -2.19528  -1.14601
  Beta  occ. eigenvalues --   -1.14545  -1.14531  -1.14530  -1.14497  -1.14417
  Beta  occ. eigenvalues --   -1.14307  -1.14281  -1.14252  -1.14024  -1.14001
  Beta  occ. eigenvalues --   -1.13932  -1.13906  -1.13888  -1.13802  -1.13508
  Beta  occ. eigenvalues --   -1.13504  -1.13453  -1.13195  -1.13188  -1.13166
  Beta  occ. eigenvalues --   -0.16452  -0.13179  -0.10738
  Beta virt. eigenvalues --   -0.08082  -0.07362  -0.05193  -0.04439  -0.02948
  Beta virt. eigenvalues --   -0.02761  -0.02343  -0.01901  -0.01666  -0.01171
  Beta virt. eigenvalues --   -0.00777  -0.00286   0.00178   0.00412   0.00438

 Mulliken charges and spin densities:
               1          2
     1  Na  -0.583050   0.445642
     2  Na   0.623560  -0.025939
     3  Na  -0.182429   0.056815
     4  Na  -0.110785   0.582482
     5  Na  -0.020525  -0.000237
     6  Na   0.132856  -0.021852
     7  Na   0.140373  -0.036912
 Sum of Mulliken charges =  -0.00000   1.00000

 Dipole moment (field-independent basis, Debye):
    X=              1.5353    Y=             -0.2644    Z=              1.2262  Tot=              1.9826
 Quadrupole moment (field-independent basis, Debye-Ang):
   XX=            -70.5987   YY=            -68.4312   ZZ=            -68.5909
   XY=             -2.8708   XZ=             -5.1004   YZ=              2.1302

 Normal termination of Gaussian 16 at Tue Nov 28 19:34:08 2023.
