 Gaussian 16, Revision B.01,
 Gaussian 16:  ES64L-G16RevB.01 20-Dec-2017

 -------------------------
 #P B3LYP/6-311+g(d) force
 -------------------------

 -----
 DPGEN
 -----
 Symbolic Z-matrix:
 Charge =  0 Multiplicity = 2

                         Standard orientation:
 ---------------------------------------------------------------------
 Center     Atomic      Atomic             Coordinates (Angstroms)
 Number     Number       Type             X           Y           Z
 ---------------------------------------------------------------------
      1         11           0       -2.254385    1.448829    0.001427
      2         11           0        0.959195    1.127365    0.892127
      3         11           0        2.034061   -2.888047    0.414940
      4         11           0       -1.259613   -1.880501   -0.879951
      5         11           0       -4.543956   -1.161835    0.248868
      6         11           0        4.603485   -0.274174   -0.328718
      7         11           0        0.461213    3.628363   -0.348694
 ---------------------------------------------------------------------

 SCF Done:  E(UB3LYP) =  -1136.12173069     A.U. after   19 cycles

 The electronic state is 2-A.
 Alpha  occ. eigenvalues --  -38.44552 -38.44542 -38.44312 -38.43884 -38.43837
 Alpha  occ. eigenvalues --  -38.43746 -38.43664  -2.20453  -2.20399  -2.20175
 Alpha  occ. eigenvalues --   -2.19704  -2.19606  -2.19563  -2.19453  -1.14349
 Alpha  occ. eigenvalues --   -1.14132  -1.14102  -1.14031  -1.14023  -1.13911
 Alpha  occ. eigenvalues --   -1.13887  -1.13881  -1.13746  -1.13402  -1.13384
 Alpha  occ. eigenvalues --   -1.13310  -1.13294  -1.13258  -1.13244  -1.13220
 Alpha  occ. eigenvalues --   -1.13216  -1.13171  -1.13104  -1.13096  -1.13057
 Alpha  occ. eigenvalues --   -0.17066  -0.13479  -0.13119  -0.10164
 Alpha virt. eigenvalues --   -0.05855  -0.05624  -0.05415  -0.03402  -0.02485
 Alpha virt. eigenvalues --   -0.02298  -0.02124  -0.01418  -0.01340  -0.00559
 Alpha virt. eigenvalues --   -0.00257  -0.00199   0.00469   0.00558   0.00610

  Beta  occ. eigenvalues --  -38.44549 -38.44547 -38.44308 -38.43850 -38.43828
  Beta  occ. eigenvalues --  -38.43697 -38.43570  -2.20451  -2.20406  -2.20169
  Beta  occ. eigenvalues --   -2.19644  -2.19593  -2.19470  -2.19277  -1.14353
  Beta  occ. eigenvalues --   -1.14117  -1.14098  -1.14036  -1.14027  -1.13914
  Beta  occ. eigenvalues --   -1.13885  -1.13873  -1.13731  -1.13363  -1.13345
  Beta  occ. eigenvalues --   -1.13291  -1.13260  -1.13240  -1.13202  -1.13154
  Beta  occ. eigenvalues --   -1.13149  -1.13114  -1.12983  -1.12974  -1.12944
  Beta  occ. eigenvalues --   -0.16781  -0.13001  -0.12595
  Beta virt. eigenvalues --   -0.06661  -0.05717  -0.05587  -0.04971  -0.02917
  Beta virt. eigenvalues --   -0.02255  -0.02171  -0.01725  -0.01378  -0.00988
  Beta virt. eigenvalues --   -0.00302   0.00054   0.00136   0.00576   0.00661

 Mulliken charges and spin densities:
               1          2
     1  Na  -0.730767   0.092167
     2  Na  -0.502466  -0.035350
     3  Na   0.247697   0.022097
     4  Na  -0.293335   0.149776
     5  Na   0.562758   0.257148
     6  Na   0.017086   0.526790
     7  Na   0.699026  -0.012629
 Sum of Mulliken charges =  -0.00000   1.00000

 Dipole moment (field-independent basis, Debye):
    X=             -0.9808    Y=              0.9974    Z=             -0.2073  Tot=              1.4141
 Quadrupole moment (field-independent basis, Debye-Ang):
   XX=            -72.9761   YY=            -58.7003   ZZ=            -69.3538
   XY=              1.8803   XZ=             -1.1971   YZ=             -3.0830

 Normal termination of Gaussian 16 at Tue Nov 28 20:17:47 2023.
