 Gaussian 16, Revision B.01,
 Gaussian 16:  ES64L-G16RevB.01 20-Dec-2017

 -------------------------
 #P B3LYP/6-311+g(d) force
 -------------------------

 -----
 DPGEN
 -----
 Symbolic Z-matrix:
 Charge =  0 Multiplicity = 2

                         Standard orientation:
 ---------------------------------------------------------------------
 Center     Atomic      Atomic             Coordinates (Angstroms)
 Number     Number       Type             X           Y           Z
 ---------------------------------------------------------------------
      1         11           0       -0.318133   -1.387317    0.979791
      2         11           0       -0.413112   -1.050134   -1.764755
      3         11           0        1.869851    2.069506   -0.804317
      4         11           0        2.010551    0.810622    2.109510
      5         11           0        3.043567   -1.673567   -0.528031
      6         11           0       -4.258141   -0.473512    0.659538
      7         11           0       -1.934583    1.704403   -0.651736
 ---------------------------------------------------------------------

 SCF Done:  E(UB3LYP) =  -1136.11513881     A.U. after   26 cycles

 The electronic state is 2-A.
 Alpha  occ. eigenvalues --  -38.45437 -38.44691 -38.44132 -38.43953 -38.43812
 Alpha  occ. eigenvalues --  -38.43698 -38.43095  -2.21202  -2.20474  -2.20054
 Alpha  occ. eigenvalues --   -2.19883  -2.19680  -2.19534  -2.18925  -1.14866
 Alpha  occ. eigenvalues --   -1.14863  -1.14815  -1.14159  -1.14126  -1.14104
 Alpha  occ. eigenvalues --   -1.14026  -1.13717  -1.13606  -1.13519  -1.13474
 Alpha  occ. eigenvalues --   -1.13443  -1.13348  -1.13328  -1.13291  -1.13231
 Alpha  occ. eigenvalues --   -1.13207  -1.13140  -1.12600  -1.12584  -1.12571
 Alpha  occ. eigenvalues --   -0.18197  -0.13764  -0.11262  -0.10975
 Alpha virt. eigenvalues --   -0.07193  -0.05070  -0.04309  -0.03063  -0.02998
 Alpha virt. eigenvalues --   -0.02640  -0.02308  -0.01350  -0.00713  -0.00123
 Alpha virt. eigenvalues --    0.00051   0.00143   0.00242   0.00610   0.00818

  Beta  occ. eigenvalues --  -38.45406 -38.44688 -38.44115 -38.43899 -38.43753
  Beta  occ. eigenvalues --  -38.43681 -38.43090  -2.21144  -2.20470  -2.20025
  Beta  occ. eigenvalues --   -2.19786  -2.19568  -2.19506  -2.18919  -1.14825
  Beta  occ. eigenvalues --   -1.14822  -1.14778  -1.14149  -1.14118  -1.14102
  Beta  occ. eigenvalues --   -1.13977  -1.13693  -1.13587  -1.13453  -1.13398
  Beta  occ. eigenvalues --   -1.13378  -1.13271  -1.13260  -1.13211  -1.13203
  Beta  occ. eigenvalues --   -1.13183  -1.13110  -1.12595  -1.12578  -1.12550
  Beta  occ. eigenvalues --   -0.17491  -0.13475  -0.10816
  Beta virt. eigenvalues --   -0.07572  -0.06812  -0.04905  -0.03745  -0.02932
  Beta virt. eigenvalues --   -0.02677  -0.02167  -0.01653  -0.01178  -0.00371
  Beta virt. eigenvalues --   -0.00048   0.00096   0.00217   0.00379   0.00681

 Mulliken charges and spin densities:
               1          2
     1  Na  -0.261027   0.234638
     2  Na   0.067455   0.575155
     3  Na  -0.156520  -0.104297
     4  Na   0.065540   0.220773
     5  Na   0.240436   0.003959
     6  Na   0.246696   0.059314
     7  Na  -0.202580   0.010459
 Sum of Mulliken charges =  -0.00000   1.00000

 Dipole moment (field-independent basis, Debye):
    X=             -0.6390    Y=             -0.6224    Z=              0.0090  Tot=              0.8920
 Quadrupole moment (field-independent basis, Debye-Ang):
   XX=            -46.8066   YY=            -78.4705   ZZ=            -67.7460
   XY=             -1.3583   XZ=             -3.3773   YZ=             -1.8525

 Normal termination of Gaussian 16 at Tue Dec  5 16:50:08 2023.
