 Gaussian 16, Revision B.01,
 Gaussian 16:  ES64L-G16RevB.01 20-Dec-2017

 -------------------------
 #P B3LYP/6-311+g(d) force
 -------------------------

 -----
 DPGEN
 -----
 Symbolic Z-matrix:
 Charge =  0 Multiplicity = 2

                         Standard orientation:
 ---------------------------------------------------------------------
 Center     Atomic      Atomic             Coordinates (Angstroms)
 Number     Number       Type             X           Y           Z
 ---------------------------------------------------------------------
      1         11           0       -0.068579   -0.211476   -1.672104
      2         11           0       -2.881227   -1.245824   -0.368059
      3         11           0       -2.191543    1.922489    0.281918
      4         11           0        2.941329    0.091357   -0.271197
      5         11           0        1.137285    2.825734   -0.060591
      6         11           0        0.105466   -0.428026    1.985705
      7         11           0        0.957269   -2.954254    0.104327
 ---------------------------------------------------------------------

 SCF Done:  E(UB3LYP) =  -1136.13896501     A.U. after   19 cycles

 The electronic state is 2-A.
 Alpha  occ. eigenvalues --  -38.43891 -38.43779 -38.43689 -38.43561 -38.43553
 Alpha  occ. eigenvalues --  -38.43307 -38.43220  -2.19733  -2.19647  -2.19533
 Alpha  occ. eigenvalues --   -2.19454  -2.19417  -2.19190  -2.19151  -1.13426
 Alpha  occ. eigenvalues --   -1.13393  -1.13367  -1.13341  -1.13317  -1.13279
 Alpha  occ. eigenvalues --   -1.13239  -1.13200  -1.13160  -1.13119  -1.13089
 Alpha  occ. eigenvalues --   -1.13086  -1.13075  -1.13057  -1.13056  -1.12869
 Alpha  occ. eigenvalues --   -1.12832  -1.12819  -1.12812  -1.12801  -1.12797
 Alpha  occ. eigenvalues --   -0.18680  -0.13034  -0.12565  -0.10765
 Alpha virt. eigenvalues --   -0.05527  -0.05075  -0.04893  -0.03186  -0.02934
 Alpha virt. eigenvalues --   -0.02545  -0.01404  -0.01236  -0.00379  -0.00275
 Alpha virt. eigenvalues --   -0.00005   0.00360   0.00850   0.00861   0.00893

  Beta  occ. eigenvalues --  -38.43881 -38.43770 -38.43683 -38.43555 -38.43463
  Beta  occ. eigenvalues --  -38.43307 -38.43153  -2.19718  -2.19634  -2.19526
  Beta  occ. eigenvalues --   -2.19409  -2.19289  -2.19153  -2.19068  -1.13409
  Beta  occ. eigenvalues --   -1.13374  -1.13355  -1.13329  -1.13293  -1.13267
  Beta  occ. eigenvalues --   -1.13218  -1.13175  -1.13159  -1.13087  -1.13065
  Beta  occ. eigenvalues --   -1.13045  -1.13006  -1.12963  -1.12946  -1.12819
  Beta  occ. eigenvalues --   -1.12815  -1.12787  -1.12782  -1.12730  -1.12724
  Beta  occ. eigenvalues --   -0.17964  -0.12784  -0.12319
  Beta virt. eigenvalues --   -0.06877  -0.05508  -0.04996  -0.04862  -0.02404
  Beta virt. eigenvalues --   -0.02189  -0.01504  -0.01307  -0.01156  -0.00424
  Beta virt. eigenvalues --   -0.00312   0.00132   0.00390   0.00850   0.00882

 Mulliken charges and spin densities:
               1          2
     1  Na  -0.225516   0.486396
     2  Na   0.212356  -0.058231
     3  Na   0.053401   0.027852
     4  Na   0.246908  -0.016454
     5  Na  -0.091712  -0.039959
     6  Na  -0.429021   0.705733
     7  Na   0.233583  -0.105337
 Sum of Mulliken charges =  -0.00000   1.00000

 Dipole moment (field-independent basis, Debye):
    X=             -0.0547    Y=             -0.3184    Z=              0.0857  Tot=              0.3343
 Quadrupole moment (field-independent basis, Debye-Ang):
   XX=            -58.9060   YY=            -60.5718   ZZ=            -74.3650
   XY=              0.0259   XZ=             -0.4417   YZ=              0.7968

 Normal termination of Gaussian 16 at Fri Dec  8 04:56:45 2023.
