 Gaussian 16, Revision B.01,
 Gaussian 16:  ES64L-G16RevB.01 20-Dec-2017

 -------------------------
 #P B3LYP/6-311+g(d) force
 -------------------------

 -----
 DPGEN
 -----
 Symbolic Z-matrix:
 Charge =  0 Multiplicity = 2

                         Standard orientation:
 ---------------------------------------------------------------------
 Center     Atomic      Atomic             Coordinates (Angstroms)
 Number     Number       Type             X           Y           Z
 ---------------------------------------------------------------------
      1         11           0        0.090878   -0.008132   -1.676615
      2         11           0       -0.941936   -2.544037    0.483859
      3         11           0       -0.323349    0.375389    2.419830
      4         11           0       -0.350903    2.912604   -0.170660
      5         11           0        2.236018   -2.076769   -0.386182
      6         11           0       -3.243992    0.000944   -0.673690
      7         11           0        2.533284    1.339999    0.003459
 ---------------------------------------------------------------------

 SCF Done:  E(UB3LYP) =  -1136.13630316     A.U. after   19 cycles

 The electronic state is 2-A.
 Alpha  occ. eigenvalues --  -38.44455 -38.43888 -38.43534 -38.43528 -38.43439
 Alpha  occ. eigenvalues --  -38.43402 -38.43186  -2.20289  -2.19682  -2.19407
 Alpha  occ. eigenvalues --   -2.19390  -2.19387  -2.19298  -2.19052  -1.13937
 Alpha  occ. eigenvalues --   -1.13915  -1.13908  -1.13362  -1.13327  -1.13324
 Alpha  occ. eigenvalues --   -1.13168  -1.13102  -1.13078  -1.13071  -1.13060
 Alpha  occ. eigenvalues --   -1.13041  -1.13008  -1.12998  -1.12982  -1.12979
 Alpha  occ. eigenvalues --   -1.12959  -1.12929  -1.12724  -1.12700  -1.12686
 Alpha  occ. eigenvalues --   -0.18512  -0.12703  -0.12481  -0.11419
 Alpha virt. eigenvalues --   -0.05363  -0.04833  -0.04759  -0.03389  -0.03289
 Alpha virt. eigenvalues --   -0.02966  -0.01324  -0.01020  -0.00235  -0.00108
 Alpha virt. eigenvalues --   -0.00007   0.00363   0.00812   0.00881   0.00916

  Beta  occ. eigenvalues --  -38.44346 -38.43875 -38.43531 -38.43524 -38.43429
  Beta  occ. eigenvalues --  -38.43347 -38.43184  -2.20088  -2.19659  -2.19403
  Beta  occ. eigenvalues --   -2.19385  -2.19290  -2.19283  -2.19050  -1.13801
  Beta  occ. eigenvalues --   -1.13778  -1.13763  -1.13334  -1.13311  -1.13311
  Beta  occ. eigenvalues --   -1.13152  -1.13083  -1.13058  -1.13049  -1.13029
  Beta  occ. eigenvalues --   -1.13015  -1.12983  -1.12969  -1.12949  -1.12934
  Beta  occ. eigenvalues --   -1.12929  -1.12913  -1.12713  -1.12696  -1.12683
  Beta  occ. eigenvalues --   -0.17793  -0.12501  -0.12236
  Beta virt. eigenvalues --   -0.07429  -0.05326  -0.04735  -0.04661  -0.02577
  Beta virt. eigenvalues --   -0.02508  -0.02043  -0.01226  -0.00965  -0.00172
  Beta virt. eigenvalues --   -0.00127   0.00092   0.00398   0.00877   0.00897

 Mulliken charges and spin densities:
               1          2
     1  Na  -0.108358   0.202163
     2  Na   0.050684   0.174479
     3  Na  -0.497797   0.537324
     4  Na   0.136058  -0.010724
     5  Na   0.169503  -0.003155
     6  Na   0.080497  -0.002536
     7  Na   0.169415   0.102450
 Sum of Mulliken charges =  -0.00000   1.00000

 Dipole moment (field-independent basis, Debye):
    X=             -0.1957    Y=              0.2376    Z=              0.2906  Tot=              0.4234
 Quadrupole moment (field-independent basis, Debye-Ang):
   XX=            -60.7827   YY=            -63.9513   ZZ=            -70.6430
   XY=             -0.6297   XZ=              0.9767   YZ=             -0.5020

 Normal termination of Gaussian 16 at Tue Dec  5 21:19:07 2023.
