 Gaussian 16, Revision B.01,
 Gaussian 16:  ES64L-G16RevB.01 20-Dec-2017

 -------------------------
 #P B3LYP/6-311+g(d) force
 -------------------------

 -----
 DPGEN
 -----
 Symbolic Z-matrix:
 Charge =  0 Multiplicity = 2

                         Standard orientation:
 ---------------------------------------------------------------------
 Center     Atomic      Atomic             Coordinates (Angstroms)
 Number     Number       Type             X           Y           Z
 ---------------------------------------------------------------------
      1         11           0        3.604598    1.485057   -0.098790
      2         11           0       -1.086691   -2.523253    0.612034
      3         11           0        2.473451   -1.621268   -0.232544
      4         11           0        0.244360    0.667870    1.755819
      5         11           0        0.400472   -0.220634   -1.482522
      6         11           0       -3.514751   -0.382800   -0.420406
      7         11           0       -2.121438    2.595028   -0.133593
 ---------------------------------------------------------------------

 SCF Done:  E(UB3LYP) =  -1136.12050529     A.U. after   23 cycles

 The electronic state is 2-A.
 Alpha  occ. eigenvalues --  -38.44939 -38.44659 -38.44657 -38.44232 -38.43485
 Alpha  occ. eigenvalues --  -38.43210 -38.42805  -2.20724  -2.20604  -2.20480
 Alpha  occ. eigenvalues --   -2.20158  -2.19292  -2.19104  -2.18661  -1.14448
 Alpha  occ. eigenvalues --   -1.14405  -1.14381  -1.14358  -1.14282  -1.14183
 Alpha  occ. eigenvalues --   -1.14149  -1.14127  -1.14122  -1.13832  -1.13786
 Alpha  occ. eigenvalues --   -1.13732  -1.12961  -1.12952  -1.12948  -1.12793
 Alpha  occ. eigenvalues --   -1.12716  -1.12714  -1.12335  -1.12318  -1.12308
 Alpha  occ. eigenvalues --   -0.18354  -0.13972  -0.11609  -0.10298
 Alpha virt. eigenvalues --   -0.06980  -0.05556  -0.04092  -0.03406  -0.02759
 Alpha virt. eigenvalues --   -0.02403  -0.01930  -0.01505  -0.00702  -0.00287
 Alpha virt. eigenvalues --   -0.00048   0.00140   0.00539   0.00638   0.00718

  Beta  occ. eigenvalues --  -38.44935 -38.44636 -38.44626 -38.44217 -38.43486
  Beta  occ. eigenvalues --  -38.43112 -38.42794  -2.20719  -2.20550  -2.20436
  Beta  occ. eigenvalues --   -2.20134  -2.19296  -2.18924  -2.18643  -1.14415
  Beta  occ. eigenvalues --   -1.14404  -1.14360  -1.14355  -1.14223  -1.14146
  Beta  occ. eigenvalues --   -1.14109  -1.14099  -1.14094  -1.13809  -1.13758
  Beta  occ. eigenvalues --   -1.13702  -1.12966  -1.12958  -1.12930  -1.12674
  Beta  occ. eigenvalues --   -1.12595  -1.12581  -1.12327  -1.12300  -1.12279
  Beta  occ. eigenvalues --   -0.17687  -0.13622  -0.11424
  Beta virt. eigenvalues --   -0.06884  -0.06535  -0.05452  -0.03979  -0.02785
  Beta virt. eigenvalues --   -0.02435  -0.01868  -0.01447  -0.01144  -0.00646
  Beta virt. eigenvalues --   -0.00183   0.00056   0.00216   0.00664   0.00710

 Mulliken charges and spin densities:
               1          2
     1  Na   0.012632  -0.013133
     2  Na  -0.127054   0.070021
     3  Na   0.595710   0.257899
     4  Na  -0.333957   0.436309
     5  Na  -0.242489   0.086013
     6  Na   0.007985   0.143984
     7  Na   0.087172   0.018907
 Sum of Mulliken charges =  -0.00000   1.00000

 Dipole moment (field-independent basis, Debye):
    X=              0.6830    Y=              0.1393    Z=              0.1082  Tot=              0.7054
 Quadrupole moment (field-independent basis, Debye-Ang):
   XX=            -52.3180   YY=            -67.0511   ZZ=            -74.8155
   XY=              3.4609   XZ=              0.7110   YZ=             -2.2211

 Normal termination of Gaussian 16 at Tue Dec  5 12:58:00 2023.
