 Gaussian 16, Revision B.01,
 Gaussian 16:  ES64L-G16RevB.01 20-Dec-2017

 -------------------------
 #P B3LYP/6-311+g(d) force
 -------------------------

 -----
 DPGEN
 -----
 Symbolic Z-matrix:
 Charge =  0 Multiplicity = 2

                         Standard orientation:
 ---------------------------------------------------------------------
 Center     Atomic      Atomic             Coordinates (Angstroms)
 Number     Number       Type             X           Y           Z
 ---------------------------------------------------------------------
      1         11           0       -7.892259    1.790210   -0.513296
      2         11           0       -0.240439   -0.990304    1.143799
      3         11           0       -5.461684    0.072202    0.835962
      4         11           0       -3.215153   -1.636772   -0.915568
      5         11           0        2.656272   -0.232299   -0.297383
      6         11           0        8.081744    1.784147    0.087130
      7         11           0        6.071519   -0.787184   -0.340643
 ---------------------------------------------------------------------

 SCF Done:  E(UB3LYP) =  -1136.10871993     A.U. after   18 cycles

 The electronic state is 2-A.
 Alpha  occ. eigenvalues --  -38.44942 -38.44881 -38.44560 -38.44264 -38.44215
 Alpha  occ. eigenvalues --  -38.44073 -38.43993  -2.20746  -2.20662  -2.20357
 Alpha  occ. eigenvalues --   -2.20029  -2.20002  -2.19886  -2.19796  -1.14398
 Alpha  occ. eigenvalues --   -1.14396  -1.14359  -1.14309  -1.14308  -1.14291
 Alpha  occ. eigenvalues --   -1.13997  -1.13995  -1.13987  -1.13719  -1.13714
 Alpha  occ. eigenvalues --   -1.13688  -1.13679  -1.13676  -1.13655  -1.13543
 Alpha  occ. eigenvalues --   -1.13540  -1.13486  -1.13479  -1.13473  -1.13443
 Alpha  occ. eigenvalues --   -0.15240  -0.14367  -0.12728  -0.11163
 Alpha virt. eigenvalues --   -0.06903  -0.05168  -0.04487  -0.03308  -0.03021
 Alpha virt. eigenvalues --   -0.02768  -0.02263  -0.01965  -0.01470  -0.01113
 Alpha virt. eigenvalues --   -0.00689  -0.00519  -0.00109   0.00291   0.00535

  Beta  occ. eigenvalues --  -38.44873 -38.44821 -38.44480 -38.44288 -38.44229
  Beta  occ. eigenvalues --  -38.44016 -38.44002  -2.20618  -2.20550  -2.20208
  Beta  occ. eigenvalues --   -2.20078  -2.20032  -2.19820  -2.19780  -1.14312
  Beta  occ. eigenvalues --   -1.14308  -1.14279  -1.14233  -1.14231  -1.14220
  Beta  occ. eigenvalues --   -1.13896  -1.13894  -1.13891  -1.13753  -1.13749
  Beta  occ. eigenvalues --   -1.13702  -1.13699  -1.13687  -1.13648  -1.13498
  Beta  occ. eigenvalues --   -1.13495  -1.13470  -1.13465  -1.13433  -1.13414
  Beta  occ. eigenvalues --   -0.14715  -0.13779  -0.12050
  Beta virt. eigenvalues --   -0.08173  -0.06372  -0.04793  -0.04277  -0.03133
  Beta virt. eigenvalues --   -0.02858  -0.02492  -0.02066  -0.01691  -0.01090
  Beta virt. eigenvalues --   -0.00878  -0.00389  -0.00251   0.00067   0.00356

 Mulliken charges and spin densities:
               1          2
     1  Na   0.443464   0.338542
     2  Na   0.027070  -0.026872
     3  Na  -0.415034   0.026316
     4  Na   0.098817   0.257004
     5  Na  -0.476058   0.145068
     6  Na   0.178290   0.287516
     7  Na   0.143452  -0.027574
 Sum of Mulliken charges =  -0.00000   1.00000

 Dipole moment (field-independent basis, Debye):
    X=              0.1688    Y=              0.3497    Z=             -0.3737  Tot=              0.5389
 Quadrupole moment (field-independent basis, Debye-Ang):
   XX=            -58.1769   YY=            -65.8464   ZZ=            -67.9566
   XY=              3.4722   XZ=              4.0678   YZ=              1.1705

 Normal termination of Gaussian 16 at Mon Dec  4 05:35:00 2023.
