 Gaussian 16, Revision B.01,
 Gaussian 16:  ES64L-G16RevB.01 20-Dec-2017

 -------------------------
 #P B3LYP/6-311+g(d) force
 -------------------------

 -----
 DPGEN
 -----
 Symbolic Z-matrix:
 Charge =  0 Multiplicity = 2

                         Standard orientation:
 ---------------------------------------------------------------------
 Center     Atomic      Atomic             Coordinates (Angstroms)
 Number     Number       Type             X           Y           Z
 ---------------------------------------------------------------------
      1         11           0       -2.826297    1.110058   -0.333999
      2         11           0        3.091561    0.561215   -0.060281
      3         11           0        1.657199   -2.500782   -0.273201
      4         11           0        0.013817    0.000421   -1.632530
      5         11           0       -2.223277   -2.155191    0.161162
      6         11           0        0.253432    2.978430    0.019136
      7         11           0        0.033564    0.005849    2.119713
 ---------------------------------------------------------------------

 SCF Done:  E(UB3LYP) =  -1136.13999542     A.U. after   19 cycles

 The electronic state is 2-A.
 Alpha  occ. eigenvalues --  -38.44048 -38.43801 -38.43701 -38.43636 -38.43521
 Alpha  occ. eigenvalues --  -38.43260 -38.43187  -2.19878  -2.19654  -2.19570
 Alpha  occ. eigenvalues --   -2.19464  -2.19364  -2.19163  -2.19094  -1.13554
 Alpha  occ. eigenvalues --   -1.13544  -1.13516  -1.13349  -1.13315  -1.13291
 Alpha  occ. eigenvalues --   -1.13234  -1.13196  -1.13191  -1.13130  -1.13123
 Alpha  occ. eigenvalues --   -1.13104  -1.13066  -1.13021  -1.12991  -1.12851
 Alpha  occ. eigenvalues --   -1.12812  -1.12790  -1.12762  -1.12744  -1.12728
 Alpha  occ. eigenvalues --   -0.18550  -0.13065  -0.12325  -0.10781
 Alpha virt. eigenvalues --   -0.05559  -0.05198  -0.04758  -0.03197  -0.02855
 Alpha virt. eigenvalues --   -0.02659  -0.01498  -0.01138  -0.00419  -0.00381
 Alpha virt. eigenvalues --   -0.00016   0.00364   0.00793   0.00879   0.00889

  Beta  occ. eigenvalues --  -38.44045 -38.43793 -38.43633 -38.43601 -38.43515
  Beta  occ. eigenvalues --  -38.43257 -38.43126  -2.19875  -2.19642  -2.19461
  Beta  occ. eigenvalues --   -2.19385  -2.19356  -2.19092  -2.19052  -1.13547
  Beta  occ. eigenvalues --   -1.13534  -1.13511  -1.13336  -1.13292  -1.13286
  Beta  occ. eigenvalues --   -1.13131  -1.13111  -1.13109  -1.13101  -1.13069
  Beta  occ. eigenvalues --   -1.13051  -1.13049  -1.13005  -1.12984  -1.12796
  Beta  occ. eigenvalues --   -1.12757  -1.12745  -1.12727  -1.12707  -1.12695
  Beta  occ. eigenvalues --   -0.17823  -0.12833  -0.12097
  Beta virt. eigenvalues --   -0.06851  -0.05530  -0.05199  -0.04702  -0.02417
  Beta virt. eigenvalues --   -0.02089  -0.01576  -0.01406  -0.01059  -0.00473
  Beta virt. eigenvalues --   -0.00436   0.00125   0.00387   0.00854   0.00877

 Mulliken charges and spin densities:
               1          2
     1  Na   0.207684  -0.026454
     2  Na   0.141936  -0.052126
     3  Na   0.150990  -0.049036
     4  Na  -0.164156   0.406847
     5  Na   0.103950  -0.024777
     6  Na   0.085755  -0.067094
     7  Na  -0.526158   0.812640
 Sum of Mulliken charges =  -0.00000   1.00000

 Dipole moment (field-independent basis, Debye):
    X=              0.0990    Y=             -0.0232    Z=              0.1382  Tot=              0.1716
 Quadrupole moment (field-independent basis, Debye-Ang):
   XX=            -56.9364   YY=            -62.1934   ZZ=            -74.3674
   XY=              0.4393   XZ=              0.1037   YZ=             -0.1176

 Normal termination of Gaussian 16 at Thu Dec  7 21:52:46 2023.
