 Gaussian 16, Revision B.01,
 Gaussian 16:  ES64L-G16RevB.01 20-Dec-2017

 -------------------------
 #P B3LYP/6-311+g(d) force
 -------------------------

 -----
 DPGEN
 -----
 Symbolic Z-matrix:
 Charge =  0 Multiplicity = 2

                         Standard orientation:
 ---------------------------------------------------------------------
 Center     Atomic      Atomic             Coordinates (Angstroms)
 Number     Number       Type             X           Y           Z
 ---------------------------------------------------------------------
      1         11           0        2.838736    1.158663   -0.072294
      2         11           0       -0.336541    2.843309   -0.461981
      3         11           0       -3.053187   -1.055853   -0.557714
      4         11           0        5.438485   -0.890977   -0.258962
      5         11           0       -6.396333   -0.603981   -0.063938
      6         11           0       -0.628346    0.532364    1.329778
      7         11           0        2.137185   -1.983525    0.085110
 ---------------------------------------------------------------------

 SCF Done:  E(UB3LYP) =  -1136.11617688     A.U. after   20 cycles

 The electronic state is 2-A.
 Alpha  occ. eigenvalues --  -38.44615 -38.44535 -38.44359 -38.44270 -38.44093
 Alpha  occ. eigenvalues --  -38.43816 -38.43634  -2.20456  -2.20349  -2.20236
 Alpha  occ. eigenvalues --   -2.20159  -2.19949  -2.19584  -2.19414  -1.14168
 Alpha  occ. eigenvalues --   -1.14128  -1.14054  -1.14026  -1.14009  -1.13964
 Alpha  occ. eigenvalues --   -1.13939  -1.13935  -1.13928  -1.13816  -1.13806
 Alpha  occ. eigenvalues --   -1.13786  -1.13591  -1.13571  -1.13547  -1.13241
 Alpha  occ. eigenvalues --   -1.13240  -1.13216  -1.13106  -1.13092  -1.13032
 Alpha  occ. eigenvalues --   -0.17231  -0.13972  -0.12106  -0.10638
 Alpha virt. eigenvalues --   -0.06484  -0.05483  -0.05207  -0.03263  -0.02875
 Alpha virt. eigenvalues --   -0.02473  -0.02089  -0.01483  -0.01021  -0.00853
 Alpha virt. eigenvalues --   -0.00300  -0.00060   0.00071   0.00351   0.00567

  Beta  occ. eigenvalues --  -38.44559 -38.44520 -38.44335 -38.44251 -38.44063
  Beta  occ. eigenvalues --  -38.43779 -38.43642  -2.20353  -2.20321  -2.20194
  Beta  occ. eigenvalues --   -2.20128  -2.19893  -2.19514  -2.19432  -1.14104
  Beta  occ. eigenvalues --   -1.14059  -1.13998  -1.13991  -1.13989  -1.13925
  Beta  occ. eigenvalues --   -1.13909  -1.13906  -1.13879  -1.13797  -1.13770
  Beta  occ. eigenvalues --   -1.13759  -1.13551  -1.13528  -1.13512  -1.13193
  Beta  occ. eigenvalues --   -1.13192  -1.13174  -1.13119  -1.13108  -1.13019
  Beta  occ. eigenvalues --   -0.16633  -0.13842  -0.11651
  Beta virt. eigenvalues --   -0.07248  -0.06120  -0.05110  -0.04805  -0.03034
  Beta virt. eigenvalues --   -0.02581  -0.02311  -0.01728  -0.01270  -0.00806
  Beta virt. eigenvalues --   -0.00444  -0.00067   0.00083   0.00252   0.00471

 Mulliken charges and spin densities:
               1          2
     1  Na  -0.722246   0.225736
     2  Na   0.283751   0.033441
     3  Na  -0.393986  -0.105856
     4  Na   0.895637   0.168240
     5  Na   0.315749   0.209065
     6  Na  -0.057556   0.365081
     7  Na  -0.321349   0.104292
 Sum of Mulliken charges =  -0.00000   1.00000

 Dipole moment (field-independent basis, Debye):
    X=              2.0949    Y=              0.1880    Z=             -0.0207  Tot=              2.1034
 Quadrupole moment (field-independent basis, Debye-Ang):
   XX=            -57.6365   YY=            -69.6165   ZZ=            -69.8139
   XY=             -8.1500   XZ=             -1.9704   YZ=             -0.0399

 Normal termination of Gaussian 16 at Tue Nov 28 23:36:35 2023.
