 Gaussian 16, Revision B.01,
 Gaussian 16:  ES64L-G16RevB.01 20-Dec-2017

 -------------------------
 #P B3LYP/6-311+g(d) force
 -------------------------

 -----
 DPGEN
 -----
 Symbolic Z-matrix:
 Charge =  0 Multiplicity = 2

                         Standard orientation:
 ---------------------------------------------------------------------
 Center     Atomic      Atomic             Coordinates (Angstroms)
 Number     Number       Type             X           Y           Z
 ---------------------------------------------------------------------
      1         11           0       -0.692750    2.097266    1.296743
      2         11           0        1.448736   -1.032625    1.726663
      3         11           0       -3.201722   -1.409181    0.768351
      4         11           0       -2.822311    0.642261   -1.352365
      5         11           0        1.822196    1.844734   -0.596139
      6         11           0        3.365432   -0.894802   -0.525232
      7         11           0        0.080418   -1.247654   -1.318022
 ---------------------------------------------------------------------

 SCF Done:  E(UB3LYP) =  -1136.11884861     A.U. after   22 cycles

 The electronic state is 2-A.
 Alpha  occ. eigenvalues --  -38.44981 -38.44661 -38.44396 -38.44236 -38.44033
 Alpha  occ. eigenvalues --  -38.43221 -38.42358  -2.20795  -2.20530  -2.20320
 Alpha  occ. eigenvalues --   -2.20114  -2.19953  -2.19131  -2.18208  -1.14553
 Alpha  occ. eigenvalues --   -1.14435  -1.14432  -1.14199  -1.14165  -1.14129
 Alpha  occ. eigenvalues --   -1.14065  -1.13987  -1.13952  -1.13829  -1.13786
 Alpha  occ. eigenvalues --   -1.13713  -1.13613  -1.13578  -1.13542  -1.12805
 Alpha  occ. eigenvalues --   -1.12785  -1.12779  -1.11885  -1.11860  -1.11849
 Alpha  occ. eigenvalues --   -0.18551  -0.14438  -0.11162  -0.10899
 Alpha virt. eigenvalues --   -0.06745  -0.05623  -0.04504  -0.03184  -0.02707
 Alpha virt. eigenvalues --   -0.02467  -0.02313  -0.01106  -0.00514  -0.00254
 Alpha virt. eigenvalues --    0.00168   0.00241   0.00414   0.00581   0.00744

  Beta  occ. eigenvalues --  -38.44980 -38.44643 -38.44387 -38.44203 -38.43962
  Beta  occ. eigenvalues --  -38.43199 -38.42343  -2.20793  -2.20496  -2.20308
  Beta  occ. eigenvalues --   -2.20057  -2.19822  -2.19093  -2.18181  -1.14549
  Beta  occ. eigenvalues --   -1.14431  -1.14425  -1.14166  -1.14146  -1.14109
  Beta  occ. eigenvalues --   -1.14046  -1.13961  -1.13938  -1.13782  -1.13728
  Beta  occ. eigenvalues --   -1.13674  -1.13524  -1.13494  -1.13444  -1.12783
  Beta  occ. eigenvalues --   -1.12764  -1.12729  -1.11870  -1.11834  -1.11823
  Beta  occ. eigenvalues --   -0.17841  -0.14266  -0.11005
  Beta virt. eigenvalues --   -0.07161  -0.06501  -0.05238  -0.04082  -0.03088
  Beta virt. eigenvalues --   -0.02343  -0.02054  -0.01559  -0.00823  -0.00225
  Beta virt. eigenvalues --   -0.00182   0.00274   0.00290   0.00491   0.00687

 Mulliken charges and spin densities:
               1          2
     1  Na  -0.136060   0.236554
     2  Na  -0.613564   0.311598
     3  Na  -0.108109   0.056153
     4  Na   0.467311  -0.106032
     5  Na  -0.482651  -0.015035
     6  Na   1.330406   0.142696
     7  Na  -0.457333   0.374067
 Sum of Mulliken charges =  -0.00000   1.00000

 Dipole moment (field-independent basis, Debye):
    X=             -0.4763    Y=             -0.5068    Z=             -0.1622  Tot=              0.7142
 Quadrupole moment (field-independent basis, Debye-Ang):
   XX=            -50.3019   YY=            -76.8105   ZZ=            -68.8014
   XY=             -0.1295   XZ=             -2.4092   YZ=             -3.7800

 Normal termination of Gaussian 16 at Wed Nov 29 15:52:48 2023.
