 Gaussian 16, Revision B.01,
 Gaussian 16:  ES64L-G16RevB.01 20-Dec-2017

 -------------------------
 #P B3LYP/6-311+g(d) force
 -------------------------

 -----
 DPGEN
 -----
 Symbolic Z-matrix:
 Charge =  0 Multiplicity = 2

                         Standard orientation:
 ---------------------------------------------------------------------
 Center     Atomic      Atomic             Coordinates (Angstroms)
 Number     Number       Type             X           Y           Z
 ---------------------------------------------------------------------
      1         11           0       -1.300841    2.139859   -0.865846
      2         11           0        2.063803   -1.268163    1.016917
      3         11           0       -1.778823   -0.467693    2.096429
      4         11           0       -0.770894   -1.742590   -0.973665
      5         11           0        4.047383   -0.902478   -1.032304
      6         11           0        1.992708    2.627301    0.464992
      7         11           0       -4.253337   -0.386235   -0.706522
 ---------------------------------------------------------------------

 SCF Done:  E(UB3LYP) =  -1136.11380040     A.U. after   23 cycles

 The electronic state is 2-A.
 Alpha  occ. eigenvalues --  -38.45374 -38.45004 -38.44764 -38.44568 -38.43643
 Alpha  occ. eigenvalues --  -38.43476 -38.43222  -2.21162  -2.20821  -2.20564
 Alpha  occ. eigenvalues --   -2.20407  -2.19527  -2.19259  -2.18979  -1.14861
 Alpha  occ. eigenvalues --   -1.14850  -1.14771  -1.14475  -1.14458  -1.14448
 Alpha  occ. eigenvalues --   -1.14231  -1.14207  -1.14175  -1.14150  -1.14031
 Alpha  occ. eigenvalues --   -1.14012  -1.13205  -1.13191  -1.13152  -1.12966
 Alpha  occ. eigenvalues --   -1.12933  -1.12864  -1.12662  -1.12640  -1.12613
 Alpha  occ. eigenvalues --   -0.17370  -0.14093  -0.11168  -0.10744
 Alpha virt. eigenvalues --   -0.07133  -0.05523  -0.04839  -0.03310  -0.02873
 Alpha virt. eigenvalues --   -0.02472  -0.02134  -0.01525  -0.01286  -0.00356
 Alpha virt. eigenvalues --   -0.00140   0.00092   0.00214   0.00376   0.00626

  Beta  occ. eigenvalues --  -38.45381 -38.44936 -38.44706 -38.44520 -38.43634
  Beta  occ. eigenvalues --  -38.43466 -38.43225  -2.21179  -2.20695  -2.20456
  Beta  occ. eigenvalues --   -2.20315  -2.19515  -2.19242  -2.18985  -1.14874
  Beta  occ. eigenvalues --   -1.14835  -1.14788  -1.14386  -1.14371  -1.14353
  Beta  occ. eigenvalues --   -1.14153  -1.14129  -1.14106  -1.14092  -1.13968
  Beta  occ. eigenvalues --   -1.13949  -1.13200  -1.13154  -1.13135  -1.12957
  Beta  occ. eigenvalues --   -1.12920  -1.12843  -1.12664  -1.12645  -1.12615
  Beta  occ. eigenvalues --   -0.16792  -0.13591  -0.10999
  Beta virt. eigenvalues --   -0.07199  -0.06900  -0.05308  -0.04283  -0.03243
  Beta virt. eigenvalues --   -0.02662  -0.01897  -0.01739  -0.01120  -0.00896
  Beta virt. eigenvalues --   -0.00253  -0.00009   0.00118   0.00348   0.00535

 Mulliken charges and spin densities:
               1          2
     1  Na  -0.369323   0.022974
     2  Na   0.071962   0.067945
     3  Na   0.103077   0.273316
     4  Na  -0.303563  -0.016704
     5  Na   0.336625   0.261299
     6  Na  -0.237504   0.025905
     7  Na   0.398725   0.365265
 Sum of Mulliken charges =  -0.00000   1.00000

 Dipole moment (field-independent basis, Debye):
    X=             -0.9269    Y=             -0.8343    Z=              0.0768  Tot=              1.2494
 Quadrupole moment (field-independent basis, Debye-Ang):
   XX=            -54.3901   YY=            -80.2882   ZZ=            -64.5747
   XY=              1.8584   XZ=             -3.9898   YZ=              2.5650

 Normal termination of Gaussian 16 at Mon Dec  4 04:10:36 2023.
