 Gaussian 16, Revision B.01,
 Gaussian 16:  ES64L-G16RevB.01 20-Dec-2017

 -------------------------
 #P B3LYP/6-311+g(d) force
 -------------------------

 -----
 DPGEN
 -----
 Symbolic Z-matrix:
 Charge =  0 Multiplicity = 2

                         Standard orientation:
 ---------------------------------------------------------------------
 Center     Atomic      Atomic             Coordinates (Angstroms)
 Number     Number       Type             X           Y           Z
 ---------------------------------------------------------------------
      1         11           0        0.310449   -0.154195    1.411286
      2         11           0       -2.092957    2.312537   -0.447985
      3         11           0        1.940256   -1.878235   -1.038161
      4         11           0        3.665950    0.637986    1.240422
      5         11           0       -3.682045   -0.458449    0.704838
      6         11           0        1.353326    1.340502   -1.442870
      7         11           0       -1.494978   -1.800145   -0.427529
 ---------------------------------------------------------------------

 SCF Done:  E(UB3LYP) =  -1136.11872255     A.U. after   24 cycles

 The electronic state is 2-A.
 Alpha  occ. eigenvalues --  -38.44921 -38.44887 -38.44572 -38.43710 -38.43601
 Alpha  occ. eigenvalues --  -38.43211 -38.43168  -2.20812  -2.20806  -2.20405
 Alpha  occ. eigenvalues --   -2.19593  -2.19481  -2.19122  -2.19017  -1.14572
 Alpha  occ. eigenvalues --   -1.14545  -1.14461  -1.14439  -1.14431  -1.14407
 Alpha  occ. eigenvalues --   -1.14062  -1.14043  -1.14017  -1.13293  -1.13244
 Alpha  occ. eigenvalues --   -1.13219  -1.13163  -1.13125  -1.13092  -1.12821
 Alpha  occ. eigenvalues --   -1.12785  -1.12732  -1.12694  -1.12679  -1.12662
 Alpha  occ. eigenvalues --   -0.18552  -0.14504  -0.11313  -0.10974
 Alpha virt. eigenvalues --   -0.06896  -0.05359  -0.04582  -0.03232  -0.02833
 Alpha virt. eigenvalues --   -0.02335  -0.02106  -0.01213  -0.00857  -0.00191
 Alpha virt. eigenvalues --    0.00071   0.00205   0.00314   0.00628   0.00713

  Beta  occ. eigenvalues --  -38.44903 -38.44869 -38.44500 -38.43677 -38.43558
  Beta  occ. eigenvalues --  -38.43205 -38.43165  -2.20781  -2.20773  -2.20271
  Beta  occ. eigenvalues --   -2.19536  -2.19404  -2.19120  -2.19007  -1.14552
  Beta  occ. eigenvalues --   -1.14498  -1.14446  -1.14416  -1.14405  -1.14387
  Beta  occ. eigenvalues --   -1.13961  -1.13952  -1.13934  -1.13242  -1.13205
  Beta  occ. eigenvalues --   -1.13171  -1.13115  -1.13052  -1.13039  -1.12825
  Beta  occ. eigenvalues --   -1.12763  -1.12723  -1.12687  -1.12673  -1.12645
  Beta  occ. eigenvalues --   -0.17984  -0.14134  -0.11004
  Beta virt. eigenvalues --   -0.07293  -0.06627  -0.05304  -0.03980  -0.03073
  Beta virt. eigenvalues --   -0.02549  -0.01810  -0.01379  -0.01062  -0.00482
  Beta virt. eigenvalues --   -0.00131   0.00152   0.00231   0.00466   0.00763

 Mulliken charges and spin densities:
               1          2
     1  Na  -0.778590   0.180543
     2  Na  -0.445591   0.022169
     3  Na   0.107791   0.171199
     4  Na   0.351804   0.243054
     5  Na   1.525812   0.043758
     6  Na  -0.119798   0.249220
     7  Na  -0.641427   0.090057
 Sum of Mulliken charges =  -0.00000   1.00000

 Dipole moment (field-independent basis, Debye):
    X=              0.2510    Y=             -0.2092    Z=              0.0347  Tot=              0.3285
 Quadrupole moment (field-independent basis, Debye-Ang):
   XX=            -49.3397   YY=            -76.6084   ZZ=            -69.7596
   XY=             -0.8131   XZ=             -3.1649   YZ=              1.3249

 Normal termination of Gaussian 16 at Tue Dec  5 18:16:35 2023.
