 Gaussian 16, Revision B.01,
 Gaussian 16:  ES64L-G16RevB.01 20-Dec-2017

 -------------------------
 #P B3LYP/6-311+g(d) force
 -------------------------

 -----
 DPGEN
 -----
 Symbolic Z-matrix:
 Charge =  0 Multiplicity = 2

                         Standard orientation:
 ---------------------------------------------------------------------
 Center     Atomic      Atomic             Coordinates (Angstroms)
 Number     Number       Type             X           Y           Z
 ---------------------------------------------------------------------
      1         11           0        3.811292   -0.753783   -0.715377
      2         11           0        1.693452    0.167152    1.983917
      3         11           0        0.357197   -1.469239   -0.973587
      4         11           0        1.401878    1.629477   -0.735213
      5         11           0       -3.459668   -1.428511   -0.567718
      6         11           0       -2.169552    2.018591   -0.801580
      7         11           0       -1.634599   -0.163688    1.809559
 ---------------------------------------------------------------------

 SCF Done:  E(UB3LYP) =  -1136.12106640     A.U. after   29 cycles

 The electronic state is 2-A.
 Alpha  occ. eigenvalues --  -38.44491 -38.44362 -38.44170 -38.43942 -38.43887
 Alpha  occ. eigenvalues --  -38.43652 -38.43650  -2.20323  -2.20199  -2.19997
 Alpha  occ. eigenvalues --   -2.19863  -2.19797  -2.19584  -2.19476  -1.13999
 Alpha  occ. eigenvalues --   -1.13980  -1.13960  -1.13924  -1.13907  -1.13775
 Alpha  occ. eigenvalues --   -1.13672  -1.13649  -1.13616  -1.13569  -1.13553
 Alpha  occ. eigenvalues --   -1.13482  -1.13461  -1.13442  -1.13407  -1.13290
 Alpha  occ. eigenvalues --   -1.13236  -1.13160  -1.13150  -1.13124  -1.13108
 Alpha  occ. eigenvalues --   -0.18643  -0.14409  -0.11602  -0.10769
 Alpha virt. eigenvalues --   -0.06841  -0.05232  -0.04953  -0.03333  -0.02628
 Alpha virt. eigenvalues --   -0.02461  -0.02105  -0.01212  -0.00949  -0.00110
 Alpha virt. eigenvalues --    0.00097   0.00290   0.00355   0.00533   0.00685

  Beta  occ. eigenvalues --  -38.44484 -38.44362 -38.44121 -38.43884 -38.43837
  Beta  occ. eigenvalues --  -38.43644 -38.43620  -2.20310  -2.20201  -2.19908
  Beta  occ. eigenvalues --   -2.19758  -2.19709  -2.19529  -2.19463  -1.13981
  Beta  occ. eigenvalues --   -1.13974  -1.13954  -1.13924  -1.13886  -1.13780
  Beta  occ. eigenvalues --   -1.13604  -1.13594  -1.13550  -1.13506  -1.13465
  Beta  occ. eigenvalues --   -1.13417  -1.13393  -1.13371  -1.13340  -1.13253
  Beta  occ. eigenvalues --   -1.13187  -1.13133  -1.13115  -1.13114  -1.13101
  Beta  occ. eigenvalues --   -0.17987  -0.14208  -0.10478
  Beta virt. eigenvalues --   -0.07609  -0.06673  -0.05203  -0.04295  -0.02871
  Beta virt. eigenvalues --   -0.02553  -0.01886  -0.01609  -0.01062  -0.00456
  Beta virt. eigenvalues --   -0.00008   0.00133   0.00304   0.00500   0.00656

 Mulliken charges and spin densities:
               1          2
     1  Na   1.179274   0.016149
     2  Na  -0.221524   0.147609
     3  Na  -1.145788   0.061696
     4  Na  -0.167564   0.251891
     5  Na   0.756260   0.076473
     6  Na  -0.301923   0.219500
     7  Na  -0.098735   0.226683
 Sum of Mulliken charges =  -0.00000   1.00000

 Dipole moment (field-independent basis, Debye):
    X=              0.5818    Y=              0.2673    Z=              0.0671  Tot=              0.6437
 Quadrupole moment (field-independent basis, Debye-Ang):
   XX=            -48.6545   YY=            -76.8745   ZZ=            -70.3191
   XY=             -1.4119   XZ=              1.3225   YZ=             -3.5133

 Normal termination of Gaussian 16 at Thu Dec  7 12:52:05 2023.
