 Gaussian 16, Revision B.01,
 Gaussian 16:  ES64L-G16RevB.01 20-Dec-2017

 -------------------------
 #P B3LYP/6-311+g(d) force
 -------------------------

 -----
 DPGEN
 -----
 Symbolic Z-matrix:
 Charge =  0 Multiplicity = 2

                         Standard orientation:
 ---------------------------------------------------------------------
 Center     Atomic      Atomic             Coordinates (Angstroms)
 Number     Number       Type             X           Y           Z
 ---------------------------------------------------------------------
      1         11           0       -1.664038    2.371683   -0.129099
      2         11           0       -1.362946   -1.007114    1.486659
      3         11           0        0.877680    1.330284    1.566087
      4         11           0        3.708870    0.493748   -0.717246
      5         11           0        0.407391    0.085681   -1.539795
      6         11           0        1.542170   -2.365661    0.274217
      7         11           0       -3.509126   -0.908621   -0.940823
 ---------------------------------------------------------------------

 SCF Done:  E(UB3LYP) =  -1136.12663870     A.U. after   22 cycles

 The electronic state is 2-A.
 Alpha  occ. eigenvalues --  -38.44946 -38.44452 -38.44161 -38.43409 -38.43173
 Alpha  occ. eigenvalues --  -38.43079 -38.43050  -2.20746  -2.20255  -2.20096
 Alpha  occ. eigenvalues --   -2.19255  -2.19112  -2.19019  -2.18911  -1.14421
 Alpha  occ. eigenvalues --   -1.14390  -1.14370  -1.13933  -1.13895  -1.13884
 Alpha  occ. eigenvalues --   -1.13813  -1.13750  -1.13708  -1.12958  -1.12926
 Alpha  occ. eigenvalues --   -1.12869  -1.12840  -1.12762  -1.12738  -1.12701
 Alpha  occ. eigenvalues --   -1.12654  -1.12645  -1.12595  -1.12552  -1.12524
 Alpha  occ. eigenvalues --   -0.18611  -0.13638  -0.11328  -0.11225
 Alpha virt. eigenvalues --   -0.06699  -0.04842  -0.04274  -0.03129  -0.02835
 Alpha virt. eigenvalues --   -0.02497  -0.02292  -0.00865  -0.00785  -0.00152
 Alpha virt. eigenvalues --    0.00158   0.00239   0.00391   0.00738   0.00827

  Beta  occ. eigenvalues --  -38.44922 -38.44421 -38.44130 -38.43399 -38.43125
  Beta  occ. eigenvalues --  -38.43047 -38.43025  -2.20701  -2.20197  -2.20039
  Beta  occ. eigenvalues --   -2.19239  -2.19030  -2.18923  -2.18908  -1.14381
  Beta  occ. eigenvalues --   -1.14362  -1.14343  -1.13896  -1.13857  -1.13840
  Beta  occ. eigenvalues --   -1.13764  -1.13715  -1.13662  -1.12949  -1.12894
  Beta  occ. eigenvalues --   -1.12855  -1.12768  -1.12695  -1.12677  -1.12652
  Beta  occ. eigenvalues --   -1.12599  -1.12584  -1.12555  -1.12545  -1.12498
  Beta  occ. eigenvalues --   -0.17894  -0.13275  -0.11107
  Beta virt. eigenvalues --   -0.07470  -0.06438  -0.04791  -0.03741  -0.02999
  Beta virt. eigenvalues --   -0.02350  -0.01936  -0.01580  -0.00844  -0.00461
  Beta virt. eigenvalues --   -0.00079   0.00199   0.00264   0.00480   0.00817

 Mulliken charges and spin densities:
               1          2
     1  Na  -0.074254   0.145657
     2  Na   0.373076  -0.015407
     3  Na  -0.052669   0.243413
     4  Na   0.357900   0.135801
     5  Na  -0.213259   0.148056
     6  Na  -0.271065   0.105070
     7  Na  -0.119729   0.237410
 Sum of Mulliken charges =  -0.00000   1.00000

 Dipole moment (field-independent basis, Debye):
    X=              0.6513    Y=              0.1427    Z=             -0.3531  Tot=              0.7544
 Quadrupole moment (field-independent basis, Debye-Ang):
   XX=            -50.0599   YY=            -73.7181   ZZ=            -68.8842
   XY=              0.0813   XZ=              1.6898   YZ=             -0.3965

 Normal termination of Gaussian 16 at Tue Dec  5 09:59:11 2023.
