 Gaussian 16, Revision B.01,
 Gaussian 16:  ES64L-G16RevB.01 20-Dec-2017

 -------------------------
 #P B3LYP/6-311+g(d) force
 -------------------------

 -----
 DPGEN
 -----
 Symbolic Z-matrix:
 Charge =  0 Multiplicity = 2

                         Standard orientation:
 ---------------------------------------------------------------------
 Center     Atomic      Atomic             Coordinates (Angstroms)
 Number     Number       Type             X           Y           Z
 ---------------------------------------------------------------------
      1         11           0        3.396275   -0.755439   -0.258523
      2         11           0        1.188188    0.243050    2.134696
      3         11           0       -3.742776   -1.177508   -0.142121
      4         11           0       -1.497433    0.024756    0.222372
      5         11           0        0.304730   -2.189712   -0.352768
      6         11           0        1.213941    0.915097   -1.508851
      7         11           0       -0.862925    2.939756   -0.094806
 ---------------------------------------------------------------------

 SCF Done:  E(UB3LYP) =  -1136.10790865     A.U. after   24 cycles

 The electronic state is 2-A.
 Alpha  occ. eigenvalues --  -38.45217 -38.44674 -38.44287 -38.43976 -38.43363
 Alpha  occ. eigenvalues --  -38.43150 -38.42904  -2.21075  -2.20561  -2.20193
 Alpha  occ. eigenvalues --   -2.19882  -2.19356  -2.19333  -2.18782  -1.14996
 Alpha  occ. eigenvalues --   -1.14676  -1.14646  -1.14276  -1.14210  -1.14188
 Alpha  occ. eigenvalues --   -1.13994  -1.13854  -1.13758  -1.13568  -1.13508
 Alpha  occ. eigenvalues --   -1.13469  -1.13086  -1.13024  -1.13002  -1.12974
 Alpha  occ. eigenvalues --   -1.12946  -1.12916  -1.12452  -1.12430  -1.12400
 Alpha  occ. eigenvalues --   -0.19240  -0.13735  -0.11972  -0.11128
 Alpha virt. eigenvalues --   -0.06883  -0.04720  -0.03827  -0.03435  -0.02649
 Alpha virt. eigenvalues --   -0.02462  -0.02369  -0.00951  -0.00346  -0.00035
 Alpha virt. eigenvalues --    0.00166   0.00222   0.00598   0.00772   0.00871

  Beta  occ. eigenvalues --  -38.45225 -38.44661 -38.44272 -38.43870 -38.43307
  Beta  occ. eigenvalues --  -38.43133 -38.42904  -2.21090  -2.20541  -2.20171
  Beta  occ. eigenvalues --   -2.19687  -2.19308  -2.19253  -2.18785  -1.15006
  Beta  occ. eigenvalues --   -1.14682  -1.14656  -1.14257  -1.14183  -1.14162
  Beta  occ. eigenvalues --   -1.13983  -1.13801  -1.13749  -1.13431  -1.13379
  Beta  occ. eigenvalues --   -1.13331  -1.13057  -1.12977  -1.12941  -1.12937
  Beta  occ. eigenvalues --   -1.12877  -1.12854  -1.12455  -1.12423  -1.12395
  Beta  occ. eigenvalues --   -0.18469  -0.13532  -0.11795
  Beta virt. eigenvalues --   -0.07047  -0.06698  -0.04669  -0.03659  -0.02793
  Beta virt. eigenvalues --   -0.02401  -0.01780  -0.01582  -0.00891  -0.00069
  Beta virt. eigenvalues --    0.00055   0.00178   0.00274   0.00783   0.00808

 Mulliken charges and spin densities:
               1          2
     1  Na   1.339178   0.234548
     2  Na  -0.114961   0.295768
     3  Na   0.350607  -0.501727
     4  Na  -1.423377   0.776916
     5  Na  -0.079205   0.084189
     6  Na  -0.693274   0.116859
     7  Na   0.621032  -0.006552
 Sum of Mulliken charges =  -0.00000   1.00000

 Dipole moment (field-independent basis, Debye):
    X=              0.4790    Y=             -0.2254    Z=              0.1559  Tot=              0.5519
 Quadrupole moment (field-independent basis, Debye-Ang):
   XX=            -50.9123   YY=            -68.6050   ZZ=            -72.5627
   XY=             -1.1455   XZ=              0.8262   YZ=              1.4448

 Normal termination of Gaussian 16 at Sat Dec  9 05:46:27 2023.
