 Gaussian 16, Revision B.01,
 Gaussian 16:  ES64L-G16RevB.01 20-Dec-2017

 -------------------------
 #P B3LYP/6-311+g(d) force
 -------------------------

 -----
 DPGEN
 -----
 Symbolic Z-matrix:
 Charge =  0 Multiplicity = 2

                         Standard orientation:
 ---------------------------------------------------------------------
 Center     Atomic      Atomic             Coordinates (Angstroms)
 Number     Number       Type             X           Y           Z
 ---------------------------------------------------------------------
      1         11           0        1.272667   -1.876988   -0.122480
      2         11           0        4.564869   -0.793176   -0.535509
      3         11           0        2.382033    1.383678   -0.794548
      4         11           0       -0.632077    2.474885    0.023746
      5         11           0       -2.109815   -0.849644    0.358052
      6         11           0       -0.032687    0.118392    2.049707
      7         11           0       -5.444990   -0.457146   -0.978969
 ---------------------------------------------------------------------

 SCF Done:  E(UB3LYP) =  -1136.11313971     A.U. after   23 cycles

 The electronic state is 2-A.
 Alpha  occ. eigenvalues --  -38.44998 -38.44616 -38.44251 -38.44241 -38.43694
 Alpha  occ. eigenvalues --  -38.43510 -38.43049  -2.20977  -2.20399  -2.20128
 Alpha  occ. eigenvalues --   -2.20078  -2.19595  -2.19407  -2.18932  -1.14725
 Alpha  occ. eigenvalues --   -1.14637  -1.14561  -1.14037  -1.14036  -1.14010
 Alpha  occ. eigenvalues --   -1.13828  -1.13815  -1.13781  -1.13738  -1.13727
 Alpha  occ. eigenvalues --   -1.13675  -1.13289  -1.13259  -1.13200  -1.13122
 Alpha  occ. eigenvalues --   -1.13063  -1.13046  -1.12597  -1.12587  -1.12562
 Alpha  occ. eigenvalues --   -0.18243  -0.14019  -0.11913  -0.11561
 Alpha virt. eigenvalues --   -0.06301  -0.05529  -0.04724  -0.03335  -0.02782
 Alpha virt. eigenvalues --   -0.02200  -0.02058  -0.01603  -0.01137  -0.00468
 Alpha virt. eigenvalues --   -0.00184   0.00040   0.00469   0.00505   0.00558

  Beta  occ. eigenvalues --  -38.44961 -38.44514 -38.44230 -38.44216 -38.43670
  Beta  occ. eigenvalues --  -38.43512 -38.43033  -2.20912  -2.20209  -2.20068
  Beta  occ. eigenvalues --   -2.20058  -2.19551  -2.19421  -2.18901  -1.14687
  Beta  occ. eigenvalues --   -1.14586  -1.14503  -1.13908  -1.13906  -1.13884
  Beta  occ. eigenvalues --   -1.13786  -1.13777  -1.13759  -1.13714  -1.13708
  Beta  occ. eigenvalues --   -1.13637  -1.13258  -1.13231  -1.13167  -1.13130
  Beta  occ. eigenvalues --   -1.13077  -1.13001  -1.12573  -1.12569  -1.12544
  Beta  occ. eigenvalues --   -0.17750  -0.13577  -0.11070
  Beta virt. eigenvalues --   -0.08232  -0.06146  -0.05069  -0.04400  -0.03047
  Beta virt. eigenvalues --   -0.02669  -0.01816  -0.01655  -0.01211  -0.00806
  Beta virt. eigenvalues --   -0.00256  -0.00081   0.00162   0.00564   0.00591

 Mulliken charges and spin densities:
               1          2
     1  Na   0.046246   0.039950
     2  Na   0.313062   0.047413
     3  Na  -0.319586   0.172258
     4  Na   0.171786   0.092614
     5  Na  -0.486262   0.021559
     6  Na   0.183223   0.171990
     7  Na   0.091532   0.454216
 Sum of Mulliken charges =  -0.00000   1.00000

 Dipole moment (field-independent basis, Debye):
    X=              1.1334    Y=              0.1596    Z=              0.4066  Tot=              1.2147
 Quadrupole moment (field-independent basis, Debye-Ang):
   XX=            -57.6090   YY=            -75.1291   ZZ=            -65.8665
   XY=             -5.1135   XZ=              2.1077   YZ=              0.0612

 Normal termination of Gaussian 16 at Tue Nov 28 20:26:11 2023.
