 Gaussian 16, Revision B.01,
 Gaussian 16:  ES64L-G16RevB.01 20-Dec-2017

 -------------------------
 #P B3LYP/6-311+g(d) force
 -------------------------

 -----
 DPGEN
 -----
 Symbolic Z-matrix:
 Charge =  0 Multiplicity = 2

                         Standard orientation:
 ---------------------------------------------------------------------
 Center     Atomic      Atomic             Coordinates (Angstroms)
 Number     Number       Type             X           Y           Z
 ---------------------------------------------------------------------
      1         11           0        3.398736    0.924181   -0.541237
      2         11           0       -3.960670   -1.014023   -0.208641
      3         11           0       -2.654261    1.939978   -0.492181
      4         11           0        0.875098    2.995457    1.037645
      5         11           0       -0.921759   -2.428944    0.851161
      6         11           0        2.901659   -2.359958   -0.072069
      7         11           0        0.361197   -0.056690   -0.574677
 ---------------------------------------------------------------------

 SCF Done:  E(UB3LYP) =  -1136.12330670     A.U. after   21 cycles

 The electronic state is 2-A.
 Alpha  occ. eigenvalues --  -38.44392 -38.44119 -38.44082 -38.44027 -38.43700
 Alpha  occ. eigenvalues --  -38.43666 -38.43402  -2.20205  -2.19946  -2.19900
 Alpha  occ. eigenvalues --   -2.19895  -2.19641  -2.19504  -2.19264  -1.13894
 Alpha  occ. eigenvalues --   -1.13879  -1.13833  -1.13621  -1.13608  -1.13593
 Alpha  occ. eigenvalues --   -1.13585  -1.13574  -1.13572  -1.13546  -1.13537
 Alpha  occ. eigenvalues --   -1.13479  -1.13387  -1.13305  -1.13254  -1.13171
 Alpha  occ. eigenvalues --   -1.13149  -1.13135  -1.12936  -1.12906  -1.12856
 Alpha  occ. eigenvalues --   -0.17449  -0.14126  -0.12543  -0.09927
 Alpha virt. eigenvalues --   -0.06590  -0.05704  -0.03971  -0.03445  -0.02957
 Alpha virt. eigenvalues --   -0.02519  -0.01994  -0.01240  -0.00562  -0.00484
 Alpha virt. eigenvalues --   -0.00128   0.00158   0.00345   0.00675   0.00727

  Beta  occ. eigenvalues --  -38.44365 -38.44078 -38.44066 -38.43986 -38.43673
  Beta  occ. eigenvalues --  -38.43654 -38.43351  -2.20160  -2.19875  -2.19874
  Beta  occ. eigenvalues --   -2.19823  -2.19622  -2.19456  -2.19171  -1.13870
  Beta  occ. eigenvalues --   -1.13853  -1.13765  -1.13589  -1.13567  -1.13562
  Beta  occ. eigenvalues --   -1.13543  -1.13537  -1.13511  -1.13508  -1.13483
  Beta  occ. eigenvalues --   -1.13414  -1.13349  -1.13293  -1.13247  -1.13136
  Beta  occ. eigenvalues --   -1.13119  -1.13102  -1.12872  -1.12843  -1.12800
  Beta  occ. eigenvalues --   -0.17027  -0.13370  -0.12161
  Beta virt. eigenvalues --   -0.06629  -0.06537  -0.05528  -0.03765  -0.02859
  Beta virt. eigenvalues --   -0.02376  -0.02311  -0.01815  -0.00998  -0.00450
  Beta virt. eigenvalues --   -0.00356   0.00157   0.00345   0.00466   0.00695

 Mulliken charges and spin densities:
               1          2
     1  Na   0.797657   0.300573
     2  Na   0.377150   0.322353
     3  Na   0.563375   0.307836
     4  Na   0.219871   0.102868
     5  Na   0.277162   0.151119
     6  Na   0.470267   0.085565
     7  Na  -2.705482  -0.270314
 Sum of Mulliken charges =  -0.00000   1.00000

 Dipole moment (field-independent basis, Debye):
    X=              0.3070    Y=             -0.0297    Z=              0.6371  Tot=              0.7078
 Quadrupole moment (field-independent basis, Debye-Ang):
   XX=            -67.0781   YY=            -61.0475   ZZ=            -69.8075
   XY=              2.8565   XZ=              0.3977   YZ=             -0.1951

 Normal termination of Gaussian 16 at Wed Nov 29 15:51:17 2023.
