 Gaussian 16, Revision B.01,
 Gaussian 16:  ES64L-G16RevB.01 20-Dec-2017

 -------------------------
 #P B3LYP/6-311+g(d) force
 -------------------------

 -----
 DPGEN
 -----
 Symbolic Z-matrix:
 Charge =  0 Multiplicity = 2

                         Standard orientation:
 ---------------------------------------------------------------------
 Center     Atomic      Atomic             Coordinates (Angstroms)
 Number     Number       Type             X           Y           Z
 ---------------------------------------------------------------------
      1         11           0        1.177292    2.993291   -0.019619
      2         11           0       -3.110466   -1.526417   -0.285003
      3         11           0        3.488144   -0.070556   -0.472360
      4         11           0       -0.159215    0.167865    1.993521
      5         11           0       -2.433491    1.688977    0.038218
      6         11           0       -0.325369   -0.323076   -1.720506
      7         11           0        1.363106   -2.930084    0.465748
 ---------------------------------------------------------------------

 SCF Done:  E(UB3LYP) =  -1136.13098350     A.U. after   21 cycles

 The electronic state is 2-A.
 Alpha  occ. eigenvalues --  -38.44686 -38.44255 -38.43945 -38.43901 -38.43680
 Alpha  occ. eigenvalues --  -38.43638 -38.43346  -2.20443  -2.20076  -2.19820
 Alpha  occ. eigenvalues --   -2.19775  -2.19506  -2.19460  -2.19126  -1.14125
 Alpha  occ. eigenvalues --   -1.14091  -1.14079  -1.13752  -1.13744  -1.13719
 Alpha  occ. eigenvalues --   -1.13524  -1.13480  -1.13464  -1.13443  -1.13419
 Alpha  occ. eigenvalues --   -1.13383  -1.13176  -1.13143  -1.13131  -1.13121
 Alpha  occ. eigenvalues --   -1.13106  -1.13100  -1.12807  -1.12787  -1.12768
 Alpha  occ. eigenvalues --   -0.17938  -0.13157  -0.11914  -0.10550
 Alpha virt. eigenvalues --   -0.06159  -0.05388  -0.04859  -0.03234  -0.02763
 Alpha virt. eigenvalues --   -0.02437  -0.01937  -0.01245  -0.00781  -0.00561
 Alpha virt. eigenvalues --   -0.00073   0.00298   0.00663   0.00770   0.00783

  Beta  occ. eigenvalues --  -38.44675 -38.44250 -38.43893 -38.43892 -38.43669
  Beta  occ. eigenvalues --  -38.43545 -38.43347  -2.20424  -2.20069  -2.19764
  Beta  occ. eigenvalues --   -2.19723  -2.19441  -2.19335  -2.19131  -1.14103
  Beta  occ. eigenvalues --   -1.14079  -1.14066  -1.13745  -1.13736  -1.13703
  Beta  occ. eigenvalues --   -1.13482  -1.13433  -1.13424  -1.13389  -1.13375
  Beta  occ. eigenvalues --   -1.13351  -1.13109  -1.13105  -1.13088  -1.13062
  Beta  occ. eigenvalues --   -1.13021  -1.12986  -1.12804  -1.12792  -1.12764
  Beta  occ. eigenvalues --   -0.17245  -0.12916  -0.11700
  Beta virt. eigenvalues --   -0.06810  -0.05979  -0.05353  -0.04730  -0.02574
  Beta virt. eigenvalues --   -0.02095  -0.01798  -0.01496  -0.01205  -0.00757
  Beta virt. eigenvalues --   -0.00569   0.00082   0.00348   0.00743   0.00794

 Mulliken charges and spin densities:
               1          2
     1  Na  -0.220838  -0.080951
     2  Na   0.270399  -0.007451
     3  Na  -0.035665   0.018206
     4  Na  -0.039843   0.645409
     5  Na   0.171483  -0.023995
     6  Na  -0.027844   0.459047
     7  Na  -0.117691  -0.010265
 Sum of Mulliken charges =  -0.00000   1.00000

 Dipole moment (field-independent basis, Debye):
    X=             -0.1680    Y=             -0.2267    Z=             -0.0685  Tot=              0.2904
 Quadrupole moment (field-independent basis, Debye-Ang):
   XX=            -54.4201   YY=            -64.2019   ZZ=            -75.1110
   XY=              1.0992   XZ=             -0.9419   YZ=             -1.0569

 Normal termination of Gaussian 16 at Thu Dec  7 18:25:52 2023.
