 Gaussian 16, Revision B.01,
 Gaussian 16:  ES64L-G16RevB.01 20-Dec-2017

 -------------------------
 #P B3LYP/6-311+g(d) force
 -------------------------

 -----
 DPGEN
 -----
 Symbolic Z-matrix:
 Charge =  0 Multiplicity = 2

                         Standard orientation:
 ---------------------------------------------------------------------
 Center     Atomic      Atomic             Coordinates (Angstroms)
 Number     Number       Type             X           Y           Z
 ---------------------------------------------------------------------
      1         11           0       -5.638264   -0.537464   -0.124445
      2         11           0       -2.544672   -2.028205   -0.002407
      3         11           0       -4.045662    1.776539    0.281527
      4         11           0        4.148983    0.204140    0.053113
      5         11           0        1.125596   -1.445005    0.031345
      6         11           0        7.004250   -0.017395    0.023180
      7         11           0       -0.050233    2.047392   -0.262313
 ---------------------------------------------------------------------

 SCF Done:  E(UB3LYP) =  -1136.11028274     A.U. after   21 cycles

 The electronic state is 2-A.
 Alpha  occ. eigenvalues --  -38.45197 -38.45099 -38.45026 -38.44545 -38.44268
 Alpha  occ. eigenvalues --  -38.43630 -38.43307  -2.20998  -2.20952  -2.20790
 Alpha  occ. eigenvalues --   -2.20417  -2.20062  -2.19446  -2.19172  -1.14717
 Alpha  occ. eigenvalues --   -1.14676  -1.14646  -1.14604  -1.14599  -1.14576
 Alpha  occ. eigenvalues --   -1.14464  -1.14442  -1.14395  -1.14069  -1.14047
 Alpha  occ. eigenvalues --   -1.14037  -1.13742  -1.13725  -1.13700  -1.13251
 Alpha  occ. eigenvalues --   -1.13087  -1.13086  -1.12833  -1.12822  -1.12750
 Alpha  occ. eigenvalues --   -0.16657  -0.14344  -0.11912  -0.11778
 Alpha virt. eigenvalues --   -0.06872  -0.05989  -0.04165  -0.03419  -0.03287
 Alpha virt. eigenvalues --   -0.02735  -0.02542  -0.01161  -0.01047  -0.00870
 Alpha virt. eigenvalues --   -0.00545  -0.00444  -0.00052   0.00240   0.00726

  Beta  occ. eigenvalues --  -38.45119 -38.45057 -38.44961 -38.44538 -38.44263
  Beta  occ. eigenvalues --  -38.43648 -38.43305  -2.20873  -2.20854  -2.20669
  Beta  occ. eigenvalues --   -2.20405  -2.20053  -2.19479  -2.19166  -1.14660
  Beta  occ. eigenvalues --   -1.14581  -1.14550  -1.14546  -1.14522  -1.14494
  Beta  occ. eigenvalues --   -1.14382  -1.14358  -1.14308  -1.14047  -1.14041
  Beta  occ. eigenvalues --   -1.14021  -1.13739  -1.13704  -1.13696  -1.13270
  Beta  occ. eigenvalues --   -1.13109  -1.13108  -1.12826  -1.12815  -1.12763
  Beta  occ. eigenvalues --   -0.15917  -0.14361  -0.11806
  Beta virt. eigenvalues --   -0.07893  -0.06495  -0.05189  -0.03957  -0.03279
  Beta virt. eigenvalues --   -0.02723  -0.02609  -0.02259  -0.01106  -0.00780
  Beta virt. eigenvalues --   -0.00571  -0.00304  -0.00140   0.00186   0.00334

 Mulliken charges and spin densities:
               1          2
     1  Na   0.500718   0.020153
     2  Na  -0.515741   0.284084
     3  Na  -0.247406   0.156490
     4  Na  -0.179976  -0.190023
     5  Na   0.365138   0.277990
     6  Na   0.359080  -0.160212
     7  Na  -0.281814   0.611519
 Sum of Mulliken charges =  -0.00000   1.00000

 Dipole moment (field-independent basis, Debye):
    X=             -2.2812    Y=             -0.0414    Z=             -0.0750  Tot=              2.2828
 Quadrupole moment (field-independent basis, Debye-Ang):
   XX=            -58.2467   YY=            -66.8758   ZZ=            -74.0323
   XY=              1.1893   XZ=              0.1055   YZ=              0.1294

 Normal termination of Gaussian 16 at Sun Dec  3 22:01:52 2023.
