 Gaussian 16, Revision B.01,
 Gaussian 16:  ES64L-G16RevB.01 20-Dec-2017

 -------------------------
 #P B3LYP/6-311+g(d) force
 -------------------------

 -----
 DPGEN
 -----
 Symbolic Z-matrix:
 Charge =  0 Multiplicity = 2

                         Standard orientation:
 ---------------------------------------------------------------------
 Center     Atomic      Atomic             Coordinates (Angstroms)
 Number     Number       Type             X           Y           Z
 ---------------------------------------------------------------------
      1         11           0       -0.232301   -0.195231    1.715722
      2         11           0       -3.747341   -0.831795    0.356333
      3         11           0        1.761266    2.513983    0.203711
      4         11           0        3.480098   -0.807066    0.353724
      5         11           0        0.256100   -2.665160   -0.559707
      6         11           0       -2.070106    1.981163   -0.545507
      7         11           0        0.552284    0.004107   -1.524277
 ---------------------------------------------------------------------

 SCF Done:  E(UB3LYP) =  -1136.12454007     A.U. after   22 cycles

 The electronic state is 2-A.
 Alpha  occ. eigenvalues --  -38.45123 -38.44803 -38.44247 -38.43664 -38.43167
 Alpha  occ. eigenvalues --  -38.43091 -38.42892  -2.20908  -2.20574  -2.20129
 Alpha  occ. eigenvalues --   -2.19503  -2.18998  -2.18992  -2.18932  -1.14589
 Alpha  occ. eigenvalues --   -1.14551  -1.14537  -1.14246  -1.14234  -1.14202
 Alpha  occ. eigenvalues --   -1.13851  -1.13777  -1.13725  -1.13193  -1.13171
 Alpha  occ. eigenvalues --   -1.13121  -1.12899  -1.12706  -1.12672  -1.12637
 Alpha  occ. eigenvalues --   -1.12623  -1.12586  -1.12575  -1.12524  -1.12460
 Alpha  occ. eigenvalues --   -0.18400  -0.13369  -0.11879  -0.10334
 Alpha virt. eigenvalues --   -0.06878  -0.05194  -0.04089  -0.03232  -0.02634
 Alpha virt. eigenvalues --   -0.02483  -0.02047  -0.01364  -0.00485  -0.00240
 Alpha virt. eigenvalues --   -0.00118   0.00181   0.00595   0.00682   0.00806

  Beta  occ. eigenvalues --  -38.45105 -38.44793 -38.44201 -38.43651 -38.43165
  Beta  occ. eigenvalues --  -38.43067 -38.42816  -2.20876  -2.20555  -2.20044
  Beta  occ. eigenvalues --   -2.19482  -2.18998  -2.18950  -2.18798  -1.14559
  Beta  occ. eigenvalues --   -1.14527  -1.14513  -1.14232  -1.14216  -1.14190
  Beta  occ. eigenvalues --   -1.13787  -1.13722  -1.13658  -1.13173  -1.13151
  Beta  occ. eigenvalues --   -1.13102  -1.12835  -1.12698  -1.12667  -1.12609
  Beta  occ. eigenvalues --   -1.12590  -1.12551  -1.12500  -1.12435  -1.12375
  Beta  occ. eigenvalues --   -0.17758  -0.13103  -0.11585
  Beta virt. eigenvalues --   -0.06843  -0.06475  -0.05103  -0.04062  -0.02670
  Beta virt. eigenvalues --   -0.02343  -0.01858  -0.01312  -0.01160  -0.00425
  Beta virt. eigenvalues --   -0.00218   0.00027   0.00243   0.00725   0.00753

 Mulliken charges and spin densities:
               1          2
     1  Na  -0.372853   0.733325
     2  Na   0.049497   0.051504
     3  Na  -0.183733   0.015250
     4  Na   0.010880   0.141095
     5  Na   0.037629  -0.101776
     6  Na   0.024556  -0.039527
     7  Na   0.434025   0.200129
 Sum of Mulliken charges =  -0.00000   1.00000

 Dipole moment (field-independent basis, Debye):
    X=              0.0556    Y=             -0.2553    Z=              0.2401  Tot=              0.3549
 Quadrupole moment (field-independent basis, Debye-Ang):
   XX=            -48.6256   YY=            -67.4762   ZZ=            -75.1824
   XY=             -0.0046   XZ=              1.4271   YZ=             -0.3831

 Normal termination of Gaussian 16 at Tue Dec  5 21:57:39 2023.
