 Gaussian 16, Revision B.01,
 Gaussian 16:  ES64L-G16RevB.01 20-Dec-2017

 -------------------------
 #P B3LYP/6-311+g(d) force
 -------------------------

 -----
 DPGEN
 -----
 Symbolic Z-matrix:
 Charge =  0 Multiplicity = 2

                         Standard orientation:
 ---------------------------------------------------------------------
 Center     Atomic      Atomic             Coordinates (Angstroms)
 Number     Number       Type             X           Y           Z
 ---------------------------------------------------------------------
      1         11           0        0.095582   -0.045477   -1.889226
      2         11           0        1.576124   -2.316700   -0.020357
      3         11           0       -2.762718    1.644668    0.075498
      4         11           0       -2.486765   -1.611516   -0.346347
      5         11           0       -0.464349   -0.656876    1.920369
      6         11           0        3.193116    0.576752    0.098495
      7         11           0        0.849009    2.409149    0.161569
 ---------------------------------------------------------------------

 SCF Done:  E(UB3LYP) =  -1136.13203140     A.U. after   20 cycles

 The electronic state is 2-A.
 Alpha  occ. eigenvalues --  -38.44407 -38.44081 -38.44062 -38.43625 -38.43610
 Alpha  occ. eigenvalues --  -38.43234 -38.42952  -2.20280  -2.19943  -2.19903
 Alpha  occ. eigenvalues --   -2.19555  -2.19545  -2.19117  -2.18851  -1.13995
 Alpha  occ. eigenvalues --   -1.13923  -1.13919  -1.13656  -1.13625  -1.13597
 Alpha  occ. eigenvalues --   -1.13568  -1.13550  -1.13517  -1.13239  -1.13210
 Alpha  occ. eigenvalues --   -1.13198  -1.13180  -1.13170  -1.13166  -1.12792
 Alpha  occ. eigenvalues --   -1.12785  -1.12742  -1.12537  -1.12509  -1.12485
 Alpha  occ. eigenvalues --   -0.18905  -0.13651  -0.12025  -0.10957
 Alpha virt. eigenvalues --   -0.06010  -0.05487  -0.03905  -0.03591  -0.02821
 Alpha virt. eigenvalues --   -0.02609  -0.01772  -0.01145  -0.00254  -0.00061
 Alpha virt. eigenvalues --    0.00015   0.00344   0.00725   0.00855   0.00882

  Beta  occ. eigenvalues --  -38.44407 -38.44079 -38.44052 -38.43548 -38.43526
  Beta  occ. eigenvalues --  -38.43227 -38.42945  -2.20281  -2.19929  -2.19903
  Beta  occ. eigenvalues --   -2.19405  -2.19399  -2.19109  -2.18841  -1.13998
  Beta  occ. eigenvalues --   -1.13923  -1.13904  -1.13651  -1.13599  -1.13576
  Beta  occ. eigenvalues --   -1.13553  -1.13544  -1.13517  -1.13142  -1.13115
  Beta  occ. eigenvalues --   -1.13087  -1.13080  -1.13064  -1.13059  -1.12788
  Beta  occ. eigenvalues --   -1.12744  -1.12741  -1.12533  -1.12492  -1.12466
  Beta  occ. eigenvalues --   -0.18159  -0.13434  -0.11781
  Beta virt. eigenvalues --   -0.07034  -0.05922  -0.05490  -0.03863  -0.02791
  Beta virt. eigenvalues --   -0.02023  -0.01686  -0.01570  -0.01099  -0.00310
  Beta virt. eigenvalues --   -0.00017   0.00109   0.00369   0.00800   0.00852

 Mulliken charges and spin densities:
               1          2
     1  Na  -0.462360   0.616579
     2  Na   0.452300  -0.046412
     3  Na  -0.045645  -0.046823
     4  Na   0.497452  -0.065374
     5  Na  -0.510343   0.599802
     6  Na  -0.073467  -0.033678
     7  Na   0.142064  -0.024093
 Sum of Mulliken charges =  -0.00000   1.00000

 Dipole moment (field-independent basis, Debye):
    X=             -0.2152    Y=             -0.1398    Z=              0.0166  Tot=              0.2572
 Quadrupole moment (field-independent basis, Debye-Ang):
   XX=            -52.8903   YY=            -68.8160   ZZ=            -72.9335
   XY=             -0.8345   XZ=              0.8679   YZ=              1.2482

 Normal termination of Gaussian 16 at Tue Dec  5 12:26:26 2023.
