 Gaussian 16, Revision B.01,
 Gaussian 16:  ES64L-G16RevB.01 20-Dec-2017

 -------------------------
 #P B3LYP/6-311+g(d) force
 -------------------------

 -----
 DPGEN
 -----
 Symbolic Z-matrix:
 Charge =  0 Multiplicity = 2

                         Standard orientation:
 ---------------------------------------------------------------------
 Center     Atomic      Atomic             Coordinates (Angstroms)
 Number     Number       Type             X           Y           Z
 ---------------------------------------------------------------------
      1         11           0       -4.488692   -1.858595   -0.900246
      2         11           0       -4.403476    1.361357    0.669786
      3         11           0        2.602076   -0.996559    1.487489
      4         11           0       -0.369991    1.925042    0.316097
      5         11           0        2.337009    1.897786   -1.126814
      6         11           0       -1.078957   -1.404690   -0.030740
      7         11           0        5.402031   -0.924343   -0.415573
 ---------------------------------------------------------------------

 SCF Done:  E(UB3LYP) =  -1136.11015003     A.U. after   24 cycles

 The electronic state is 2-A.
 Alpha  occ. eigenvalues --  -38.45226 -38.45202 -38.44809 -38.44687 -38.44284
 Alpha  occ. eigenvalues --  -38.43286 -38.42824  -2.21006  -2.21000  -2.20569
 Alpha  occ. eigenvalues --   -2.20463  -2.20111  -2.19071  -2.18679  -1.14690
 Alpha  occ. eigenvalues --   -1.14675  -1.14665  -1.14640  -1.14619  -1.14610
 Alpha  occ. eigenvalues --   -1.14249  -1.14240  -1.14209  -1.14156  -1.14126
 Alpha  occ. eigenvalues --   -1.14093  -1.13790  -1.13766  -1.13708  -1.12733
 Alpha  occ. eigenvalues --   -1.12729  -1.12703  -1.12359  -1.12346  -1.12327
 Alpha  occ. eigenvalues --   -0.16666  -0.14179  -0.11296  -0.10857
 Alpha virt. eigenvalues --   -0.07623  -0.05507  -0.04410  -0.03658  -0.03069
 Alpha virt. eigenvalues --   -0.02483  -0.02157  -0.01673  -0.01314  -0.00735
 Alpha virt. eigenvalues --   -0.00425   0.00055   0.00218   0.00339   0.00524

  Beta  occ. eigenvalues --  -38.45184 -38.45151 -38.44825 -38.44684 -38.44205
  Beta  occ. eigenvalues --  -38.43263 -38.42821  -2.20972  -2.20860  -2.20601
  Beta  occ. eigenvalues --   -2.20461  -2.19966  -2.19027  -2.18677  -1.14668
  Beta  occ. eigenvalues --   -1.14651  -1.14594  -1.14569  -1.14543  -1.14518
  Beta  occ. eigenvalues --   -1.14273  -1.14250  -1.14225  -1.14155  -1.14127
  Beta  occ. eigenvalues --   -1.14069  -1.13691  -1.13665  -1.13607  -1.12703
  Beta  occ. eigenvalues --   -1.12698  -1.12675  -1.12358  -1.12342  -1.12312
  Beta  occ. eigenvalues --   -0.16051  -0.13839  -0.11188
  Beta virt. eigenvalues --   -0.07401  -0.07087  -0.05184  -0.03945  -0.03423
  Beta virt. eigenvalues --   -0.02641  -0.02392  -0.01856  -0.01345  -0.00943
  Beta virt. eigenvalues --   -0.00616  -0.00222   0.00182   0.00337   0.00445

 Mulliken charges and spin densities:
               1          2
     1  Na   0.672779   0.118215
     2  Na   0.049454   0.378205
     3  Na   0.366637  -0.204255
     4  Na  -0.452687   0.044459
     5  Na   0.392761   0.195640
     6  Na  -1.198450   0.378114
     7  Na   0.169506   0.089622
 Sum of Mulliken charges =  -0.00000   1.00000

 Dipole moment (field-independent basis, Debye):
    X=             -1.0813    Y=              0.0987    Z=             -0.3938  Tot=              1.1550
 Quadrupole moment (field-independent basis, Debye-Ang):
   XX=            -64.3434   YY=            -71.3726   ZZ=            -65.2505
   XY=              4.4376   XZ=             -3.2131   YZ=              1.4924

 Normal termination of Gaussian 16 at Sun Dec  3 17:39:37 2023.
