 Gaussian 16, Revision B.01,
 Gaussian 16:  ES64L-G16RevB.01 20-Dec-2017

 -------------------------
 #P B3LYP/6-311+g(d) force
 -------------------------

 -----
 DPGEN
 -----
 Symbolic Z-matrix:
 Charge =  0 Multiplicity = 2

                         Standard orientation:
 ---------------------------------------------------------------------
 Center     Atomic      Atomic             Coordinates (Angstroms)
 Number     Number       Type             X           Y           Z
 ---------------------------------------------------------------------
      1         11           0       -3.824421    1.232764    0.453800
      2         11           0        2.667425    2.797950   -0.109276
      3         11           0        4.211381   -0.044559    0.291113
      4         11           0       -0.973086   -2.812960    0.241637
      5         11           0        2.785748   -2.847249   -0.236212
      6         11           0       -1.215115    3.589493   -0.265482
      7         11           0       -3.651933   -1.915440   -0.375579
 ---------------------------------------------------------------------

 SCF Done:  E(UB3LYP) =  -1136.10594893     A.U. after   23 cycles

 The electronic state is 2-A.
 Alpha  occ. eigenvalues --  -38.45452 -38.45247 -38.44755 -38.44542 -38.44214
 Alpha  occ. eigenvalues --  -38.44197 -38.43712  -2.21267  -2.21036  -2.20573
 Alpha  occ. eigenvalues --   -2.20286  -2.20098  -2.19995  -2.19534  -1.14984
 Alpha  occ. eigenvalues --   -1.14921  -1.14914  -1.14713  -1.14694  -1.14671
 Alpha  occ. eigenvalues --   -1.14251  -1.14244  -1.14237  -1.13968  -1.13959
 Alpha  occ. eigenvalues --   -1.13917  -1.13785  -1.13723  -1.13717  -1.13652
 Alpha  occ. eigenvalues --   -1.13649  -1.13615  -1.13187  -1.13177  -1.13166
 Alpha  occ. eigenvalues --   -0.16000  -0.14519  -0.13265  -0.10800
 Alpha virt. eigenvalues --   -0.07817  -0.04660  -0.04269  -0.03776  -0.03511
 Alpha virt. eigenvalues --   -0.02754  -0.02195  -0.02105  -0.01257  -0.00340
 Alpha virt. eigenvalues --   -0.00141  -0.00116   0.00167   0.00313   0.00385

  Beta  occ. eigenvalues --  -38.45428 -38.45215 -38.44741 -38.44532 -38.44182
  Beta  occ. eigenvalues --  -38.44136 -38.43652  -2.21229  -2.20981  -2.20556
  Beta  occ. eigenvalues --   -2.20272  -2.20040  -2.19884  -2.19422  -1.14935
  Beta  occ. eigenvalues --   -1.14899  -1.14877  -1.14678  -1.14659  -1.14612
  Beta  occ. eigenvalues --   -1.14240  -1.14235  -1.14183  -1.13961  -1.13952
  Beta  occ. eigenvalues --   -1.13889  -1.13736  -1.13688  -1.13677  -1.13577
  Beta  occ. eigenvalues --   -1.13575  -1.13536  -1.13116  -1.13100  -1.13089
  Beta  occ. eigenvalues --   -0.15490  -0.13777  -0.12509
  Beta virt. eigenvalues --   -0.08020  -0.07561  -0.04315  -0.03765  -0.03609
  Beta virt. eigenvalues --   -0.03012  -0.02543  -0.01971  -0.01907  -0.01134
  Beta virt. eigenvalues --   -0.00053   0.00104   0.00147   0.00205   0.00343

 Mulliken charges and spin densities:
               1          2
     1  Na  -0.133155   0.141778
     2  Na   0.091127   0.279085
     3  Na   0.039353   0.027969
     4  Na  -0.570961   0.148405
     5  Na   0.128956   0.252591
     6  Na   0.142192   0.040047
     7  Na   0.302488   0.110125
 Sum of Mulliken charges =  -0.00000   1.00000

 Dipole moment (field-independent basis, Debye):
    X=             -0.9262    Y=             -0.2750    Z=              0.0373  Tot=              0.9669
 Quadrupole moment (field-independent basis, Debye-Ang):
   XX=            -58.9231   YY=            -69.9025   ZZ=            -72.7924
   XY=              0.7021   XZ=              0.2716   YZ=             -0.3312

 Normal termination of Gaussian 16 at Sun Dec  3 11:38:46 2023.
