 Gaussian 16, Revision B.01,
 Gaussian 16:  ES64L-G16RevB.01 20-Dec-2017

 -------------------------
 #P B3LYP/6-311+g(d) force
 -------------------------

 -----
 DPGEN
 -----
 Symbolic Z-matrix:
 Charge =  0 Multiplicity = 2

                         Standard orientation:
 ---------------------------------------------------------------------
 Center     Atomic      Atomic             Coordinates (Angstroms)
 Number     Number       Type             X           Y           Z
 ---------------------------------------------------------------------
      1         11           0       -1.866638   -0.142031    2.636812
      2         11           0       -3.901818    0.899529    0.003300
      3         11           0        3.095433    1.193608   -0.205906
      4         11           0       -3.343399   -2.191747   -1.273150
      5         11           0        5.820769   -1.082472    0.188857
      6         11           0       -0.412205    2.236515   -1.016437
      7         11           0        0.607858   -0.913402   -0.333475
 ---------------------------------------------------------------------

 SCF Done:  E(UB3LYP) =  -1136.10128974     A.U. after   28 cycles

 The electronic state is 2-A.
 Alpha  occ. eigenvalues --  -38.46116 -38.45877 -38.45094 -38.44260 -38.43915
 Alpha  occ. eigenvalues --  -38.43569 -38.43295  -2.21920  -2.21665  -2.20905
 Alpha  occ. eigenvalues --   -2.20057  -2.19740  -2.19318  -2.19108  -1.15615
 Alpha  occ. eigenvalues --   -1.15572  -1.15540  -1.15346  -1.15323  -1.15316
 Alpha  occ. eigenvalues --   -1.14561  -1.14522  -1.14511  -1.13716  -1.13704
 Alpha  occ. eigenvalues --   -1.13677  -1.13452  -1.13436  -1.13318  -1.12987
 Alpha  occ. eigenvalues --   -1.12985  -1.12948  -1.12786  -1.12768  -1.12751
 Alpha  occ. eigenvalues --   -0.17284  -0.13844  -0.11383  -0.10775
 Alpha virt. eigenvalues --   -0.08267  -0.05468  -0.04705  -0.03453  -0.03181
 Alpha virt. eigenvalues --   -0.02582  -0.02459  -0.02162  -0.01187  -0.01023
 Alpha virt. eigenvalues --   -0.00543  -0.00102  -0.00095   0.00434   0.00442

  Beta  occ. eigenvalues --  -38.46106 -38.45884 -38.44976 -38.44197 -38.43915
  Beta  occ. eigenvalues --  -38.43559 -38.43297  -2.21903  -2.21682  -2.20687
  Beta  occ. eigenvalues --   -2.19940  -2.19741  -2.19299  -2.19112  -1.15586
  Beta  occ. eigenvalues --   -1.15562  -1.15530  -1.15346  -1.15335  -1.15310
  Beta  occ. eigenvalues --   -1.14409  -1.14372  -1.14366  -1.13635  -1.13619
  Beta  occ. eigenvalues --   -1.13603  -1.13454  -1.13436  -1.13316  -1.12974
  Beta  occ. eigenvalues --   -1.12972  -1.12936  -1.12787  -1.12769  -1.12754
  Beta  occ. eigenvalues --   -0.16729  -0.13594  -0.10607
  Beta virt. eigenvalues --   -0.08121  -0.07351  -0.05297  -0.04531  -0.03001
  Beta virt. eigenvalues --   -0.02951  -0.02075  -0.01852  -0.01828  -0.01052
  Beta virt. eigenvalues --   -0.00829  -0.00455  -0.00077   0.00137   0.00497

 Mulliken charges and spin densities:
               1          2
     1  Na   0.051397   0.433646
     2  Na   0.261871   0.289011
     3  Na   0.067831  -0.013162
     4  Na   0.303149   0.163052
     5  Na   0.246223   0.028797
     6  Na   0.116790  -0.097584
     7  Na  -1.047262   0.196241
 Sum of Mulliken charges =  -0.00000   1.00000

 Dipole moment (field-independent basis, Debye):
    X=             -1.9252    Y=              0.4630    Z=              0.0348  Tot=              1.9804
 Quadrupole moment (field-independent basis, Debye-Ang):
   XX=            -72.3635   YY=            -63.7193   ZZ=            -74.9674
   XY=             -6.2177   XZ=              1.4451   YZ=             -0.9876

 Normal termination of Gaussian 16 at Wed Nov 29 01:04:02 2023.
