 Gaussian 16, Revision B.01,
 Gaussian 16:  ES64L-G16RevB.01 20-Dec-2017

 -------------------------
 #P B3LYP/6-311+g(d) force
 -------------------------

 -----
 DPGEN
 -----
 Symbolic Z-matrix:
 Charge =  0 Multiplicity = 2

                         Standard orientation:
 ---------------------------------------------------------------------
 Center     Atomic      Atomic             Coordinates (Angstroms)
 Number     Number       Type             X           Y           Z
 ---------------------------------------------------------------------
      1         11           0       -1.989637    2.498869   -0.410381
      2         11           0       -0.894025   -1.989196   -1.199556
      3         11           0        0.220786   -0.874481    2.120755
      4         11           0        0.622547    1.001529   -1.347236
      5         11           0        2.382679    2.088855    0.724370
      6         11           0        2.821104   -1.810706   -0.482900
      7         11           0       -3.163453   -0.914869    0.594948
 ---------------------------------------------------------------------

 SCF Done:  E(UB3LYP) =  -1136.12532073     A.U. after   20 cycles

 The electronic state is 2-A.
 Alpha  occ. eigenvalues --  -38.44454 -38.44294 -38.44167 -38.44072 -38.43972
 Alpha  occ. eigenvalues --  -38.43565 -38.43030  -2.20280  -2.20075  -2.19993
 Alpha  occ. eigenvalues --   -2.19904  -2.19766  -2.19452  -2.19013  -1.14022
 Alpha  occ. eigenvalues --   -1.13926  -1.13878  -1.13751  -1.13725  -1.13719
 Alpha  occ. eigenvalues --   -1.13662  -1.13633  -1.13621  -1.13608  -1.13552
 Alpha  occ. eigenvalues --   -1.13531  -1.13472  -1.13423  -1.13386  -1.13146
 Alpha  occ. eigenvalues --   -1.13098  -1.13066  -1.12709  -1.12675  -1.12611
 Alpha  occ. eigenvalues --   -0.18120  -0.13086  -0.12000  -0.10993
 Alpha virt. eigenvalues --   -0.05981  -0.05693  -0.04066  -0.03586  -0.02921
 Alpha virt. eigenvalues --   -0.02625  -0.01731  -0.01341  -0.00531  -0.00059
 Alpha virt. eigenvalues --    0.00031   0.00333   0.00506   0.00703   0.00767

  Beta  occ. eigenvalues --  -38.44437 -38.44287 -38.44087 -38.44066 -38.43968
  Beta  occ. eigenvalues --  -38.43533 -38.42994  -2.20250  -2.20064  -2.19894
  Beta  occ. eigenvalues --   -2.19845  -2.19761  -2.19396  -2.18948  -1.14003
  Beta  occ. eigenvalues --   -1.13895  -1.13859  -1.13734  -1.13717  -1.13706
  Beta  occ. eigenvalues --   -1.13616  -1.13566  -1.13540  -1.13529  -1.13521
  Beta  occ. eigenvalues --   -1.13492  -1.13462  -1.13415  -1.13385  -1.13104
  Beta  occ. eigenvalues --   -1.13042  -1.13030  -1.12649  -1.12633  -1.12562
  Beta  occ. eigenvalues --   -0.17409  -0.12911  -0.11787
  Beta virt. eigenvalues --   -0.07134  -0.05935  -0.05497  -0.03828  -0.03013
  Beta virt. eigenvalues --   -0.02333  -0.01676  -0.01636  -0.01225  -0.00431
  Beta virt. eigenvalues --    0.00023   0.00092   0.00374   0.00613   0.00754

 Mulliken charges and spin densities:
               1          2
     1  Na  -0.247888   0.038404
     2  Na  -0.248168   0.107536
     3  Na  -0.421453   0.594354
     4  Na   0.613882  -0.021161
     5  Na  -0.081456   0.153760
     6  Na   0.169040  -0.020698
     7  Na   0.216042   0.147806
 Sum of Mulliken charges =  -0.00000   1.00000

 Dipole moment (field-independent basis, Debye):
    X=              0.2922    Y=             -0.0910    Z=              0.4899  Tot=              0.5777
 Quadrupole moment (field-independent basis, Debye-Ang):
   XX=            -54.3166   YY=            -67.7824   ZZ=            -71.7418
   XY=             -1.0775   XZ=             -0.1165   YZ=              2.8492

 Normal termination of Gaussian 16 at Thu Dec  7 21:39:37 2023.
