 Gaussian 16, Revision B.01,
 Gaussian 16:  ES64L-G16RevB.01 20-Dec-2017

 -------------------------
 #P B3LYP/6-311+g(d) force
 -------------------------

 -----
 DPGEN
 -----
 Symbolic Z-matrix:
 Charge =  0 Multiplicity = 2

                         Standard orientation:
 ---------------------------------------------------------------------
 Center     Atomic      Atomic             Coordinates (Angstroms)
 Number     Number       Type             X           Y           Z
 ---------------------------------------------------------------------
      1         11           0       -4.937131   -0.790253   -0.753782
      2         11           0       -0.420908    2.940101   -0.993385
      3         11           0        1.843794   -0.809160    2.001064
      4         11           0        3.579821   -1.329911   -1.739484
      5         11           0        0.215441   -2.534985   -0.061705
      6         11           0        2.396060    2.147061    0.503311
      7         11           0       -2.677078    0.377146    1.043982
 ---------------------------------------------------------------------

 SCF Done:  E(UB3LYP) =  -1136.10777843     A.U. after   22 cycles

 The electronic state is 2-A.
 Alpha  occ. eigenvalues --  -38.44820 -38.44732 -38.44382 -38.44372 -38.44275
 Alpha  occ. eigenvalues --  -38.44264 -38.44083  -2.20605  -2.20516  -2.20165
 Alpha  occ. eigenvalues --   -2.20145  -2.20113  -2.20064  -2.19889  -1.14283
 Alpha  occ. eigenvalues --   -1.14253  -1.14250  -1.14222  -1.14189  -1.14136
 Alpha  occ. eigenvalues --   -1.13839  -1.13821  -1.13819  -1.13811  -1.13804
 Alpha  occ. eigenvalues --   -1.13794  -1.13781  -1.13768  -1.13732  -1.13716
 Alpha  occ. eigenvalues --   -1.13697  -1.13662  -1.13564  -1.13544  -1.13518
 Alpha  occ. eigenvalues --   -0.16592  -0.13539  -0.12040  -0.10679
 Alpha virt. eigenvalues --   -0.07361  -0.05493  -0.04519  -0.03521  -0.02826
 Alpha virt. eigenvalues --   -0.02725  -0.02456  -0.01480  -0.01152  -0.00640
 Alpha virt. eigenvalues --   -0.00461  -0.00044   0.00156   0.00246   0.00475

  Beta  occ. eigenvalues --  -38.44802 -38.44727 -38.44386 -38.44373 -38.44221
  Beta  occ. eigenvalues --  -38.44159 -38.44080  -2.20570  -2.20510  -2.20169
  Beta  occ. eigenvalues --   -2.20151  -2.20035  -2.19884  -2.19847  -1.14262
  Beta  occ. eigenvalues --   -1.14229  -1.14226  -1.14205  -1.14183  -1.14125
  Beta  occ. eigenvalues --   -1.13844  -1.13825  -1.13822  -1.13810  -1.13800
  Beta  occ. eigenvalues --   -1.13793  -1.13727  -1.13714  -1.13674  -1.13568
  Beta  occ. eigenvalues --   -1.13548  -1.13547  -1.13541  -1.13519  -1.13513
  Beta  occ. eigenvalues --   -0.16073  -0.13215  -0.11887
  Beta virt. eigenvalues --   -0.07246  -0.06877  -0.05100  -0.04332  -0.03398
  Beta virt. eigenvalues --   -0.02438  -0.02350  -0.01994  -0.01090  -0.00788
  Beta virt. eigenvalues --   -0.00493  -0.00425   0.00181   0.00222   0.00439

 Mulliken charges and spin densities:
               1          2
     1  Na   0.280332   0.056686
     2  Na   0.395994  -0.051496
     3  Na   0.809781   0.221751
     4  Na  -0.151290   0.612150
     5  Na  -0.206472  -0.014724
     6  Na  -0.466019   0.144267
     7  Na  -0.662325   0.031366
 Sum of Mulliken charges =  -0.00000   1.00000

 Dipole moment (field-independent basis, Debye):
    X=             -1.0937    Y=             -0.3165    Z=             -0.1110  Tot=              1.1440
 Quadrupole moment (field-independent basis, Debye-Ang):
   XX=            -61.1064   YY=            -72.8439   ZZ=            -67.8674
   XY=              4.0050   XZ=              8.7397   YZ=              2.1165

 Normal termination of Gaussian 16 at Sun Dec  3 19:50:46 2023.
