 Gaussian 16, Revision B.01,
 Gaussian 16:  ES64L-G16RevB.01 20-Dec-2017

 -------------------------
 #P B3LYP/6-311+g(d) force
 -------------------------

 -----
 DPGEN
 -----
 Symbolic Z-matrix:
 Charge =  0 Multiplicity = 2

                         Standard orientation:
 ---------------------------------------------------------------------
 Center     Atomic      Atomic             Coordinates (Angstroms)
 Number     Number       Type             X           Y           Z
 ---------------------------------------------------------------------
      1         11           0       -4.267014   -1.611351   -0.716098
      2         11           0       -0.676592    2.989640    0.898505
      3         11           0        5.414195   -0.211654   -0.479098
      4         11           0        2.573932   -1.498296    0.793352
      5         11           0       -0.495160   -2.967876    0.310244
      6         11           0        1.550615    2.160483   -0.893792
      7         11           0       -4.099976    1.139054    0.086888
 ---------------------------------------------------------------------

 SCF Done:  E(UB3LYP) =  -1136.10747791     A.U. after   19 cycles

 The electronic state is 2-A.
 Alpha  occ. eigenvalues --  -38.44840 -38.44723 -38.44702 -38.44675 -38.44335
 Alpha  occ. eigenvalues --  -38.44037 -38.43492  -2.20666  -2.20523  -2.20486
 Alpha  occ. eigenvalues --   -2.20475  -2.20159  -2.19831  -2.19308  -1.14433
 Alpha  occ. eigenvalues --   -1.14312  -1.14285  -1.14182  -1.14165  -1.14161
 Alpha  occ. eigenvalues --   -1.14140  -1.14139  -1.14137  -1.14133  -1.14099
 Alpha  occ. eigenvalues --   -1.14096  -1.13818  -1.13801  -1.13778  -1.13517
 Alpha  occ. eigenvalues --   -1.13510  -1.13479  -1.12991  -1.12956  -1.12943
 Alpha  occ. eigenvalues --   -0.15793  -0.14093  -0.12673  -0.11479
 Alpha virt. eigenvalues --   -0.06662  -0.05415  -0.04235  -0.03546  -0.03355
 Alpha virt. eigenvalues --   -0.02448  -0.02056  -0.01824  -0.00979  -0.00894
 Alpha virt. eigenvalues --   -0.00565  -0.00358  -0.00043   0.00515   0.00668

  Beta  occ. eigenvalues --  -38.44810 -38.44667 -38.44631 -38.44615 -38.44328
  Beta  occ. eigenvalues --  -38.44033 -38.43489  -2.20612  -2.20461  -2.20351
  Beta  occ. eigenvalues --   -2.20325  -2.20150  -2.19834  -2.19304  -1.14394
  Beta  occ. eigenvalues --   -1.14275  -1.14245  -1.14165  -1.14127  -1.14092
  Beta  occ. eigenvalues --   -1.14048  -1.14045  -1.14031  -1.14027  -1.14023
  Beta  occ. eigenvalues --   -1.13985  -1.13803  -1.13796  -1.13765  -1.13526
  Beta  occ. eigenvalues --   -1.13513  -1.13424  -1.12982  -1.12954  -1.12942
  Beta  occ. eigenvalues --   -0.15268  -0.13456  -0.12083
  Beta virt. eigenvalues --   -0.08069  -0.06692  -0.04799  -0.04046  -0.03372
  Beta virt. eigenvalues --   -0.03005  -0.02224  -0.01808  -0.01320  -0.00872
  Beta virt. eigenvalues --   -0.00614  -0.00316  -0.00184   0.00186   0.00623

 Mulliken charges and spin densities:
               1          2
     1  Na   0.560683  -0.003494
     2  Na  -0.013815   0.014987
     3  Na   0.706762   0.433984
     4  Na  -0.226767   0.041137
     5  Na  -0.331237   0.324340
     6  Na  -0.259273   0.018049
     7  Na  -0.436353   0.170999
 Sum of Mulliken charges =  -0.00000   1.00000

 Dipole moment (field-independent basis, Debye):
    X=              0.0297    Y=              0.0060    Z=             -0.3613  Tot=              0.3626
 Quadrupole moment (field-independent basis, Debye-Ang):
   XX=            -60.2054   YY=            -70.2254   ZZ=            -69.0936
   XY=              2.4984   XZ=             -2.8648   YZ=              1.3869

 Normal termination of Gaussian 16 at Mon Dec  4 01:19:10 2023.
