 Gaussian 16, Revision B.01,
 Gaussian 16:  ES64L-G16RevB.01 20-Dec-2017

 -------------------------
 #P B3LYP/6-311+g(d) force
 -------------------------

 -----
 DPGEN
 -----
 Symbolic Z-matrix:
 Charge =  0 Multiplicity = 2

                         Standard orientation:
 ---------------------------------------------------------------------
 Center     Atomic      Atomic             Coordinates (Angstroms)
 Number     Number       Type             X           Y           Z
 ---------------------------------------------------------------------
      1         11           0       -0.613102   -2.858714   -0.007976
      2         11           0       -1.455381    2.634040   -0.310013
      3         11           0        0.229836   -0.197010    2.060117
      4         11           0       -3.090937   -0.368431    0.113572
      5         11           0        3.027149   -1.243152   -0.482162
      6         11           0       -0.278108   -0.128898   -1.576519
      7         11           0        2.180543    2.162165    0.202982
 ---------------------------------------------------------------------

 SCF Done:  E(UB3LYP) =  -1136.13770466     A.U. after   19 cycles

 The electronic state is 2-A.
 Alpha  occ. eigenvalues --  -38.44172 -38.44047 -38.43763 -38.43572 -38.43401
 Alpha  occ. eigenvalues --  -38.43310 -38.43162  -2.19964  -2.19900  -2.19575
 Alpha  occ. eigenvalues --   -2.19451  -2.19266  -2.19155  -2.19150  -1.13640
 Alpha  occ. eigenvalues --   -1.13614  -1.13605  -1.13587  -1.13564  -1.13533
 Alpha  occ. eigenvalues --   -1.13256  -1.13240  -1.13211  -1.13122  -1.13081
 Alpha  occ. eigenvalues --   -1.13066  -1.13001  -1.12926  -1.12889  -1.12881
 Alpha  occ. eigenvalues --   -1.12822  -1.12806  -1.12785  -1.12766  -1.12745
 Alpha  occ. eigenvalues --   -0.18512  -0.13012  -0.12389  -0.10645
 Alpha virt. eigenvalues --   -0.05712  -0.05282  -0.04697  -0.03194  -0.02819
 Alpha virt. eigenvalues --   -0.02479  -0.01624  -0.01148  -0.00463  -0.00415
 Alpha virt. eigenvalues --   -0.00011   0.00345   0.00786   0.00849   0.00864

  Beta  occ. eigenvalues --  -38.44161 -38.44043 -38.43760 -38.43476 -38.43395
  Beta  occ. eigenvalues --  -38.43306 -38.43105  -2.19946  -2.19897  -2.19571
  Beta  occ. eigenvalues --   -2.19274  -2.19259  -2.19148  -2.19046  -1.13615
  Beta  occ. eigenvalues --   -1.13601  -1.13594  -1.13581  -1.13552  -1.13525
  Beta  occ. eigenvalues --   -1.13243  -1.13226  -1.13213  -1.13015  -1.12980
  Beta  occ. eigenvalues --   -1.12958  -1.12940  -1.12893  -1.12877  -1.12861
  Beta  occ. eigenvalues --   -1.12802  -1.12777  -1.12748  -1.12700  -1.12676
  Beta  occ. eigenvalues --   -0.17802  -0.12787  -0.12141
  Beta virt. eigenvalues --   -0.06766  -0.05657  -0.05247  -0.04652  -0.02438
  Beta virt. eigenvalues --   -0.02077  -0.01521  -0.01443  -0.01066  -0.00512
  Beta virt. eigenvalues --   -0.00451   0.00132   0.00379   0.00836   0.00866

 Mulliken charges and spin densities:
               1          2
     1  Na   0.213295  -0.048679
     2  Na   0.078806  -0.045750
     3  Na  -0.402968   0.698845
     4  Na   0.242746   0.005107
     5  Na   0.027017  -0.024354
     6  Na  -0.216427   0.433309
     7  Na   0.057531  -0.018479
 Sum of Mulliken charges =  -0.00000   1.00000

 Dipole moment (field-independent basis, Debye):
    X=              0.0841    Y=             -0.1384    Z=              0.1455  Tot=              0.2178
 Quadrupole moment (field-independent basis, Debye-Ang):
   XX=            -55.7542   YY=            -62.3246   ZZ=            -74.9066
   XY=              0.0702   XZ=             -1.3277   YZ=              0.3070

 Normal termination of Gaussian 16 at Thu Dec  7 12:03:22 2023.
