 Gaussian 16, Revision B.01,
 Gaussian 16:  ES64L-G16RevB.01 20-Dec-2017

 -------------------------
 #P B3LYP/6-311+g(d) force
 -------------------------

 -----
 DPGEN
 -----
 Symbolic Z-matrix:
 Charge =  0 Multiplicity = 2

                         Standard orientation:
 ---------------------------------------------------------------------
 Center     Atomic      Atomic             Coordinates (Angstroms)
 Number     Number       Type             X           Y           Z
 ---------------------------------------------------------------------
      1         11           0       -1.214343   -2.448514    0.170763
      2         11           0        3.058342    0.300467   -0.220065
      3         11           0        1.770533   -2.442771   -0.162481
      4         11           0       -0.340654    0.318418    1.881400
      5         11           0       -3.543672    0.584032   -0.226930
      6         11           0        0.880233    3.261851    0.083280
      7         11           0       -0.610439    0.426517   -1.525967
 ---------------------------------------------------------------------

 SCF Done:  E(UB3LYP) =  -1136.12892831     A.U. after   20 cycles

 The electronic state is 2-A.
 Alpha  occ. eigenvalues --  -38.44621 -38.44222 -38.44004 -38.43775 -38.43415
 Alpha  occ. eigenvalues --  -38.43343 -38.43327  -2.20425  -2.20059  -2.19794
 Alpha  occ. eigenvalues --   -2.19681  -2.19350  -2.19244  -2.19227  -1.14108
 Alpha  occ. eigenvalues --   -1.14075  -1.14057  -1.13773  -1.13721  -1.13681
 Alpha  occ. eigenvalues --   -1.13467  -1.13452  -1.13435  -1.13413  -1.13343
 Alpha  occ. eigenvalues --   -1.13321  -1.13054  -1.12993  -1.12966  -1.12918
 Alpha  occ. eigenvalues --   -1.12906  -1.12868  -1.12864  -1.12853  -1.12851
 Alpha  occ. eigenvalues --   -0.18479  -0.13145  -0.12616  -0.10335
 Alpha virt. eigenvalues --   -0.06374  -0.05314  -0.04624  -0.03038  -0.02809
 Alpha virt. eigenvalues --   -0.02239  -0.01982  -0.01398  -0.00596  -0.00276
 Alpha virt. eigenvalues --   -0.00016   0.00281   0.00724   0.00791   0.00833

  Beta  occ. eigenvalues --  -38.44609 -38.44213 -38.44002 -38.43763 -38.43366
  Beta  occ. eigenvalues --  -38.43323 -38.43252  -2.20406  -2.20044  -2.19793
  Beta  occ. eigenvalues --   -2.19663  -2.19260  -2.19223  -2.19076  -1.14085
  Beta  occ. eigenvalues --   -1.14058  -1.14042  -1.13766  -1.13697  -1.13670
  Beta  occ. eigenvalues --   -1.13458  -1.13443  -1.13436  -1.13405  -1.13319
  Beta  occ. eigenvalues --   -1.13288  -1.12985  -1.12929  -1.12905  -1.12898
  Beta  occ. eigenvalues --   -1.12866  -1.12827  -1.12807  -1.12751  -1.12728
  Beta  occ. eigenvalues --   -0.17812  -0.12849  -0.12407
  Beta virt. eigenvalues --   -0.06613  -0.06193  -0.05233  -0.04586  -0.02358
  Beta virt. eigenvalues --   -0.02113  -0.01895  -0.01387  -0.01158  -0.00617
  Beta virt. eigenvalues --   -0.00276   0.00150   0.00349   0.00739   0.00857

 Mulliken charges and spin densities:
               1          2
     1  Na   0.469501   0.198077
     2  Na   0.067678   0.067290
     3  Na  -0.348036  -0.057352
     4  Na  -0.268968   0.454871
     5  Na   0.263347   0.024835
     6  Na   0.100204  -0.017339
     7  Na  -0.283726   0.329619
 Sum of Mulliken charges =   0.00000   1.00000

 Dipole moment (field-independent basis, Debye):
    X=             -0.5710    Y=              0.5893    Z=              0.1476  Tot=              0.8337
 Quadrupole moment (field-independent basis, Debye-Ang):
   XX=            -55.6431   YY=            -61.4187   ZZ=            -76.2438
   XY=              0.4436   XZ=             -0.8670   YZ=              0.1821

 Normal termination of Gaussian 16 at Tue Dec  5 17:32:07 2023.
