 Gaussian 16, Revision B.01,
 Gaussian 16:  ES64L-G16RevB.01 20-Dec-2017

 -------------------------
 #P B3LYP/6-311+g(d) force
 -------------------------

 -----
 DPGEN
 -----
 Symbolic Z-matrix:
 Charge =  0 Multiplicity = 2

                         Standard orientation:
 ---------------------------------------------------------------------
 Center     Atomic      Atomic             Coordinates (Angstroms)
 Number     Number       Type             X           Y           Z
 ---------------------------------------------------------------------
      1         11           0        1.456494    0.446803    1.880615
      2         11           0        2.708646   -1.112340   -0.745149
      3         11           0        0.886003    2.845800   -0.721767
      4         11           0       -1.968822    1.256617    1.314066
      5         11           0        0.107817   -2.552293    0.781426
      6         11           0       -0.032723   -0.064961   -1.760466
      7         11           0       -3.157414   -0.819624   -0.748724
 ---------------------------------------------------------------------

 SCF Done:  E(UB3LYP) =  -1136.13308103     A.U. after   20 cycles

 The electronic state is 2-A.
 Alpha  occ. eigenvalues --  -38.43908 -38.43886 -38.43862 -38.43604 -38.43580
 Alpha  occ. eigenvalues --  -38.43529 -38.43232  -2.19802  -2.19763  -2.19734
 Alpha  occ. eigenvalues --   -2.19561  -2.19451  -2.19369  -2.19060  -1.13541
 Alpha  occ. eigenvalues --   -1.13498  -1.13459  -1.13416  -1.13414  -1.13404
 Alpha  occ. eigenvalues --   -1.13384  -1.13367  -1.13352  -1.13219  -1.13209
 Alpha  occ. eigenvalues --   -1.13200  -1.13135  -1.13113  -1.13062  -1.13035
 Alpha  occ. eigenvalues --   -1.13022  -1.12993  -1.12751  -1.12701  -1.12690
 Alpha  occ. eigenvalues --   -0.18651  -0.12997  -0.11981  -0.11717
 Alpha virt. eigenvalues --   -0.05414  -0.04838  -0.04482  -0.03455  -0.03303
 Alpha virt. eigenvalues --   -0.03046  -0.01258  -0.00876  -0.00554   0.00227
 Alpha virt. eigenvalues --    0.00299   0.00420   0.00606   0.00770   0.00878

  Beta  occ. eigenvalues --  -38.43896 -38.43860 -38.43798 -38.43589 -38.43524
  Beta  occ. eigenvalues --  -38.43505 -38.43222  -2.19782  -2.19688  -2.19646
  Beta  occ. eigenvalues --   -2.19429  -2.19425  -2.19362  -2.19045  -1.13512
  Beta  occ. eigenvalues --   -1.13460  -1.13399  -1.13390  -1.13379  -1.13346
  Beta  occ. eigenvalues --   -1.13332  -1.13312  -1.13278  -1.13141  -1.13124
  Beta  occ. eigenvalues --   -1.13112  -1.13099  -1.13077  -1.13047  -1.13020
  Beta  occ. eigenvalues --   -1.13007  -1.12988  -1.12728  -1.12694  -1.12673
  Beta  occ. eigenvalues --   -0.17867  -0.12818  -0.11761
  Beta virt. eigenvalues --   -0.07724  -0.05325  -0.04538  -0.04308  -0.03020
  Beta virt. eigenvalues --   -0.02612  -0.02063  -0.01206  -0.00824  -0.00232
  Beta virt. eigenvalues --    0.00265   0.00330   0.00443   0.00712   0.00884

 Mulliken charges and spin densities:
               1          2
     1  Na   0.029227   0.501905
     2  Na   0.555876  -0.057262
     3  Na  -0.096236  -0.062425
     4  Na  -0.286695   0.105121
     5  Na  -0.331067   0.066891
     6  Na  -0.228715   0.489410
     7  Na   0.357609  -0.043640
 Sum of Mulliken charges =  -0.00000   1.00000

 Dipole moment (field-independent basis, Debye):
    X=              0.1731    Y=             -0.1678    Z=              0.1846  Tot=              0.3036
 Quadrupole moment (field-independent basis, Debye-Ang):
   XX=            -60.3533   YY=            -67.7169   ZZ=            -67.2601
   XY=              0.3326   XZ=             -0.8543   YZ=             -0.3138

 Normal termination of Gaussian 16 at Mon Dec  4 03:52:45 2023.
