 Gaussian 16, Revision B.01,
 Gaussian 16:  ES64L-G16RevB.01 20-Dec-2017

 -------------------------
 #P B3LYP/6-311+g(d) force
 -------------------------

 -----
 DPGEN
 -----
 Symbolic Z-matrix:
 Charge =  0 Multiplicity = 2

                         Standard orientation:
 ---------------------------------------------------------------------
 Center     Atomic      Atomic             Coordinates (Angstroms)
 Number     Number       Type             X           Y           Z
 ---------------------------------------------------------------------
      1         11           0       -2.394832   -1.857124   -0.120567
      2         11           0       -0.030767    0.113657    2.281527
      3         11           0        3.007780    0.320210   -0.289454
      4         11           0        0.683245    3.233693   -0.138227
      5         11           0        1.483263   -2.883874   -0.155686
      6         11           0       -2.937341    1.132916   -0.407887
      7         11           0        0.188652   -0.059479   -1.169706
 ---------------------------------------------------------------------

 SCF Done:  E(UB3LYP) =  -1136.13166914     A.U. after   19 cycles

 The electronic state is 2-A.
 Alpha  occ. eigenvalues --  -38.44158 -38.43978 -38.43786 -38.43755 -38.43662
 Alpha  occ. eigenvalues --  -38.43653 -38.42868  -2.20020  -2.19828  -2.19654
 Alpha  occ. eigenvalues --   -2.19542  -2.19502  -2.19481  -2.18928  -1.13771
 Alpha  occ. eigenvalues --   -1.13672  -1.13613  -1.13565  -1.13489  -1.13461
 Alpha  occ. eigenvalues --   -1.13326  -1.13299  -1.13267  -1.13218  -1.13199
 Alpha  occ. eigenvalues --   -1.13187  -1.13169  -1.13162  -1.13136  -1.13121
 Alpha  occ. eigenvalues --   -1.13120  -1.13108  -1.12623  -1.12596  -1.12536
 Alpha  occ. eigenvalues --   -0.18403  -0.13212  -0.12258  -0.10506
 Alpha virt. eigenvalues --   -0.05593  -0.05209  -0.05126  -0.03011  -0.02619
 Alpha virt. eigenvalues --   -0.02471  -0.01524  -0.01442  -0.00627  -0.00538
 Alpha virt. eigenvalues --   -0.00025   0.00316   0.00780   0.00813   0.00822

  Beta  occ. eigenvalues --  -38.44148 -38.43969 -38.43782 -38.43754 -38.43661
  Beta  occ. eigenvalues --  -38.43534 -38.42834  -2.20006  -2.19813  -2.19649
  Beta  occ. eigenvalues --   -2.19543  -2.19481  -2.19282  -2.18870  -1.13758
  Beta  occ. eigenvalues --   -1.13646  -1.13606  -1.13558  -1.13471  -1.13444
  Beta  occ. eigenvalues --   -1.13321  -1.13280  -1.13260  -1.13210  -1.13193
  Beta  occ. eigenvalues --   -1.13190  -1.13164  -1.13130  -1.13115  -1.13015
  Beta  occ. eigenvalues --   -1.12969  -1.12953  -1.12565  -1.12550  -1.12497
  Beta  occ. eigenvalues --   -0.17721  -0.12962  -0.12096
  Beta virt. eigenvalues --   -0.06511  -0.05559  -0.05192  -0.05054  -0.02277
  Beta virt. eigenvalues --   -0.01907  -0.01437  -0.01401  -0.01361  -0.00652
  Beta virt. eigenvalues --   -0.00557   0.00163   0.00375   0.00813   0.00837

 Mulliken charges and spin densities:
               1          2
     1  Na   0.395426   0.099165
     2  Na  -0.542300   0.749114
     3  Na   0.470706   0.081473
     4  Na   0.152790   0.023313
     5  Na   0.312571   0.071917
     6  Na   0.241711   0.063929
     7  Na  -1.030904  -0.088910
 Sum of Mulliken charges =  -0.00000   1.00000

 Dipole moment (field-independent basis, Debye):
    X=              0.0641    Y=              0.0477    Z=              0.1905  Tot=              0.2065
 Quadrupole moment (field-independent basis, Debye-Ang):
   XX=            -57.8911   YY=            -58.2337   ZZ=            -76.4289
   XY=             -0.5242   XZ=              0.4599   YZ=             -0.5125

 Normal termination of Gaussian 16 at Fri Dec  8 01:24:55 2023.
