 Gaussian 16, Revision B.01,
 Gaussian 16:  ES64L-G16RevB.01 20-Dec-2017

 -------------------------
 #P B3LYP/6-311+g(d) force
 -------------------------

 -----
 DPGEN
 -----
 Symbolic Z-matrix:
 Charge =  0 Multiplicity = 2

                         Standard orientation:
 ---------------------------------------------------------------------
 Center     Atomic      Atomic             Coordinates (Angstroms)
 Number     Number       Type             X           Y           Z
 ---------------------------------------------------------------------
      1         11           0       -5.456173    1.293043   -1.854586
      2         11           0        7.490076   -1.340042   -1.210606
      3         11           0        1.947757    2.715605    0.697689
      4         11           0       -0.875004    0.966212    1.337865
      5         11           0        4.929265   -0.160813   -0.150235
      6         11           0       -2.332189   -1.890508    1.847970
      7         11           0       -5.703733   -1.583498   -0.668098
 ---------------------------------------------------------------------

 SCF Done:  E(UB3LYP) =  -1136.10311650     A.U. after   18 cycles

 The electronic state is 2-A.
 Alpha  occ. eigenvalues --  -38.45102 -38.45001 -38.44728 -38.44705 -38.44050
 Alpha  occ. eigenvalues --  -38.43853 -38.43701  -2.20913  -2.20794  -2.20502
 Alpha  occ. eigenvalues --   -2.20497  -2.19841  -2.19661  -2.19491  -1.14559
 Alpha  occ. eigenvalues --   -1.14548  -1.14523  -1.14467  -1.14440  -1.14436
 Alpha  occ. eigenvalues --   -1.14171  -1.14151  -1.14149  -1.14144  -1.14133
 Alpha  occ. eigenvalues --   -1.14124  -1.13526  -1.13520  -1.13497  -1.13395
 Alpha  occ. eigenvalues --   -1.13304  -1.13304  -1.13155  -1.13154  -1.13093
 Alpha  occ. eigenvalues --   -0.15326  -0.13845  -0.12707  -0.11635
 Alpha virt. eigenvalues --   -0.06777  -0.05375  -0.04188  -0.03592  -0.03414
 Alpha virt. eigenvalues --   -0.02467  -0.02292  -0.01862  -0.01569  -0.01175
 Alpha virt. eigenvalues --   -0.00981  -0.00648  -0.00292   0.00348   0.00430

  Beta  occ. eigenvalues --  -38.45001 -38.44956 -38.44739 -38.44628 -38.44061
  Beta  occ. eigenvalues --  -38.43829 -38.43706  -2.20724  -2.20711  -2.20527
  Beta  occ. eigenvalues --   -2.20352  -2.19869  -2.19616  -2.19504  -1.14435
  Beta  occ. eigenvalues --   -1.14420  -1.14418  -1.14397  -1.14383  -1.14379
  Beta  occ. eigenvalues --   -1.14191  -1.14168  -1.14142  -1.14045  -1.14036
  Beta  occ. eigenvalues --   -1.14029  -1.13547  -1.13544  -1.13468  -1.13370
  Beta  occ. eigenvalues --   -1.13273  -1.13273  -1.13165  -1.13165  -1.13079
  Beta  occ. eigenvalues --   -0.14599  -0.13311  -0.12202
  Beta virt. eigenvalues --   -0.08438  -0.06485  -0.05046  -0.03604  -0.03374
  Beta virt. eigenvalues --   -0.03194  -0.02326  -0.02076  -0.01743  -0.01421
  Beta virt. eigenvalues --   -0.00811  -0.00510  -0.00314  -0.00111   0.00351

 Mulliken charges and spin densities:
               1          2
     1  Na   0.235120   0.217743
     2  Na   0.562566   0.065417
     3  Na  -0.003617   0.352640
     4  Na  -0.853237   0.016617
     5  Na  -0.701171   0.036634
     6  Na   0.964483   0.374706
     7  Na  -0.204144  -0.063756
 Sum of Mulliken charges =  -0.00000   1.00000

 Dipole moment (field-independent basis, Debye):
    X=             -1.7582    Y=             -0.1004    Z=             -0.2778  Tot=              1.7828
 Quadrupole moment (field-independent basis, Debye-Ang):
   XX=            -64.5986   YY=            -59.0397   ZZ=            -73.1653
   XY=              0.8213   XZ=             -2.5922   YZ=             -3.6952

 Normal termination of Gaussian 16 at Mon Dec  4 00:47:00 2023.
