 Gaussian 16, Revision B.01,
 Gaussian 16:  ES64L-G16RevB.01 20-Dec-2017

 -------------------------
 #P B3LYP/6-311+g(d) force
 -------------------------

 -----
 DPGEN
 -----
 Symbolic Z-matrix:
 Charge =  0 Multiplicity = 2

                         Standard orientation:
 ---------------------------------------------------------------------
 Center     Atomic      Atomic             Coordinates (Angstroms)
 Number     Number       Type             X           Y           Z
 ---------------------------------------------------------------------
      1         11           0        0.618474   -1.698929   -0.001332
      2         11           0        2.804820    0.890841    0.348218
      3         11           0       -1.105423    0.895085   -0.962425
      4         11           0       -3.103503   -2.312108   -0.340445
      5         11           0       -3.575890    0.490937    0.972400
      6         11           0        0.486721    3.718370   -0.131191
      7         11           0        3.874800   -1.984195    0.114774
 ---------------------------------------------------------------------

 SCF Done:  E(UB3LYP) =  -1136.12292044     A.U. after   21 cycles

 The electronic state is 2-A.
 Alpha  occ. eigenvalues --  -38.44860 -38.44211 -38.43859 -38.43845 -38.43590
 Alpha  occ. eigenvalues --  -38.43576 -38.43280  -2.20678  -2.20079  -2.19760
 Alpha  occ. eigenvalues --   -2.19743  -2.19449  -2.19382  -2.19192  -1.14368
 Alpha  occ. eigenvalues --   -1.14349  -1.14306  -1.13772  -1.13764  -1.13709
 Alpha  occ. eigenvalues --   -1.13525  -1.13473  -1.13388  -1.13369  -1.13366
 Alpha  occ. eigenvalues --   -1.13315  -1.13108  -1.13094  -1.13085  -1.13051
 Alpha  occ. eigenvalues --   -1.13042  -1.13019  -1.12892  -1.12864  -1.12768
 Alpha  occ. eigenvalues --   -0.17542  -0.14465  -0.12385  -0.10007
 Alpha virt. eigenvalues --   -0.06408  -0.05323  -0.04997  -0.03424  -0.02516
 Alpha virt. eigenvalues --   -0.02300  -0.01733  -0.01502  -0.01156  -0.00642
 Alpha virt. eigenvalues --    0.00144   0.00182   0.00455   0.00572   0.00621

  Beta  occ. eigenvalues --  -38.44853 -38.44196 -38.43820 -38.43782 -38.43595
  Beta  occ. eigenvalues --  -38.43545 -38.43229  -2.20672  -2.20053  -2.19720
  Beta  occ. eigenvalues --   -2.19601  -2.19394  -2.19392  -2.19102  -1.14361
  Beta  occ. eigenvalues --   -1.14342  -1.14269  -1.13756  -1.13752  -1.13666
  Beta  occ. eigenvalues --   -1.13470  -1.13425  -1.13339  -1.13274  -1.13267
  Beta  occ. eigenvalues --   -1.13255  -1.13064  -1.13059  -1.13057  -1.13049
  Beta  occ. eigenvalues --   -1.13046  -1.13024  -1.12827  -1.12802  -1.12694
  Beta  occ. eigenvalues --   -0.16916  -0.13931  -0.12255
  Beta virt. eigenvalues --   -0.06352  -0.06233  -0.05188  -0.04723  -0.02851
  Beta virt. eigenvalues --   -0.02334  -0.01997  -0.01618  -0.01187  -0.00971
  Beta virt. eigenvalues --   -0.00237   0.00339   0.00425   0.00515   0.00700

 Mulliken charges and spin densities:
               1          2
     1  Na  -1.910607  -0.118245
     2  Na  -0.342341   0.139578
     3  Na  -0.842377   0.265606
     4  Na   0.644308   0.060985
     5  Na   0.269552   0.358160
     6  Na   0.458343  -0.088888
     7  Na   1.723120   0.382804
 Sum of Mulliken charges =  -0.00000   1.00000

 Dipole moment (field-independent basis, Debye):
    X=              0.0427    Y=             -0.7189    Z=             -0.1464  Tot=              0.7349
 Quadrupole moment (field-independent basis, Debye-Ang):
   XX=            -68.5918   YY=            -58.4033   ZZ=            -70.6870
   XY=              4.5360   XZ=              1.6695   YZ=              1.9167

 Normal termination of Gaussian 16 at Tue Nov 28 21:03:56 2023.
