 Gaussian 16, Revision B.01,
 Gaussian 16:  ES64L-G16RevB.01 20-Dec-2017

 -------------------------
 #P B3LYP/6-311+g(d) force
 -------------------------

 -----
 DPGEN
 -----
 Symbolic Z-matrix:
 Charge =  0 Multiplicity = 2

                         Standard orientation:
 ---------------------------------------------------------------------
 Center     Atomic      Atomic             Coordinates (Angstroms)
 Number     Number       Type             X           Y           Z
 ---------------------------------------------------------------------
      1         11           0        3.603467   -1.705796   -0.962068
      2         11           0       -3.782722    1.490241   -1.723039
      3         11           0        0.229851   -2.720370    0.852225
      4         11           0        3.617509    1.327734   -0.709971
      5         11           0        0.780716    3.091697    0.979069
      6         11           0       -1.313366    0.296875    1.899052
      7         11           0       -3.135455   -1.780381   -0.335269
 ---------------------------------------------------------------------

 SCF Done:  E(UB3LYP) =  -1136.11223598     A.U. after   23 cycles

 The electronic state is 2-A.
 Alpha  occ. eigenvalues --  -38.45540 -38.45035 -38.44711 -38.44284 -38.44082
 Alpha  occ. eigenvalues --  -38.43915 -38.43359  -2.21312  -2.20823  -2.20520
 Alpha  occ. eigenvalues --   -2.20084  -2.19859  -2.19721  -2.19127  -1.14960
 Alpha  occ. eigenvalues --   -1.14941  -1.14925  -1.14514  -1.14492  -1.14447
 Alpha  occ. eigenvalues --   -1.14206  -1.14181  -1.14129  -1.13801  -1.13752
 Alpha  occ. eigenvalues --   -1.13716  -1.13551  -1.13533  -1.13469  -1.13378
 Alpha  occ. eigenvalues --   -1.13375  -1.13344  -1.12796  -1.12789  -1.12765
 Alpha  occ. eigenvalues --   -0.16365  -0.13881  -0.11949  -0.11610
 Alpha virt. eigenvalues --   -0.06501  -0.05708  -0.04494  -0.03717  -0.03311
 Alpha virt. eigenvalues --   -0.02323  -0.01813  -0.01366  -0.01061  -0.00936
 Alpha virt. eigenvalues --   -0.00445  -0.00241  -0.00075   0.00447   0.00614

  Beta  occ. eigenvalues --  -38.45438 -38.45025 -38.44666 -38.44271 -38.44067
  Beta  occ. eigenvalues --  -38.43895 -38.43339  -2.21124  -2.20809  -2.20439
  Beta  occ. eigenvalues --   -2.20063  -2.19833  -2.19685  -2.19091  -1.14832
  Beta  occ. eigenvalues --   -1.14806  -1.14802  -1.14510  -1.14491  -1.14399
  Beta  occ. eigenvalues --   -1.14149  -1.14128  -1.14060  -1.13779  -1.13739
  Beta  occ. eigenvalues --   -1.13697  -1.13528  -1.13517  -1.13449  -1.13352
  Beta  occ. eigenvalues --   -1.13351  -1.13318  -1.12770  -1.12763  -1.12740
  Beta  occ. eigenvalues --   -0.15720  -0.13236  -0.11463
  Beta virt. eigenvalues --   -0.08215  -0.06377  -0.05472  -0.03941  -0.03507
  Beta virt. eigenvalues --   -0.02898  -0.01888  -0.01619  -0.01100  -0.00922
  Beta virt. eigenvalues --   -0.00814  -0.00282   0.00006   0.00101   0.00544

 Mulliken charges and spin densities:
               1          2
     1  Na   0.077252   0.093007
     2  Na  -0.085594   0.491366
     3  Na  -0.306160   0.018137
     4  Na  -0.045746   0.073141
     5  Na  -0.184642   0.031670
     6  Na   0.268624   0.155395
     7  Na   0.276266   0.137284
 Sum of Mulliken charges =  -0.00000   1.00000

 Dipole moment (field-independent basis, Debye):
    X=             -1.3583    Y=             -0.3416    Z=             -0.5830  Tot=              1.5171
 Quadrupole moment (field-independent basis, Debye-Ang):
   XX=            -63.8375   YY=            -66.4160   ZZ=            -69.3209
   XY=              0.6172   XZ=              0.2184   YZ=             -2.5104

 Normal termination of Gaussian 16 at Sun Dec  3 15:20:00 2023.
