 Gaussian 16, Revision B.01,
 Gaussian 16:  ES64L-G16RevB.01 20-Dec-2017

 -------------------------
 #P B3LYP/6-311+g(d) force
 -------------------------

 -----
 DPGEN
 -----
 Symbolic Z-matrix:
 Charge =  0 Multiplicity = 2

                         Standard orientation:
 ---------------------------------------------------------------------
 Center     Atomic      Atomic             Coordinates (Angstroms)
 Number     Number       Type             X           Y           Z
 ---------------------------------------------------------------------
      1         11           0        0.165058    3.119607    0.059641
      2         11           0        2.089549   -2.481724    0.153584
      3         11           0       -2.803837    1.054270   -0.112616
      4         11           0       -2.246093   -2.322004    0.011948
      5         11           0        0.021784    0.078451    1.750884
      6         11           0       -0.098754   -0.277964   -1.580090
      7         11           0        2.872294    0.829363   -0.283351
 ---------------------------------------------------------------------

 SCF Done:  E(UB3LYP) =  -1136.13896686     A.U. after   19 cycles

 The electronic state is 2-A.
 Alpha  occ. eigenvalues --  -38.43979 -38.43923 -38.43894 -38.43830 -38.43376
 Alpha  occ. eigenvalues --  -38.42973 -38.42943  -2.19802  -2.19756  -2.19736
 Alpha  occ. eigenvalues --   -2.19687  -2.19208  -2.18921  -2.18918  -1.13486
 Alpha  occ. eigenvalues --   -1.13472  -1.13450  -1.13438  -1.13421  -1.13411
 Alpha  occ. eigenvalues --   -1.13405  -1.13386  -1.13367  -1.13365  -1.13350
 Alpha  occ. eigenvalues --   -1.13303  -1.12880  -1.12866  -1.12857  -1.12665
 Alpha  occ. eigenvalues --   -1.12575  -1.12546  -1.12543  -1.12537  -1.12525
 Alpha  occ. eigenvalues --   -0.18646  -0.13170  -0.12451  -0.10177
 Alpha virt. eigenvalues --   -0.05634  -0.05359  -0.05021  -0.03039  -0.02645
 Alpha virt. eigenvalues --   -0.02035  -0.01560  -0.01421  -0.00608  -0.00482
 Alpha virt. eigenvalues --    0.00036   0.00351   0.00809   0.00819   0.00826

  Beta  occ. eigenvalues --  -38.43976 -38.43920 -38.43888 -38.43821 -38.43373
  Beta  occ. eigenvalues --  -38.42892 -38.42878  -2.19800  -2.19747  -2.19733
  Beta  occ. eigenvalues --   -2.19673  -2.19206  -2.18802  -2.18768  -1.13484
  Beta  occ. eigenvalues --   -1.13462  -1.13438  -1.13429  -1.13411  -1.13392
  Beta  occ. eigenvalues --   -1.13389  -1.13378  -1.13364  -1.13352  -1.13320
  Beta  occ. eigenvalues --   -1.13299  -1.12873  -1.12860  -1.12847  -1.12573
  Beta  occ. eigenvalues --   -1.12478  -1.12458  -1.12455  -1.12432  -1.12415
  Beta  occ. eigenvalues --   -0.17936  -0.12919  -0.12225
  Beta virt. eigenvalues --   -0.06317  -0.05635  -0.05302  -0.05010  -0.02246
  Beta virt. eigenvalues --   -0.01930  -0.01470  -0.01343  -0.01040  -0.00663
  Beta virt. eigenvalues --   -0.00515   0.00174   0.00385   0.00808   0.00842

 Mulliken charges and spin densities:
               1          2
     1  Na   0.070966  -0.060165
     2  Na   0.036871  -0.100195
     3  Na   0.192712  -0.048506
     4  Na   0.098903  -0.117017
     5  Na  -0.342462   0.791278
     6  Na  -0.220231   0.541208
     7  Na   0.163240  -0.006603
 Sum of Mulliken charges =  -0.00000   1.00000

 Dipole moment (field-independent basis, Debye):
    X=             -0.0739    Y=             -0.2744    Z=              0.0413  Tot=              0.2872
 Quadrupole moment (field-independent basis, Debye-Ang):
   XX=            -56.1039   YY=            -57.6082   ZZ=            -77.4421
   XY=              0.0308   XZ=             -0.2956   YZ=             -0.9342

 Normal termination of Gaussian 16 at Thu Dec  7 17:56:28 2023.
