 Gaussian 16, Revision B.01,
 Gaussian 16:  ES64L-G16RevB.01 20-Dec-2017

 -------------------------
 #P B3LYP/6-311+g(d) force
 -------------------------

 -----
 DPGEN
 -----
 Symbolic Z-matrix:
 Charge =  0 Multiplicity = 2

                         Standard orientation:
 ---------------------------------------------------------------------
 Center     Atomic      Atomic             Coordinates (Angstroms)
 Number     Number       Type             X           Y           Z
 ---------------------------------------------------------------------
      1         11           0        2.247613   -2.395458    0.070853
      2         11           0        4.154880    1.081318    0.060342
      3         11           0       -2.295209   -0.626359    1.887349
      4         11           0       -1.251007   -2.785862   -0.582796
      5         11           0       -0.905190    3.728402    0.088122
      6         11           0       -2.702975    0.407218   -1.278881
      7         11           0        0.751888    0.590740   -0.244989
 ---------------------------------------------------------------------

 SCF Done:  E(UB3LYP) =  -1136.12069159     A.U. after   23 cycles

 The electronic state is 2-A.
 Alpha  occ. eigenvalues --  -38.45099 -38.44320 -38.44197 -38.44179 -38.43697
 Alpha  occ. eigenvalues --  -38.43605 -38.43260  -2.20914  -2.20102  -2.19980
 Alpha  occ. eigenvalues --   -2.19951  -2.19563  -2.19446  -2.19149  -1.14611
 Alpha  occ. eigenvalues --   -1.14591  -1.14521  -1.13762  -1.13754  -1.13715
 Alpha  occ. eigenvalues --   -1.13670  -1.13656  -1.13624  -1.13616  -1.13589
 Alpha  occ. eigenvalues --   -1.13578  -1.13212  -1.13192  -1.13191  -1.13129
 Alpha  occ. eigenvalues --   -1.13103  -1.13071  -1.12877  -1.12816  -1.12763
 Alpha  occ. eigenvalues --   -0.17458  -0.13391  -0.12372  -0.09707
 Alpha virt. eigenvalues --   -0.07004  -0.05481  -0.05199  -0.02823  -0.02431
 Alpha virt. eigenvalues --   -0.02286  -0.02000  -0.01640  -0.01215  -0.00929
 Alpha virt. eigenvalues --   -0.00191   0.00197   0.00225   0.00426   0.00739

  Beta  occ. eigenvalues --  -38.45097 -38.44271 -38.44194 -38.44165 -38.43599
  Beta  occ. eigenvalues --  -38.43590 -38.43259  -2.20912  -2.20010  -2.19957
  Beta  occ. eigenvalues --   -2.19945  -2.19423  -2.19380  -2.19148  -1.14602
  Beta  occ. eigenvalues --   -1.14578  -1.14519  -1.13699  -1.13691  -1.13661
  Beta  occ. eigenvalues --   -1.13655  -1.13639  -1.13619  -1.13612  -1.13572
  Beta  occ. eigenvalues --   -1.13554  -1.13120  -1.13110  -1.13082  -1.13065
  Beta  occ. eigenvalues --   -1.13062  -1.13015  -1.12869  -1.12811  -1.12766
  Beta  occ. eigenvalues --   -0.17045  -0.12954  -0.11999
  Beta virt. eigenvalues --   -0.06737  -0.06210  -0.05241  -0.05137  -0.02384
  Beta virt. eigenvalues --   -0.02139  -0.02018  -0.01769  -0.01204  -0.00993
  Beta virt. eigenvalues --   -0.00735   0.00107   0.00321   0.00428   0.00514

 Mulliken charges and spin densities:
               1          2
     1  Na   0.559683   0.150829
     2  Na  -0.096646   0.324853
     3  Na   0.085492   0.387518
     4  Na   0.490354   0.121936
     5  Na   0.411648  -0.113402
     6  Na   1.311481  -0.079102
     7  Na  -2.762012   0.207369
 Sum of Mulliken charges =  -0.00000   1.00000

 Dipole moment (field-independent basis, Debye):
    X=             -0.0268    Y=              0.1976    Z=             -0.3791  Tot=              0.4283
 Quadrupole moment (field-independent basis, Debye-Ang):
   XX=            -61.5978   YY=            -62.4245   ZZ=            -71.6771
   XY=             -1.3980   XZ=              5.8548   YZ=              1.9887

 Normal termination of Gaussian 16 at Tue Dec  5 15:12:08 2023.
