 Gaussian 16, Revision B.01,
 Gaussian 16:  ES64L-G16RevB.01 20-Dec-2017

 -------------------------
 #P B3LYP/6-311+g(d) force
 -------------------------

 -----
 DPGEN
 -----
 Symbolic Z-matrix:
 Charge =  0 Multiplicity = 2

                         Standard orientation:
 ---------------------------------------------------------------------
 Center     Atomic      Atomic             Coordinates (Angstroms)
 Number     Number       Type             X           Y           Z
 ---------------------------------------------------------------------
      1         11           0        3.095276   -0.040626    0.138269
      2         11           0        0.934167    2.957515   -0.076398
      3         11           0       -2.494074   -1.629443    0.501875
      4         11           0       -2.530350    1.445268   -0.359797
      5         11           0        1.060632   -2.815135   -0.731471
      6         11           0       -0.238139    0.176247   -1.630486
      7         11           0        0.172488   -0.093826    2.158009
 ---------------------------------------------------------------------

 SCF Done:  E(UB3LYP) =  -1136.13526407     A.U. after   19 cycles

 The electronic state is 2-A.
 Alpha  occ. eigenvalues --  -38.44050 -38.44004 -38.43713 -38.43631 -38.43470
 Alpha  occ. eigenvalues --  -38.43443 -38.43364  -2.19912  -2.19819  -2.19619
 Alpha  occ. eigenvalues --   -2.19490  -2.19361  -2.19291  -2.19258  -1.13576
 Alpha  occ. eigenvalues --   -1.13551  -1.13537  -1.13495  -1.13478  -1.13451
 Alpha  occ. eigenvalues --   -1.13441  -1.13287  -1.13241  -1.13156  -1.13134
 Alpha  occ. eigenvalues --   -1.13113  -1.13028  -1.13016  -1.12983  -1.12949
 Alpha  occ. eigenvalues --   -1.12932  -1.12926  -1.12923  -1.12905  -1.12889
 Alpha  occ. eigenvalues --   -0.18546  -0.13017  -0.12296  -0.11115
 Alpha virt. eigenvalues --   -0.05462  -0.05021  -0.04748  -0.03383  -0.03030
 Alpha virt. eigenvalues --   -0.02773  -0.01353  -0.01135  -0.00339  -0.00224
 Alpha virt. eigenvalues --    0.00005   0.00370   0.00810   0.00894   0.00909

  Beta  occ. eigenvalues --  -38.44002 -38.43955 -38.43704 -38.43620 -38.43450
  Beta  occ. eigenvalues --  -38.43443 -38.43303  -2.19818  -2.19737  -2.19607
  Beta  occ. eigenvalues --   -2.19473  -2.19262  -2.19257  -2.19250  -1.13499
  Beta  occ. eigenvalues --   -1.13480  -1.13457  -1.13450  -1.13420  -1.13413
  Beta  occ. eigenvalues --   -1.13399  -1.13268  -1.13229  -1.13134  -1.13107
  Beta  occ. eigenvalues --   -1.13105  -1.12969  -1.12966  -1.12934  -1.12921
  Beta  occ. eigenvalues --   -1.12909  -1.12902  -1.12891  -1.12890  -1.12857
  Beta  occ. eigenvalues --   -0.17827  -0.12784  -0.12028
  Beta virt. eigenvalues --   -0.07210  -0.05414  -0.04958  -0.04664  -0.02605
  Beta virt. eigenvalues --   -0.02300  -0.01769  -0.01258  -0.01050  -0.00328
  Beta virt. eigenvalues --   -0.00255   0.00117   0.00398   0.00852   0.00902

 Mulliken charges and spin densities:
               1          2
     1  Na   0.058404  -0.027720
     2  Na  -0.070579  -0.067368
     3  Na   0.123494   0.113620
     4  Na   0.298935  -0.017480
     5  Na   0.026847   0.034681
     6  Na  -0.059630   0.328013
     7  Na  -0.377471   0.636254
 Sum of Mulliken charges =  -0.00000   1.00000

 Dipole moment (field-independent basis, Debye):
    X=              0.1516    Y=              0.0187    Z=              0.2926  Tot=              0.3301
 Quadrupole moment (field-independent basis, Debye-Ang):
   XX=            -59.0440   YY=            -62.7188   ZZ=            -72.6832
   XY=              0.6480   XZ=             -0.5352   YZ=              0.5470

 Normal termination of Gaussian 16 at Tue Dec  5 16:13:05 2023.
