 Gaussian 16, Revision B.01,
 Gaussian 16:  ES64L-G16RevB.01 20-Dec-2017

 -------------------------
 #P B3LYP/6-311+g(d) force
 -------------------------

 -----
 DPGEN
 -----
 Symbolic Z-matrix:
 Charge =  0 Multiplicity = 2

                         Standard orientation:
 ---------------------------------------------------------------------
 Center     Atomic      Atomic             Coordinates (Angstroms)
 Number     Number       Type             X           Y           Z
 ---------------------------------------------------------------------
      1         11           0       -3.439711   -0.125625   -0.645107
      2         11           0        2.153713    2.329548   -0.633221
      3         11           0       -1.005956    2.157843    0.565382
      4         11           0       -0.062562   -0.447778   -1.855101
      5         11           0        1.931598   -2.490720   -0.626538
      6         11           0       -1.245141   -1.331371    1.551919
      7         11           0        1.668059   -0.091895    1.642666
 ---------------------------------------------------------------------

 SCF Done:  E(UB3LYP) =  -1136.13509067     A.U. after   19 cycles

 The electronic state is 2-A.
 Alpha  occ. eigenvalues --  -38.43904 -38.43864 -38.43826 -38.43593 -38.43393
 Alpha  occ. eigenvalues --  -38.43371 -38.43300  -2.19822  -2.19729  -2.19697
 Alpha  occ. eigenvalues --   -2.19532  -2.19259  -2.19225  -2.19135  -1.13504
 Alpha  occ. eigenvalues --   -1.13481  -1.13467  -1.13449  -1.13401  -1.13358
 Alpha  occ. eigenvalues --   -1.13346  -1.13345  -1.13302  -1.13215  -1.13182
 Alpha  occ. eigenvalues --   -1.13139  -1.12957  -1.12947  -1.12909  -1.12873
 Alpha  occ. eigenvalues --   -1.12869  -1.12844  -1.12802  -1.12787  -1.12761
 Alpha  occ. eigenvalues --   -0.18688  -0.13026  -0.12028  -0.11692
 Alpha virt. eigenvalues --   -0.05461  -0.04923  -0.04398  -0.03419  -0.03120
 Alpha virt. eigenvalues --   -0.03054  -0.01467  -0.00924  -0.00571   0.00231
 Alpha virt. eigenvalues --    0.00329   0.00335   0.00699   0.00810   0.00841

  Beta  occ. eigenvalues --  -38.43859 -38.43829 -38.43771 -38.43541 -38.43385
  Beta  occ. eigenvalues --  -38.43361 -38.43294  -2.19689  -2.19684  -2.19633
  Beta  occ. eigenvalues --   -2.19441  -2.19248  -2.19209  -2.19126  -1.13417
  Beta  occ. eigenvalues --   -1.13390  -1.13387  -1.13368  -1.13354  -1.13340
  Beta  occ. eigenvalues --   -1.13323  -1.13282  -1.13255  -1.13145  -1.13111
  Beta  occ. eigenvalues --   -1.13079  -1.12951  -1.12913  -1.12882  -1.12870
  Beta  occ. eigenvalues --   -1.12860  -1.12828  -1.12790  -1.12776  -1.12755
  Beta  occ. eigenvalues --   -0.17892  -0.12871  -0.11822
  Beta virt. eigenvalues --   -0.07630  -0.05321  -0.04849  -0.04070  -0.02984
  Beta virt. eigenvalues --   -0.02470  -0.02053  -0.01398  -0.00865  -0.00229
  Beta virt. eigenvalues --    0.00231   0.00361   0.00405   0.00813   0.00868

 Mulliken charges and spin densities:
               1          2
     1  Na   0.637879  -0.030258
     2  Na   0.158359  -0.100717
     3  Na  -0.449075   0.085842
     4  Na  -0.390868   0.639236
     5  Na  -0.066352  -0.079806
     6  Na  -0.261988   0.189756
     7  Na   0.372045   0.295947
 Sum of Mulliken charges =  -0.00000   1.00000

 Dipole moment (field-independent basis, Debye):
    X=             -0.3274    Y=             -0.0790    Z=             -0.1785  Tot=              0.3812
 Quadrupole moment (field-independent basis, Debye-Ang):
   XX=            -57.7094   YY=            -69.1904   ZZ=            -67.9849
   XY=             -0.2352   XZ=              0.1234   YZ=             -0.7666

 Normal termination of Gaussian 16 at Tue Dec  5 12:34:19 2023.
