 Gaussian 16, Revision B.01,
 Gaussian 16:  ES64L-G16RevB.01 20-Dec-2017

 -------------------------
 #P B3LYP/6-311+g(d) force
 -------------------------

 -----
 DPGEN
 -----
 Symbolic Z-matrix:
 Charge =  0 Multiplicity = 2

                         Standard orientation:
 ---------------------------------------------------------------------
 Center     Atomic      Atomic             Coordinates (Angstroms)
 Number     Number       Type             X           Y           Z
 ---------------------------------------------------------------------
      1         11           0        3.245677    0.474507    1.485221
      2         11           0       -4.006603   -1.492193    0.466039
      3         11           0       -0.103399   -0.818766   -2.064623
      4         11           0       -0.514318   -0.547675    1.915540
      5         11           0       -2.744043    1.408424   -0.421859
      6         11           0        0.507470    2.428660   -0.531239
      7         11           0        3.615216   -1.452957   -0.849080
 ---------------------------------------------------------------------

 SCF Done:  E(UB3LYP) =  -1136.11528175     A.U. after   28 cycles

 The electronic state is 2-A.
 Alpha  occ. eigenvalues --  -38.45761 -38.45040 -38.44546 -38.44463 -38.44340
 Alpha  occ. eigenvalues --  -38.43422 -38.42515  -2.21528  -2.20834  -2.20354
 Alpha  occ. eigenvalues --   -2.20317  -2.20166  -2.19212  -2.18351  -1.15229
 Alpha  occ. eigenvalues --   -1.15186  -1.15118  -1.14514  -1.14473  -1.14438
 Alpha  occ. eigenvalues --   -1.14087  -1.14016  -1.14010  -1.13987  -1.13986
 Alpha  occ. eigenvalues --   -1.13927  -1.13824  -1.13802  -1.13793  -1.12901
 Alpha  occ. eigenvalues --   -1.12877  -1.12848  -1.12025  -1.12008  -1.11992
 Alpha  occ. eigenvalues --   -0.17568  -0.13883  -0.11471  -0.10918
 Alpha virt. eigenvalues --   -0.07233  -0.05469  -0.04758  -0.03317  -0.02936
 Alpha virt. eigenvalues --   -0.02747  -0.02403  -0.01409  -0.00999  -0.00382
 Alpha virt. eigenvalues --    0.00010   0.00116   0.00138   0.00265   0.00604

  Beta  occ. eigenvalues --  -38.45708 -38.44963 -38.44529 -38.44459 -38.44327
  Beta  occ. eigenvalues --  -38.43437 -38.42499  -2.21431  -2.20692  -2.20321
  Beta  occ. eigenvalues --   -2.20311  -2.20141  -2.19242  -2.18324  -1.15159
  Beta  occ. eigenvalues --   -1.15121  -1.15040  -1.14417  -1.14376  -1.14330
  Beta  occ. eigenvalues --   -1.14071  -1.14001  -1.13987  -1.13981  -1.13956
  Beta  occ. eigenvalues --   -1.13932  -1.13803  -1.13785  -1.13768  -1.12923
  Beta  occ. eigenvalues --   -1.12895  -1.12865  -1.12002  -1.11994  -1.11961
  Beta  occ. eigenvalues --   -0.16877  -0.13866  -0.10833
  Beta virt. eigenvalues --   -0.07595  -0.06914  -0.05061  -0.04334  -0.02892
  Beta virt. eigenvalues --   -0.02699  -0.02324  -0.01839  -0.01048  -0.00841
  Beta virt. eigenvalues --   -0.00384   0.00057   0.00199   0.00275   0.00433

 Mulliken charges and spin densities:
               1          2
     1  Na   0.136726   0.077016
     2  Na   0.371426  -0.102122
     3  Na  -0.321922   0.510154
     4  Na  -0.440312   0.349127
     5  Na   0.275584   0.008293
     6  Na  -0.119408   0.160946
     7  Na   0.097907  -0.003415
 Sum of Mulliken charges =  -0.00000   1.00000

 Dipole moment (field-independent basis, Debye):
    X=              0.1278    Y=              0.0505    Z=             -0.1525  Tot=              0.2053
 Quadrupole moment (field-independent basis, Debye-Ang):
   XX=            -60.3618   YY=            -70.9185   ZZ=            -70.7652
   XY=             -0.6000   XZ=              2.3709   YZ=              3.9259

 Normal termination of Gaussian 16 at Sun Dec  3 16:14:38 2023.
