 Gaussian 16, Revision B.01,
 Gaussian 16:  ES64L-G16RevB.01 20-Dec-2017

 -------------------------
 #P B3LYP/6-311+g(d) force
 -------------------------

 -----
 DPGEN
 -----
 Symbolic Z-matrix:
 Charge =  0 Multiplicity = 2

                         Standard orientation:
 ---------------------------------------------------------------------
 Center     Atomic      Atomic             Coordinates (Angstroms)
 Number     Number       Type             X           Y           Z
 ---------------------------------------------------------------------
      1         11           0        1.821036    2.399930   -0.319910
      2         11           0        1.058649   -2.799386   -0.165264
      3         11           0       -0.388844   -0.151724   -1.564318
      4         11           0        3.136427   -0.421177    0.116355
      5         11           0       -1.962518    2.540492    0.028984
      6         11           0       -3.292789   -1.457696   -0.188118
      7         11           0       -0.371961   -0.110439    2.092272
 ---------------------------------------------------------------------

 SCF Done:  E(UB3LYP) =  -1136.13050725     A.U. after   21 cycles

 The electronic state is 2-A.
 Alpha  occ. eigenvalues --  -38.44897 -38.44294 -38.43945 -38.43706 -38.43601
 Alpha  occ. eigenvalues --  -38.43485 -38.43250  -2.20654  -2.20080  -2.19810
 Alpha  occ. eigenvalues --   -2.19552  -2.19450  -2.19319  -2.19180  -1.14331
 Alpha  occ. eigenvalues --   -1.14303  -1.14297  -1.13760  -1.13745  -1.13710
 Alpha  occ. eigenvalues --   -1.13516  -1.13480  -1.13459  -1.13239  -1.13204
 Alpha  occ. eigenvalues --   -1.13181  -1.13117  -1.13073  -1.13066  -1.12997
 Alpha  occ. eigenvalues --   -1.12983  -1.12950  -1.12870  -1.12821  -1.12798
 Alpha  occ. eigenvalues --   -0.18164  -0.13105  -0.12199  -0.10426
 Alpha virt. eigenvalues --   -0.06379  -0.05534  -0.04422  -0.03203  -0.02679
 Alpha virt. eigenvalues --   -0.02458  -0.01978  -0.01421  -0.00650  -0.00413
 Alpha virt. eigenvalues --   -0.00039   0.00299   0.00694   0.00749   0.00798

  Beta  occ. eigenvalues --  -38.44894 -38.44290 -38.43944 -38.43702 -38.43500
  Beta  occ. eigenvalues --  -38.43480 -38.43195  -2.20650  -2.20077  -2.19810
  Beta  occ. eigenvalues --   -2.19547  -2.19312  -2.19264  -2.19080  -1.14313
  Beta  occ. eigenvalues --   -1.14302  -1.14295  -1.13749  -1.13732  -1.13711
  Beta  occ. eigenvalues --   -1.13520  -1.13481  -1.13438  -1.13231  -1.13182
  Beta  occ. eigenvalues --   -1.13179  -1.12996  -1.12989  -1.12964  -1.12946
  Beta  occ. eigenvalues --   -1.12940  -1.12933  -1.12796  -1.12749  -1.12724
  Beta  occ. eigenvalues --   -0.17472  -0.12907  -0.11984
  Beta virt. eigenvalues --   -0.06557  -0.06350  -0.05442  -0.04409  -0.02459
  Beta virt. eigenvalues --   -0.01981  -0.01909  -0.01367  -0.01339  -0.00699
  Beta virt. eigenvalues --   -0.00445   0.00122   0.00342   0.00713   0.00806

 Mulliken charges and spin densities:
               1          2
     1  Na   0.117759   0.028149
     2  Na   0.350175  -0.014827
     3  Na  -0.189216   0.365813
     4  Na   0.020266   0.042991
     5  Na   0.070642  -0.045286
     6  Na   0.084398  -0.102855
     7  Na  -0.454025   0.726015
 Sum of Mulliken charges =  -0.00000   1.00000

 Dipole moment (field-independent basis, Debye):
    X=             -0.7920    Y=             -0.1266    Z=              0.0975  Tot=              0.8080
 Quadrupole moment (field-independent basis, Debye-Ang):
   XX=            -53.7392   YY=            -62.4482   ZZ=            -76.5799
   XY=             -0.0424   XZ=              0.0852   YZ=             -0.1287

 Normal termination of Gaussian 16 at Thu Dec  7 13:00:21 2023.
