 Gaussian 16, Revision B.01,
 Gaussian 16:  ES64L-G16RevB.01 20-Dec-2017

 -------------------------
 #P B3LYP/6-311+g(d) force
 -------------------------

 -----
 DPGEN
 -----
 Symbolic Z-matrix:
 Charge =  0 Multiplicity = 2

                         Standard orientation:
 ---------------------------------------------------------------------
 Center     Atomic      Atomic             Coordinates (Angstroms)
 Number     Number       Type             X           Y           Z
 ---------------------------------------------------------------------
      1         11           0       -3.349544   -0.842315    0.683689
      2         11           0        2.713212   -0.358636   -1.423301
      3         11           0        0.298935    2.091149   -0.096292
      4         11           0        0.221108   -1.896532    1.925071
      5         11           0       -0.480527   -2.401894   -1.662613
      6         11           0       -2.800145    2.385935   -0.485388
      7         11           0        3.396961    1.022292    1.058833
 ---------------------------------------------------------------------

 SCF Done:  E(UB3LYP) =  -1136.11874364     A.U. after   21 cycles

 The electronic state is 2-A.
 Alpha  occ. eigenvalues --  -38.45246 -38.44521 -38.44496 -38.44239 -38.44089
 Alpha  occ. eigenvalues --  -38.43830 -38.43284  -2.21001  -2.20390  -2.20356
 Alpha  occ. eigenvalues --   -2.20009  -2.19914  -2.19614  -2.19107  -1.14689
 Alpha  occ. eigenvalues --   -1.14659  -1.14626  -1.14236  -1.14043  -1.14017
 Alpha  occ. eigenvalues --   -1.14002  -1.13974  -1.13899  -1.13685  -1.13659
 Alpha  occ. eigenvalues --   -1.13625  -1.13610  -1.13590  -1.13551  -1.13283
 Alpha  occ. eigenvalues --   -1.13273  -1.13232  -1.12784  -1.12757  -1.12747
 Alpha  occ. eigenvalues --   -0.17219  -0.13691  -0.12115  -0.10627
 Alpha virt. eigenvalues --   -0.06796  -0.05412  -0.04902  -0.03651  -0.02955
 Alpha virt. eigenvalues --   -0.02349  -0.02187  -0.01153  -0.00762  -0.00552
 Alpha virt. eigenvalues --   -0.00282   0.00162   0.00288   0.00428   0.00680

  Beta  occ. eigenvalues --  -38.45240 -38.44498 -38.44462 -38.44187 -38.44084
  Beta  occ. eigenvalues --  -38.43784 -38.43283  -2.20989  -2.20346  -2.20298
  Beta  occ. eigenvalues --   -2.19913  -2.19906  -2.19530  -2.19107  -1.14675
  Beta  occ. eigenvalues --   -1.14651  -1.14619  -1.14196  -1.14009  -1.13980
  Beta  occ. eigenvalues --   -1.13963  -1.13937  -1.13851  -1.13618  -1.13590
  Beta  occ. eigenvalues --   -1.13589  -1.13585  -1.13557  -1.13549  -1.13226
  Beta  occ. eigenvalues --   -1.13217  -1.13162  -1.12784  -1.12756  -1.12747
  Beta  occ. eigenvalues --   -0.16674  -0.13585  -0.11805
  Beta virt. eigenvalues --   -0.07023  -0.06611  -0.05237  -0.04291  -0.03373
  Beta virt. eigenvalues --   -0.02480  -0.02134  -0.01627  -0.01098  -0.00475
  Beta virt. eigenvalues --   -0.00429  -0.00097   0.00296   0.00347   0.00608

 Mulliken charges and spin densities:
               1          2
     1  Na  -0.000671   0.083266
     2  Na   0.209796   0.011726
     3  Na  -0.902302   0.106125
     4  Na  -0.252589   0.282981
     5  Na  -0.007704   0.289141
     6  Na   0.127588  -0.103628
     7  Na   0.825882   0.330390
 Sum of Mulliken charges =  -0.00000   1.00000

 Dipole moment (field-independent basis, Debye):
    X=              0.1050    Y=             -0.1866    Z=              0.3038  Tot=              0.3716
 Quadrupole moment (field-independent basis, Debye-Ang):
   XX=            -52.3308   YY=            -73.9799   ZZ=            -71.1021
   XY=              3.0900   XZ=              1.6906   YZ=              0.7973

 Normal termination of Gaussian 16 at Mon Dec  4 05:18:21 2023.
