 Gaussian 16, Revision B.01,
 Gaussian 16:  ES64L-G16RevB.01 20-Dec-2017

 -------------------------
 #P B3LYP/6-311+g(d) force
 -------------------------

 -----
 DPGEN
 -----
 Symbolic Z-matrix:
 Charge =  0 Multiplicity = 2

                         Standard orientation:
 ---------------------------------------------------------------------
 Center     Atomic      Atomic             Coordinates (Angstroms)
 Number     Number       Type             X           Y           Z
 ---------------------------------------------------------------------
      1         11           0       -1.622981   -0.340132    2.009854
      2         11           0        1.469380   -1.569316    1.290487
      3         11           0       -2.377205    1.531499   -0.459164
      4         11           0       -0.108971    0.126396   -1.584896
      5         11           0        0.865498    2.308907    0.567776
      6         11           0        3.637520   -0.076961   -0.688735
      7         11           0       -1.863241   -1.980392   -1.135323
 ---------------------------------------------------------------------

 SCF Done:  E(UB3LYP) =  -1136.12274507     A.U. after   22 cycles

 The electronic state is 2-A.
 Alpha  occ. eigenvalues --  -38.44545 -38.44211 -38.43847 -38.43580 -38.43572
 Alpha  occ. eigenvalues --  -38.43512 -38.43086  -2.20341  -2.20118  -2.19934
 Alpha  occ. eigenvalues --   -2.19521  -2.19493  -2.19365  -2.18939  -1.14015
 Alpha  occ. eigenvalues --   -1.14001  -1.13970  -1.13796  -1.13782  -1.13761
 Alpha  occ. eigenvalues --   -1.13715  -1.13666  -1.13556  -1.13193  -1.13173
 Alpha  occ. eigenvalues --   -1.13146  -1.13106  -1.13083  -1.13074  -1.13057
 Alpha  occ. eigenvalues --   -1.13024  -1.12983  -1.12646  -1.12613  -1.12536
 Alpha  occ. eigenvalues --   -0.19008  -0.13468  -0.11937  -0.11496
 Alpha virt. eigenvalues --   -0.06075  -0.04660  -0.04233  -0.03417  -0.03079
 Alpha virt. eigenvalues --   -0.02844  -0.01777  -0.00671  -0.00631   0.00172
 Alpha virt. eigenvalues --    0.00281   0.00355   0.00441   0.00813   0.00895

  Beta  occ. eigenvalues --  -38.44542 -38.44130 -38.43783 -38.43561 -38.43546
  Beta  occ. eigenvalues --  -38.43487 -38.43082  -2.20335  -2.19970  -2.19820
  Beta  occ. eigenvalues --   -2.19505  -2.19434  -2.19321  -2.18933  -1.14010
  Beta  occ. eigenvalues --   -1.13997  -1.13967  -1.13697  -1.13682  -1.13669
  Beta  occ. eigenvalues --   -1.13612  -1.13593  -1.13466  -1.13162  -1.13149
  Beta  occ. eigenvalues --   -1.13091  -1.13080  -1.13054  -1.13025  -1.13021
  Beta  occ. eigenvalues --   -1.12981  -1.12954  -1.12644  -1.12592  -1.12533
  Beta  occ. eigenvalues --   -0.18235  -0.13277  -0.11254
  Beta virt. eigenvalues --   -0.07832  -0.05886  -0.04578  -0.03837  -0.03026
  Beta virt. eigenvalues --   -0.02356  -0.01967  -0.01662  -0.00632  -0.00278
  Beta virt. eigenvalues --    0.00196   0.00324   0.00395   0.00599   0.00888

 Mulliken charges and spin densities:
               1          2
     1  Na   0.006724   0.486302
     2  Na  -0.323880   0.117453
     3  Na   0.620304   0.034329
     4  Na  -0.382479   0.416675
     5  Na  -0.309224   0.034261
     6  Na   0.324436  -0.053223
     7  Na   0.064121  -0.035797
 Sum of Mulliken charges =  -0.00000   1.00000

 Dipole moment (field-independent basis, Debye):
    X=              0.4254    Y=              0.0036    Z=              0.1527  Tot=              0.4519
 Quadrupole moment (field-independent basis, Debye-Ang):
   XX=            -53.6328   YY=            -73.6294   ZZ=            -67.0549
   XY=              0.3732   XZ=             -2.0172   YZ=              1.3736

 Normal termination of Gaussian 16 at Fri Dec  8 01:10:16 2023.
