 Gaussian 16, Revision B.01,
 Gaussian 16:  ES64L-G16RevB.01 20-Dec-2017

 -------------------------
 #P B3LYP/6-311+g(d) force
 -------------------------

 -----
 DPGEN
 -----
 Symbolic Z-matrix:
 Charge =  0 Multiplicity = 2

                         Standard orientation:
 ---------------------------------------------------------------------
 Center     Atomic      Atomic             Coordinates (Angstroms)
 Number     Number       Type             X           Y           Z
 ---------------------------------------------------------------------
      1         11           0        0.819911   -1.340507    1.140771
      2         11           0        0.413803   -0.304211   -1.660129
      3         11           0        2.957301   -0.078589   -0.323729
      4         11           0        0.905586    1.692293    0.663271
      5         11           0       -1.804113    1.539670   -0.777429
      6         11           0       -1.515201    0.081273    1.552871
      7         11           0       -1.777287   -1.589929   -0.595629
 ---------------------------------------------------------------------

 SCF Done:  E(UB3LYP) =  -1136.08129095     A.U. after   23 cycles

 The electronic state is 2-A.
 Alpha  occ. eigenvalues --  -38.44601 -38.44521 -38.44291 -38.43538 -38.43518
 Alpha  occ. eigenvalues --  -38.43445 -38.42830  -2.20831  -2.20560  -2.20523
 Alpha  occ. eigenvalues --   -2.19715  -2.19658  -2.19534  -2.18972  -1.14633
 Alpha  occ. eigenvalues --   -1.14593  -1.14474  -1.14453  -1.14329  -1.14227
 Alpha  occ. eigenvalues --   -1.14185  -1.14122  -1.14056  -1.13423  -1.13345
 Alpha  occ. eigenvalues --   -1.13340  -1.13312  -1.13295  -1.13221  -1.13187
 Alpha  occ. eigenvalues --   -1.13182  -1.13090  -1.12678  -1.12615  -1.12566
 Alpha  occ. eigenvalues --   -0.21545  -0.14323  -0.12831  -0.11952
 Alpha virt. eigenvalues --   -0.05711  -0.04298  -0.03995  -0.03730  -0.02932
 Alpha virt. eigenvalues --   -0.02798  -0.01260  -0.00341  -0.00309   0.00300
 Alpha virt. eigenvalues --    0.00691   0.00939   0.00964   0.01053   0.01074

  Beta  occ. eigenvalues --  -38.44533 -38.44515 -38.44209 -38.43518 -38.43469
  Beta  occ. eigenvalues --  -38.43423 -38.42807  -2.20712  -2.20543  -2.20386
  Beta  occ. eigenvalues --   -2.19634  -2.19626  -2.19498  -2.18935  -1.14563
  Beta  occ. eigenvalues --   -1.14484  -1.14419  -1.14368  -1.14264  -1.14181
  Beta  occ. eigenvalues --   -1.14172  -1.14030  -1.13977  -1.13372  -1.13317
  Beta  occ. eigenvalues --   -1.13270  -1.13253  -1.13239  -1.13195  -1.13147
  Beta  occ. eigenvalues --   -1.13131  -1.13056  -1.12656  -1.12566  -1.12523
  Beta  occ. eigenvalues --   -0.20688  -0.14068  -0.11695
  Beta virt. eigenvalues --   -0.08392  -0.05639  -0.04013  -0.03500  -0.03265
  Beta virt. eigenvalues --   -0.02154  -0.01921  -0.01206  -0.00307  -0.00072
  Beta virt. eigenvalues --    0.00334   0.00765   0.00947   0.01051   0.01096

 Mulliken charges and spin densities:
               1          2
     1  Na  -0.718173   0.199106
     2  Na  -0.130958   0.387050
     3  Na   1.126560   0.012134
     4  Na  -0.861537   0.130123
     5  Na  -0.028832   0.023876
     6  Na   0.680138   0.250458
     7  Na  -0.067198  -0.002747
 Sum of Mulliken charges =  -0.00000   1.00000

 Dipole moment (field-independent basis, Debye):
    X=              0.3530    Y=              0.0663    Z=             -0.1928  Tot=              0.4076
 Quadrupole moment (field-independent basis, Debye-Ang):
   XX=            -56.7996   YY=            -75.2212   ZZ=            -65.1984
   XY=             -0.0617   XZ=              0.2420   YZ=             -0.3036

 Normal termination of Gaussian 16 at Fri Dec  8 18:04:15 2023.
