 Gaussian 16, Revision B.01,
 Gaussian 16:  ES64L-G16RevB.01 20-Dec-2017

 -------------------------
 #P B3LYP/6-311+g(d) force
 -------------------------

 -----
 DPGEN
 -----
 Symbolic Z-matrix:
 Charge =  0 Multiplicity = 2

                         Standard orientation:
 ---------------------------------------------------------------------
 Center     Atomic      Atomic             Coordinates (Angstroms)
 Number     Number       Type             X           Y           Z
 ---------------------------------------------------------------------
      1         11           0        0.267800    2.370189   -0.611297
      2         11           0       -3.342430   -1.997357    0.538161
      3         11           0        2.676189    0.597048    1.295076
      4         11           0       -1.227913    0.575561    1.533425
      5         11           0        0.258046   -1.322737   -0.909913
      6         11           0       -2.972179    0.942729   -1.179389
      7         11           0        4.340488   -1.165434   -0.666063
 ---------------------------------------------------------------------

 SCF Done:  E(UB3LYP) =  -1136.12083718     A.U. after   26 cycles

 The electronic state is 2-A.
 Alpha  occ. eigenvalues --  -38.46026 -38.44364 -38.44173 -38.44087 -38.43507
 Alpha  occ. eigenvalues --  -38.43391 -38.42658  -2.21805  -2.20244  -2.20037
 Alpha  occ. eigenvalues --   -2.19891  -2.19359  -2.19332  -2.18544  -1.15527
 Alpha  occ. eigenvalues --   -1.15486  -1.15392  -1.13937  -1.13896  -1.13843
 Alpha  occ. eigenvalues --   -1.13740  -1.13716  -1.13686  -1.13543  -1.13539
 Alpha  occ. eigenvalues --   -1.13502  -1.13062  -1.13035  -1.13012  -1.12997
 Alpha  occ. eigenvalues --   -1.12976  -1.12930  -1.12222  -1.12211  -1.12178
 Alpha  occ. eigenvalues --   -0.18313  -0.14212  -0.11496  -0.10391
 Alpha virt. eigenvalues --   -0.07277  -0.05345  -0.04627  -0.03130  -0.02970
 Alpha virt. eigenvalues --   -0.02429  -0.01887  -0.01479  -0.00957  -0.00447
 Alpha virt. eigenvalues --   -0.00015   0.00089   0.00297   0.00476   0.00676

  Beta  occ. eigenvalues --  -38.46010 -38.44312 -38.44155 -38.44076 -38.43497
  Beta  occ. eigenvalues --  -38.43341 -38.42651  -2.21779  -2.20148  -2.20004
  Beta  occ. eigenvalues --   -2.19869  -2.19316  -2.19270  -2.18536  -1.15489
  Beta  occ. eigenvalues --   -1.15463  -1.15377  -1.13870  -1.13829  -1.13771
  Beta  occ. eigenvalues --   -1.13709  -1.13695  -1.13664  -1.13527  -1.13519
  Beta  occ. eigenvalues --   -1.13483  -1.13007  -1.12995  -1.12972  -1.12963
  Beta  occ. eigenvalues --   -1.12952  -1.12872  -1.12223  -1.12207  -1.12137
  Beta  occ. eigenvalues --   -0.17680  -0.14015  -0.11185
  Beta virt. eigenvalues --   -0.07091  -0.06766  -0.05157  -0.04131  -0.02910
  Beta virt. eigenvalues --   -0.02860  -0.01918  -0.01447  -0.01044  -0.00539
  Beta virt. eigenvalues --   -0.00407   0.00046   0.00181   0.00420   0.00578

 Mulliken charges and spin densities:
               1          2
     1  Na  -0.060384   0.110645
     2  Na   0.621536  -0.085599
     3  Na   0.352314  -0.038805
     4  Na  -0.354559   0.411553
     5  Na  -0.760909   0.152028
     6  Na   0.241028   0.320215
     7  Na  -0.039025   0.129963
 Sum of Mulliken charges =  -0.00000   1.00000

 Dipole moment (field-independent basis, Debye):
    X=              0.0506    Y=              0.0060    Z=             -0.1914  Tot=              0.1980
 Quadrupole moment (field-independent basis, Debye-Ang):
   XX=            -55.2292   YY=            -71.2481   ZZ=            -71.2064
   XY=              1.2263   XZ=              0.1326   YZ=              1.4464

 Normal termination of Gaussian 16 at Tue Dec  5 16:51:36 2023.
