 Gaussian 16, Revision B.01,
 Gaussian 16:  ES64L-G16RevB.01 20-Dec-2017

 -------------------------
 #P B3LYP/6-311+g(d) force
 -------------------------

 -----
 DPGEN
 -----
 Symbolic Z-matrix:
 Charge =  0 Multiplicity = 2

                         Standard orientation:
 ---------------------------------------------------------------------
 Center     Atomic      Atomic             Coordinates (Angstroms)
 Number     Number       Type             X           Y           Z
 ---------------------------------------------------------------------
      1         11           0        2.262022   -2.647760   -0.572258
      2         11           0       -3.871925    1.335481    0.044749
      3         11           0       -5.437789   -1.268111    0.253588
      4         11           0       -1.269874   -1.752328   -0.048566
      5         11           0       -0.131715    2.844781   -0.145480
      6         11           0        5.320054   -1.023439    0.594054
      7         11           0        3.129228    2.511377   -0.126087
 ---------------------------------------------------------------------

 SCF Done:  E(UB3LYP) =  -1136.10902578     A.U. after   23 cycles

 The electronic state is 2-A.
 Alpha  occ. eigenvalues --  -38.45342 -38.45212 -38.45143 -38.44736 -38.44414
 Alpha  occ. eigenvalues --  -38.43997 -38.43102  -2.21152  -2.20980  -2.20963
 Alpha  occ. eigenvalues --   -2.20483  -2.20175  -2.19746  -2.18884  -1.14869
 Alpha  occ. eigenvalues --   -1.14824  -1.14800  -1.14659  -1.14644  -1.14605
 Alpha  occ. eigenvalues --   -1.14600  -1.14567  -1.14561  -1.14170  -1.14160
 Alpha  occ. eigenvalues --   -1.14110  -1.13838  -1.13818  -1.13802  -1.13437
 Alpha  occ. eigenvalues --   -1.13426  -1.13375  -1.12554  -1.12551  -1.12521
 Alpha  occ. eigenvalues --   -0.15990  -0.13978  -0.12095  -0.11340
 Alpha virt. eigenvalues --   -0.07272  -0.05666  -0.04369  -0.03795  -0.03100
 Alpha virt. eigenvalues --   -0.02698  -0.02248  -0.01626  -0.01324  -0.00644
 Alpha virt. eigenvalues --   -0.00590  -0.00278  -0.00027   0.00408   0.00522

  Beta  occ. eigenvalues --  -38.45328 -38.45130 -38.45100 -38.44746 -38.44360
  Beta  occ. eigenvalues --  -38.43997 -38.43089  -2.21131  -2.20884  -2.20829
  Beta  occ. eigenvalues --   -2.20501  -2.20074  -2.19750  -2.18859  -1.14833
  Beta  occ. eigenvalues --   -1.14814  -1.14777  -1.14560  -1.14551  -1.14541
  Beta  occ. eigenvalues --   -1.14537  -1.14519  -1.14449  -1.14183  -1.14174
  Beta  occ. eigenvalues --   -1.14117  -1.13769  -1.13745  -1.13741  -1.13445
  Beta  occ. eigenvalues --   -1.13431  -1.13346  -1.12537  -1.12535  -1.12508
  Beta  occ. eigenvalues --   -0.15363  -0.13502  -0.11827
  Beta virt. eigenvalues --   -0.07922  -0.07032  -0.05109  -0.03975  -0.03587
  Beta virt. eigenvalues --   -0.02764  -0.02519  -0.01972  -0.01359  -0.01112
  Beta virt. eigenvalues --   -0.00476  -0.00231  -0.00174   0.00209   0.00479

 Mulliken charges and spin densities:
               1          2
     1  Na  -0.259351  -0.403256
     2  Na   0.153689   0.070189
     3  Na   1.298920   0.310425
     4  Na  -0.772966   0.568468
     5  Na   0.113739  -0.013259
     6  Na   0.080135   0.241467
     7  Na  -0.614166   0.225966
 Sum of Mulliken charges =  -0.00000   1.00000

 Dipole moment (field-independent basis, Debye):
    X=             -1.9065    Y=             -0.5724    Z=              0.1987  Tot=              2.0004
 Quadrupole moment (field-independent basis, Debye-Ang):
   XX=            -49.4495   YY=            -70.4617   ZZ=            -74.1629
   XY=              4.5751   XZ=              0.5283   YZ=             -0.2373

 Normal termination of Gaussian 16 at Sun Dec  3 20:48:03 2023.
