 Gaussian 16, Revision B.01,
 Gaussian 16:  ES64L-G16RevB.01 20-Dec-2017

 -------------------------
 #P B3LYP/6-311+g(d) force
 -------------------------

 -----
 DPGEN
 -----
 Symbolic Z-matrix:
 Charge =  0 Multiplicity = 2

                         Standard orientation:
 ---------------------------------------------------------------------
 Center     Atomic      Atomic             Coordinates (Angstroms)
 Number     Number       Type             X           Y           Z
 ---------------------------------------------------------------------
      1         11           0       -3.001494   -1.364881   -0.469688
      2         11           0       -0.824216    1.619033   -0.807022
      3         11           0       -5.547938    0.313417    0.525091
      4         11           0        1.190208   -1.323668   -1.314204
      5         11           0        4.196763   -1.226500    0.403801
      6         11           0        1.017643    0.095861    2.166063
      7         11           0        2.969033    1.886739   -0.504041
 ---------------------------------------------------------------------

 SCF Done:  E(UB3LYP) =  -1136.10780621     A.U. after   26 cycles

 The electronic state is 2-A.
 Alpha  occ. eigenvalues --  -38.47205 -38.46067 -38.43943 -38.43602 -38.43398
 Alpha  occ. eigenvalues --  -38.43028 -38.42724  -2.22967  -2.21870  -2.19820
 Alpha  occ. eigenvalues --   -2.19406  -2.19187  -2.18850  -2.18558  -1.16655
 Alpha  occ. eigenvalues --   -1.16599  -1.16580  -1.15564  -1.15519  -1.15477
 Alpha  occ. eigenvalues --   -1.13514  -1.13465  -1.13405  -1.13098  -1.13089
 Alpha  occ. eigenvalues --   -1.13045  -1.12841  -1.12839  -1.12812  -1.12532
 Alpha  occ. eigenvalues --   -1.12517  -1.12483  -1.12234  -1.12221  -1.12205
 Alpha  occ. eigenvalues --   -0.17733  -0.13629  -0.10984  -0.10655
 Alpha virt. eigenvalues --   -0.08217  -0.05094  -0.04647  -0.03130  -0.03105
 Alpha virt. eigenvalues --   -0.02491  -0.02159  -0.01969  -0.01484  -0.00806
 Alpha virt. eigenvalues --   -0.00345   0.00030   0.00104   0.00474   0.00523

  Beta  occ. eigenvalues --  -38.47167 -38.46046 -38.43850 -38.43602 -38.43375
  Beta  occ. eigenvalues --  -38.43027 -38.42724  -2.22899  -2.21830  -2.19649
  Beta  occ. eigenvalues --   -2.19410  -2.19144  -2.18851  -2.18559  -1.16590
  Beta  occ. eigenvalues --   -1.16554  -1.16535  -1.15521  -1.15492  -1.15456
  Beta  occ. eigenvalues --   -1.13398  -1.13351  -1.13273  -1.13103  -1.13089
  Beta  occ. eigenvalues --   -1.13030  -1.12811  -1.12809  -1.12786  -1.12530
  Beta  occ. eigenvalues --   -1.12510  -1.12479  -1.12240  -1.12216  -1.12194
  Beta  occ. eigenvalues --   -0.17069  -0.13425  -0.10523
  Beta virt. eigenvalues --   -0.07928  -0.07229  -0.04706  -0.04539  -0.02936
  Beta virt. eigenvalues --   -0.02721  -0.02069  -0.01539  -0.01529  -0.01246
  Beta virt. eigenvalues --   -0.00685  -0.00325   0.00104   0.00287   0.00544

 Mulliken charges and spin densities:
               1          2
     1  Na  -0.264013  -0.070502
     2  Na  -0.105513  -0.024512
     3  Na   0.175215   0.124447
     4  Na  -0.432483   0.536472
     5  Na   0.294785  -0.028593
     6  Na  -0.048969   0.233274
     7  Na   0.380978   0.229413
 Sum of Mulliken charges =  -0.00000   1.00000

 Dipole moment (field-independent basis, Debye):
    X=              1.5736    Y=              1.2837    Z=              0.7695  Tot=              2.1717
 Quadrupole moment (field-independent basis, Debye-Ang):
   XX=            -75.1190   YY=            -69.2637   ZZ=            -64.9456
   XY=              2.1426   XZ=             -3.4705   YZ=             -4.5050

 Normal termination of Gaussian 16 at Thu Dec  7 09:44:47 2023.
