 Gaussian 16, Revision B.01,
 Gaussian 16:  ES64L-G16RevB.01 20-Dec-2017

 -------------------------
 #P B3LYP/6-311+g(d) force
 -------------------------

 -----
 DPGEN
 -----
 Symbolic Z-matrix:
 Charge =  0 Multiplicity = 2

                         Standard orientation:
 ---------------------------------------------------------------------
 Center     Atomic      Atomic             Coordinates (Angstroms)
 Number     Number       Type             X           Y           Z
 ---------------------------------------------------------------------
      1         11           0       -1.423753   -0.519550    1.826756
      2         11           0        1.451399    1.876645    0.398156
      3         11           0        1.893591   -1.568991    1.283318
      4         11           0       -4.000494   -1.031837   -0.839247
      5         11           0       -0.046447   -0.722147   -1.786799
      6         11           0       -2.191729    2.018908    0.005951
      7         11           0        4.317433   -0.053029   -0.888136
 ---------------------------------------------------------------------

 SCF Done:  E(UB3LYP) =  -1136.11613190     A.U. after   33 cycles

 The electronic state is 2-A.
 Alpha  occ. eigenvalues --  -38.46135 -38.44985 -38.44380 -38.44119 -38.43761
 Alpha  occ. eigenvalues --  -38.43541 -38.42992  -2.21884  -2.20760  -2.20239
 Alpha  occ. eigenvalues --   -2.19996  -2.19618  -2.19318  -2.18839  -1.15596
 Alpha  occ. eigenvalues --   -1.15564  -1.15474  -1.14430  -1.14425  -1.14381
 Alpha  occ. eigenvalues --   -1.13923  -1.13889  -1.13847  -1.13683  -1.13670
 Alpha  occ. eigenvalues --   -1.13597  -1.13310  -1.13281  -1.13209  -1.12999
 Alpha  occ. eigenvalues --   -1.12988  -1.12951  -1.12547  -1.12513  -1.12434
 Alpha  occ. eigenvalues --   -0.18075  -0.14068  -0.11467  -0.10427
 Alpha virt. eigenvalues --   -0.07537  -0.05189  -0.04986  -0.03212  -0.03037
 Alpha virt. eigenvalues --   -0.02299  -0.02234  -0.01563  -0.01248  -0.00365
 Alpha virt. eigenvalues --   -0.00154   0.00173   0.00240   0.00484   0.00591

  Beta  occ. eigenvalues --  -38.46120 -38.44966 -38.44312 -38.44069 -38.43740
  Beta  occ. eigenvalues --  -38.43548 -38.42972  -2.21859  -2.20725  -2.20116
  Beta  occ. eigenvalues --   -2.19907  -2.19578  -2.19333  -2.18802  -1.15561
  Beta  occ. eigenvalues --   -1.15546  -1.15459  -1.14405  -1.14396  -1.14360
  Beta  occ. eigenvalues --   -1.13838  -1.13810  -1.13737  -1.13618  -1.13591
  Beta  occ. eigenvalues --   -1.13539  -1.13278  -1.13255  -1.13180  -1.13005
  Beta  occ. eigenvalues --   -1.12998  -1.12960  -1.12521  -1.12477  -1.12407
  Beta  occ. eigenvalues --   -0.17373  -0.13906  -0.10274
  Beta virt. eigenvalues --   -0.07496  -0.07319  -0.05014  -0.04499  -0.02945
  Beta virt. eigenvalues --   -0.02735  -0.01783  -0.01685  -0.01383  -0.00789
  Beta virt. eigenvalues --   -0.00257  -0.00122   0.00246   0.00305   0.00596

 Mulliken charges and spin densities:
               1          2
     1  Na  -0.120247   0.242710
     2  Na  -0.472249   0.201225
     3  Na   0.122040   0.153100
     4  Na   0.227490  -0.106335
     5  Na  -0.506999   0.193688
     6  Na   0.169981   0.194335
     7  Na   0.579984   0.121276
 Sum of Mulliken charges =  -0.00000   1.00000

 Dipole moment (field-independent basis, Debye):
    X=              0.9354    Y=              0.1664    Z=              0.0014  Tot=              0.9501
 Quadrupole moment (field-independent basis, Debye-Ang):
   XX=            -52.8364   YY=            -75.1386   ZZ=            -70.5585
   XY=             -1.8661   XZ=             -2.8972   YZ=             -5.0000

 Normal termination of Gaussian 16 at Thu Dec  7 10:53:14 2023.
