 Gaussian 16, Revision B.01,
 Gaussian 16:  ES64L-G16RevB.01 20-Dec-2017

 -------------------------
 #P B3LYP/6-311+g(d) force
 -------------------------

 -----
 DPGEN
 -----
 Symbolic Z-matrix:
 Charge =  0 Multiplicity = 2

                         Standard orientation:
 ---------------------------------------------------------------------
 Center     Atomic      Atomic             Coordinates (Angstroms)
 Number     Number       Type             X           Y           Z
 ---------------------------------------------------------------------
      1         11           0       -2.570923    1.221226    0.611782
      2         11           0        1.574355    1.139144   -0.168844
      3         11           0        2.277947   -2.813600   -0.046914
      4         11           0       -0.930297   -1.466863   -0.317680
      5         11           0       -3.886046   -2.199245   -0.022892
      6         11           0        4.448626    0.299908    0.281665
      7         11           0       -0.913662    3.819430   -0.337117
 ---------------------------------------------------------------------

 SCF Done:  E(UB3LYP) =  -1136.12336424     A.U. after   23 cycles

 The electronic state is 2-A.
 Alpha  occ. eigenvalues --  -38.44449 -38.44418 -38.44220 -38.43795 -38.43762
 Alpha  occ. eigenvalues --  -38.43630 -38.43435  -2.20301  -2.20221  -2.20078
 Alpha  occ. eigenvalues --   -2.19621  -2.19605  -2.19474  -2.19355  -1.14015
 Alpha  occ. eigenvalues --   -1.13995  -1.13897  -1.13889  -1.13878  -1.13831
 Alpha  occ. eigenvalues --   -1.13812  -1.13774  -1.13693  -1.13280  -1.13277
 Alpha  occ. eigenvalues --   -1.13263  -1.13250  -1.13235  -1.13212  -1.13208
 Alpha  occ. eigenvalues --   -1.13118  -1.13099  -1.13044  -1.13023  -1.12932
 Alpha  occ. eigenvalues --   -0.17119  -0.14123  -0.12834  -0.10394
 Alpha virt. eigenvalues --   -0.06442  -0.05610  -0.04135  -0.03512  -0.02524
 Alpha virt. eigenvalues --   -0.02365  -0.01972  -0.01794  -0.01170  -0.00647
 Alpha virt. eigenvalues --    0.00023   0.00091   0.00469   0.00532   0.00636

  Beta  occ. eigenvalues --  -38.44445 -38.44363 -38.44204 -38.43797 -38.43680
  Beta  occ. eigenvalues --  -38.43592 -38.43414  -2.20294  -2.20122  -2.20055
  Beta  occ. eigenvalues --   -2.19608  -2.19470  -2.19403  -2.19322  -1.14015
  Beta  occ. eigenvalues --   -1.13991  -1.13878  -1.13823  -1.13793  -1.13768
  Beta  occ. eigenvalues --   -1.13765  -1.13740  -1.13686  -1.13280  -1.13266
  Beta  occ. eigenvalues --   -1.13236  -1.13173  -1.13166  -1.13148  -1.13115
  Beta  occ. eigenvalues --   -1.13070  -1.13046  -1.13024  -1.13004  -1.12869
  Beta  occ. eigenvalues --   -0.16710  -0.13468  -0.12433
  Beta virt. eigenvalues --   -0.06789  -0.06258  -0.05502  -0.03992  -0.02952
  Beta virt. eigenvalues --   -0.02240  -0.02149  -0.01840  -0.01253  -0.01024
  Beta virt. eigenvalues --   -0.00313   0.00240   0.00403   0.00556   0.00624

 Mulliken charges and spin densities:
               1          2
     1  Na  -0.245742   0.033433
     2  Na  -2.120870   0.164453
     3  Na   0.495888   0.019540
     4  Na  -1.285171   0.313163
     5  Na   1.428095   0.212406
     6  Na   0.646596   0.202231
     7  Na   1.081203   0.054773
 Sum of Mulliken charges =  -0.00000   1.00000

 Dipole moment (field-independent basis, Debye):
    X=             -0.3030    Y=             -0.2181    Z=              0.0700  Tot=              0.3798
 Quadrupole moment (field-independent basis, Debye-Ang):
   XX=            -62.0502   YY=            -60.7231   ZZ=            -71.8406
   XY=             -5.7828   XZ=             -0.4289   YZ=             -1.1506

 Normal termination of Gaussian 16 at Wed Nov 29 02:57:56 2023.
