 Gaussian 16, Revision B.01,
 Gaussian 16:  ES64L-G16RevB.01 20-Dec-2017

 -------------------------
 #P B3LYP/6-311+g(d) force
 -------------------------

 -----
 DPGEN
 -----
 Symbolic Z-matrix:
 Charge =  0 Multiplicity = 2

                         Standard orientation:
 ---------------------------------------------------------------------
 Center     Atomic      Atomic             Coordinates (Angstroms)
 Number     Number       Type             X           Y           Z
 ---------------------------------------------------------------------
      1         11           0        3.581121    0.633866    1.314343
      2         11           0        2.971033   -1.517635   -1.148873
      3         11           0       -4.814125   -0.618774    0.521919
      4         11           0       -2.618150    1.489980   -0.306762
      5         11           0        1.144720    1.756923   -1.332164
      6         11           0        0.699226   -0.319484    1.718544
      7         11           0       -0.963824   -1.424876   -0.767007
 ---------------------------------------------------------------------

 SCF Done:  E(UB3LYP) =  -1136.10524542     A.U. after   29 cycles

 The electronic state is 2-A.
 Alpha  occ. eigenvalues --  -38.46213 -38.45932 -38.44235 -38.43864 -38.43828
 Alpha  occ. eigenvalues --  -38.43296 -38.42788  -2.22079  -2.21743  -2.20095
 Alpha  occ. eigenvalues --   -2.19707  -2.19662  -2.19138  -2.18680  -1.15799
 Alpha  occ. eigenvalues --   -1.15727  -1.15707  -1.15426  -1.15383  -1.15359
 Alpha  occ. eigenvalues --   -1.13790  -1.13776  -1.13716  -1.13457  -1.13339
 Alpha  occ. eigenvalues --   -1.13331  -1.13320  -1.13294  -1.13281  -1.12814
 Alpha  occ. eigenvalues --   -1.12792  -1.12753  -1.12372  -1.12331  -1.12307
 Alpha  occ. eigenvalues --   -0.18259  -0.14363  -0.11196  -0.10396
 Alpha virt. eigenvalues --   -0.08179  -0.05334  -0.04361  -0.03411  -0.03125
 Alpha virt. eigenvalues --   -0.02390  -0.02071  -0.01788  -0.01269  -0.00450
 Alpha virt. eigenvalues --   -0.00310   0.00103   0.00204   0.00579   0.00647

  Beta  occ. eigenvalues --  -38.46203 -38.45893 -38.44218 -38.43861 -38.43787
  Beta  occ. eigenvalues --  -38.43248 -38.42770  -2.22064  -2.21672  -2.20063
  Beta  occ. eigenvalues --   -2.19656  -2.19634  -2.19050  -2.18648  -1.15749
  Beta  occ. eigenvalues --   -1.15725  -1.15697  -1.15368  -1.15337  -1.15306
  Beta  occ. eigenvalues --   -1.13767  -1.13756  -1.13686  -1.13408  -1.13326
  Beta  occ. eigenvalues --   -1.13316  -1.13289  -1.13276  -1.13228  -1.12747
  Beta  occ. eigenvalues --   -1.12729  -1.12692  -1.12351  -1.12312  -1.12273
  Beta  occ. eigenvalues --   -0.17588  -0.14187  -0.10190
  Beta virt. eigenvalues --   -0.07998  -0.07364  -0.04762  -0.04244  -0.03270
  Beta virt. eigenvalues --   -0.02786  -0.01834  -0.01499  -0.01328  -0.01149
  Beta virt. eigenvalues --   -0.00394  -0.00171   0.00200   0.00258   0.00650

 Mulliken charges and spin densities:
               1          2
     1  Na   0.674860  -0.053492
     2  Na   0.271664   0.101925
     3  Na   0.390673   0.058030
     4  Na  -0.142320   0.020332
     5  Na  -0.549537   0.301286
     6  Na  -0.456129   0.293948
     7  Na  -0.189212   0.277972
 Sum of Mulliken charges =  -0.00000   1.00000

 Dipole moment (field-independent basis, Debye):
    X=              0.5439    Y=             -0.5326    Z=             -0.9354  Tot=              1.2061
 Quadrupole moment (field-independent basis, Debye-Ang):
   XX=            -63.7204   YY=            -68.4959   ZZ=            -72.3070
   XY=             -0.7346   XZ=             -8.2647   YZ=              1.2189

 Normal termination of Gaussian 16 at Fri Dec  8 02:23:29 2023.
