 Gaussian 16, Revision B.01,
 Gaussian 16:  ES64L-G16RevB.01 20-Dec-2017

 -------------------------
 #P B3LYP/6-311+g(d) force
 -------------------------

 -----
 DPGEN
 -----
 Symbolic Z-matrix:
 Charge =  0 Multiplicity = 2

                         Standard orientation:
 ---------------------------------------------------------------------
 Center     Atomic      Atomic             Coordinates (Angstroms)
 Number     Number       Type             X           Y           Z
 ---------------------------------------------------------------------
      1         11           0       -3.054886    2.693686   -0.198811
      2         11           0       -4.776613   -0.365980   -0.584929
      3         11           0       -1.934453   -1.766393    0.879101
      4         11           0        0.624386   -2.417868   -0.868535
      5         11           0       -0.188103    0.992806    0.503974
      6         11           0        3.661656    0.067564    1.290635
      7         11           0        5.668013    0.796186   -1.021434
 ---------------------------------------------------------------------

 SCF Done:  E(UB3LYP) =  -1136.11415410     A.U. after   22 cycles

 The electronic state is 2-A.
 Alpha  occ. eigenvalues --  -38.44435 -38.44392 -38.44163 -38.44159 -38.44152
 Alpha  occ. eigenvalues --  -38.44104 -38.43778  -2.20252  -2.20236  -2.20037
 Alpha  occ. eigenvalues --   -2.19961  -2.19950  -2.19896  -2.19579  -1.13951
 Alpha  occ. eigenvalues --   -1.13930  -1.13916  -1.13906  -1.13873  -1.13837
 Alpha  occ. eigenvalues --   -1.13718  -1.13698  -1.13670  -1.13650  -1.13625
 Alpha  occ. eigenvalues --   -1.13618  -1.13600  -1.13596  -1.13573  -1.13544
 Alpha  occ. eigenvalues --   -1.13542  -1.13485  -1.13251  -1.13243  -1.13206
 Alpha  occ. eigenvalues --   -0.16866  -0.13717  -0.11904  -0.11122
 Alpha virt. eigenvalues --   -0.06333  -0.05892  -0.04506  -0.03373  -0.03055
 Alpha virt. eigenvalues --   -0.02491  -0.01951  -0.01771  -0.00837  -0.00588
 Alpha virt. eigenvalues --   -0.00452  -0.00211   0.00265   0.00421   0.00536

  Beta  occ. eigenvalues --  -38.44435 -38.44318 -38.44170 -38.44133 -38.44088
  Beta  occ. eigenvalues --  -38.44077 -38.43759  -2.20237  -2.20117  -2.19991
  Beta  occ. eigenvalues --   -2.19965  -2.19845  -2.19841  -2.19545  -1.13925
  Beta  occ. eigenvalues --   -1.13908  -1.13870  -1.13862  -1.13832  -1.13734
  Beta  occ. eigenvalues --   -1.13675  -1.13665  -1.13664  -1.13636  -1.13604
  Beta  occ. eigenvalues --   -1.13597  -1.13537  -1.13517  -1.13510  -1.13507
  Beta  occ. eigenvalues --   -1.13497  -1.13461  -1.13230  -1.13209  -1.13175
  Beta  occ. eigenvalues --   -0.16212  -0.13378  -0.11635
  Beta virt. eigenvalues --   -0.07527  -0.06056  -0.05523  -0.04194  -0.03055
  Beta virt. eigenvalues --   -0.02695  -0.02195  -0.01631  -0.01491  -0.00772
  Beta virt. eigenvalues --   -0.00406  -0.00143  -0.00024   0.00358   0.00495

 Mulliken charges and spin densities:
               1          2
     1  Na   1.115912  -0.135418
     2  Na  -0.170298   0.176084
     3  Na   0.226390   0.480665
     4  Na   0.302096  -0.089595
     5  Na  -1.518256   0.446800
     6  Na  -0.159436  -0.000278
     7  Na   0.203592   0.121741
 Sum of Mulliken charges =  -0.00000   1.00000

 Dipole moment (field-independent basis, Debye):
    X=              0.1577    Y=             -0.5989    Z=             -0.6885  Tot=              0.9261
 Quadrupole moment (field-independent basis, Debye-Ang):
   XX=            -68.8274   YY=            -69.5498   ZZ=            -63.7240
   XY=             -1.6359   XZ=             -3.9111   YZ=             -0.2258

 Normal termination of Gaussian 16 at Tue Nov 28 18:56:23 2023.
