 Gaussian 16, Revision B.01,
 Gaussian 16:  ES64L-G16RevB.01 20-Dec-2017

 -------------------------
 #P B3LYP/6-311+g(d) force
 -------------------------

 -----
 DPGEN
 -----
 Symbolic Z-matrix:
 Charge =  0 Multiplicity = 2

                         Standard orientation:
 ---------------------------------------------------------------------
 Center     Atomic      Atomic             Coordinates (Angstroms)
 Number     Number       Type             X           Y           Z
 ---------------------------------------------------------------------
      1         11           0       -1.441145   -3.007479   -0.346640
      2         11           0        1.743570   -2.709727   -0.272589
      3         11           0        4.043742   -0.072836   -0.015280
      4         11           0        0.822667    0.201631    1.148367
      5         11           0        1.438766    3.488224   -0.497764
      6         11           0       -4.372825   -0.090620    0.106179
      7         11           0       -2.234776    2.190807   -0.122273
 ---------------------------------------------------------------------

 SCF Done:  E(UB3LYP) =  -1136.12179072     A.U. after   19 cycles

 The electronic state is 2-A.
 Alpha  occ. eigenvalues --  -38.45100 -38.44294 -38.44031 -38.44021 -38.43954
 Alpha  occ. eigenvalues --  -38.43772 -38.43676  -2.20918  -2.20064  -2.19853
 Alpha  occ. eigenvalues --   -2.19839  -2.19759  -2.19638  -2.19498  -1.14628
 Alpha  occ. eigenvalues --   -1.14581  -1.14541  -1.13735  -1.13706  -1.13691
 Alpha  occ. eigenvalues --   -1.13531  -1.13522  -1.13509  -1.13490  -1.13490
 Alpha  occ. eigenvalues --   -1.13477  -1.13452  -1.13422  -1.13391  -1.13314
 Alpha  occ. eigenvalues --   -1.13310  -1.13247  -1.13144  -1.13141  -1.13115
 Alpha  occ. eigenvalues --   -0.16780  -0.13767  -0.12976  -0.10323
 Alpha virt. eigenvalues --   -0.06460  -0.05838  -0.04039  -0.03704  -0.02628
 Alpha virt. eigenvalues --   -0.02485  -0.02313  -0.01521  -0.01068  -0.00552
 Alpha virt. eigenvalues --   -0.00331  -0.00039   0.00494   0.00601   0.00767

  Beta  occ. eigenvalues --  -38.45106 -38.44257 -38.44022 -38.43947 -38.43916
  Beta  occ. eigenvalues --  -38.43761 -38.43618  -2.20930  -2.19995  -2.19828
  Beta  occ. eigenvalues --   -2.19716  -2.19693  -2.19626  -2.19390  -1.14638
  Beta  occ. eigenvalues --   -1.14582  -1.14553  -1.13688  -1.13659  -1.13642
  Beta  occ. eigenvalues --   -1.13530  -1.13521  -1.13435  -1.13416  -1.13403
  Beta  occ. eigenvalues --   -1.13396  -1.13382  -1.13377  -1.13345  -1.13313
  Beta  occ. eigenvalues --   -1.13306  -1.13183  -1.13070  -1.13067  -1.13044
  Beta  occ. eigenvalues --   -0.16423  -0.12928  -0.12312
  Beta virt. eigenvalues --   -0.07187  -0.06302  -0.05776  -0.03817  -0.03088
  Beta virt. eigenvalues --   -0.02368  -0.02267  -0.01801  -0.01368  -0.00971
  Beta virt. eigenvalues --   -0.00429  -0.00017   0.00326   0.00545   0.00630

 Mulliken charges and spin densities:
               1          2
     1  Na  -0.144265   0.113670
     2  Na   0.234026   0.036721
     3  Na   0.278028   0.344204
     4  Na  -0.451077  -0.040567
     5  Na   0.132831   0.119019
     6  Na   0.272823   0.287576
     7  Na  -0.322366   0.139377
 Sum of Mulliken charges =  -0.00000   1.00000

 Dipole moment (field-independent basis, Debye):
    X=              0.8552    Y=              0.1329    Z=             -0.2728  Tot=              0.9075
 Quadrupole moment (field-independent basis, Debye-Ang):
   XX=            -65.1672   YY=            -65.1090   ZZ=            -70.0045
   XY=              5.9332   XZ=             -2.0366   YZ=             -0.9994

 Normal termination of Gaussian 16 at Sun Dec  3 13:46:15 2023.
