 Gaussian 16, Revision B.01,
 Gaussian 16:  ES64L-G16RevB.01 20-Dec-2017

 -------------------------
 #P B3LYP/6-311+g(d) force
 -------------------------

 -----
 DPGEN
 -----
 Symbolic Z-matrix:
 Charge =  0 Multiplicity = 2

                         Standard orientation:
 ---------------------------------------------------------------------
 Center     Atomic      Atomic             Coordinates (Angstroms)
 Number     Number       Type             X           Y           Z
 ---------------------------------------------------------------------
      1         11           0       -1.413956    1.935160    0.375239
      2         11           0        3.028146   -1.694384   -0.673937
      3         11           0       -3.894949   -0.478095   -0.390869
      4         11           0       -0.446539   -0.834489   -1.976498
      5         11           0       -1.170137   -1.227202    1.718047
      6         11           0        2.080626    0.073651    1.722159
      7         11           0        1.816809    2.225359   -0.774141
 ---------------------------------------------------------------------

 SCF Done:  E(UB3LYP) =  -1136.12466344     A.U. after   25 cycles

 The electronic state is 2-A.
 Alpha  occ. eigenvalues --  -38.45141 -38.44916 -38.44423 -38.44091 -38.43819
 Alpha  occ. eigenvalues --  -38.42974 -38.42880  -2.20934  -2.20724  -2.20277
 Alpha  occ. eigenvalues --   -2.19981  -2.19626  -2.18833  -2.18717  -1.14603
 Alpha  occ. eigenvalues --   -1.14600  -1.14566  -1.14399  -1.14369  -1.14332
 Alpha  occ. eigenvalues --   -1.13963  -1.13925  -1.13885  -1.13673  -1.13650
 Alpha  occ. eigenvalues --   -1.13603  -1.13297  -1.13276  -1.13268  -1.12534
 Alpha  occ. eigenvalues --   -1.12519  -1.12449  -1.12397  -1.12375  -1.12337
 Alpha  occ. eigenvalues --   -0.18203  -0.13843  -0.11622  -0.10899
 Alpha virt. eigenvalues --   -0.06746  -0.05167  -0.04816  -0.03326  -0.02773
 Alpha virt. eigenvalues --   -0.02616  -0.02364  -0.01024  -0.00733  -0.00174
 Alpha virt. eigenvalues --    0.00133   0.00218   0.00265   0.00671   0.00680

  Beta  occ. eigenvalues --  -38.45144 -38.44840 -38.44358 -38.44053 -38.43824
  Beta  occ. eigenvalues --  -38.42968 -38.42871  -2.20940  -2.20585  -2.20159
  Beta  occ. eigenvalues --   -2.19913  -2.19636  -2.18824  -2.18703  -1.14604
  Beta  occ. eigenvalues --   -1.14596  -1.14571  -1.14307  -1.14269  -1.14229
  Beta  occ. eigenvalues --   -1.13884  -1.13836  -1.13794  -1.13629  -1.13593
  Beta  occ. eigenvalues --   -1.13559  -1.13299  -1.13277  -1.13271  -1.12529
  Beta  occ. eigenvalues --   -1.12489  -1.12449  -1.12383  -1.12360  -1.12329
  Beta  occ. eigenvalues --   -0.17423  -0.13788  -0.10727
  Beta virt. eigenvalues --   -0.07656  -0.06490  -0.05055  -0.04198  -0.02933
  Beta virt. eigenvalues --   -0.02296  -0.02111  -0.01970  -0.00825  -0.00469
  Beta virt. eigenvalues --   -0.00098   0.00229   0.00273   0.00328   0.00735

 Mulliken charges and spin densities:
               1          2
     1  Na  -0.489348   0.112569
     2  Na  -0.087543  -0.025350
     3  Na   0.779627   0.020391
     4  Na  -0.384140   0.474068
     5  Na  -0.129953   0.258200
     6  Na   0.359787   0.089710
     7  Na  -0.048429   0.070414
 Sum of Mulliken charges =  -0.00000   1.00000

 Dipole moment (field-independent basis, Debye):
    X=             -1.2878    Y=             -0.4003    Z=             -0.3031  Tot=              1.3822
 Quadrupole moment (field-independent basis, Debye-Ang):
   XX=            -49.6101   YY=            -78.4808   ZZ=            -67.4496
   XY=              1.1455   XZ=              0.4190   YZ=              0.4173

 Normal termination of Gaussian 16 at Thu Dec  7 18:58:57 2023.
