 Gaussian 16, Revision B.01,
 Gaussian 16:  ES64L-G16RevB.01 20-Dec-2017

 -------------------------
 #P B3LYP/6-311+g(d) force
 -------------------------

 -----
 DPGEN
 -----
 Symbolic Z-matrix:
 Charge =  0 Multiplicity = 2

                         Standard orientation:
 ---------------------------------------------------------------------
 Center     Atomic      Atomic             Coordinates (Angstroms)
 Number     Number       Type             X           Y           Z
 ---------------------------------------------------------------------
      1         11           0       -2.677977   -1.736129    0.549138
      2         11           0        0.352598    0.031763    2.179695
      3         11           0       -2.663808    1.368303   -0.535362
      4         11           0        0.054639    0.122367   -1.511581
      5         11           0        1.204009   -2.777384   -0.708628
      6         11           0        0.735409    2.937080   -0.058247
      7         11           0        2.995129    0.054000    0.084985
 ---------------------------------------------------------------------

 SCF Done:  E(UB3LYP) =  -1136.13505722     A.U. after   19 cycles

 The electronic state is 2-A.
 Alpha  occ. eigenvalues --  -38.44080 -38.43955 -38.43866 -38.43738 -38.43468
 Alpha  occ. eigenvalues --  -38.43277 -38.43115  -2.19943  -2.19827  -2.19670
 Alpha  occ. eigenvalues --   -2.19596  -2.19303  -2.19135  -2.19121  -1.13615
 Alpha  occ. eigenvalues --   -1.13586  -1.13558  -1.13510  -1.13489  -1.13443
 Alpha  occ. eigenvalues --   -1.13363  -1.13335  -1.13318  -1.13304  -1.13241
 Alpha  occ. eigenvalues --   -1.13199  -1.13018  -1.12946  -1.12931  -1.12862
 Alpha  occ. eigenvalues --   -1.12800  -1.12781  -1.12771  -1.12747  -1.12720
 Alpha  occ. eigenvalues --   -0.18519  -0.13097  -0.12232  -0.11042
 Alpha virt. eigenvalues --   -0.05496  -0.05079  -0.04743  -0.03317  -0.02927
 Alpha virt. eigenvalues --   -0.02753  -0.01413  -0.01156  -0.00417  -0.00184
 Alpha virt. eigenvalues --   -0.00005   0.00359   0.00815   0.00872   0.00884

  Beta  occ. eigenvalues --  -38.43982 -38.43949 -38.43858 -38.43730 -38.43452
  Beta  occ. eigenvalues --  -38.43276 -38.43059  -2.19819  -2.19762  -2.19655
  Beta  occ. eigenvalues --   -2.19583  -2.19275  -2.19122  -2.19033  -1.13533
  Beta  occ. eigenvalues --   -1.13489  -1.13471  -1.13444  -1.13439  -1.13409
  Beta  occ. eigenvalues --   -1.13357  -1.13310  -1.13306  -1.13287  -1.13228
  Beta  occ. eigenvalues --   -1.13190  -1.12987  -1.12925  -1.12909  -1.12839
  Beta  occ. eigenvalues --   -1.12780  -1.12741  -1.12727  -1.12698  -1.12661
  Beta  occ. eigenvalues --   -0.17812  -0.12859  -0.11961
  Beta virt. eigenvalues --   -0.07155  -0.05407  -0.04988  -0.04678  -0.02599
  Beta virt. eigenvalues --   -0.02224  -0.01717  -0.01324  -0.01064  -0.00395
  Beta virt. eigenvalues --   -0.00212   0.00121   0.00396   0.00858   0.00892

 Mulliken charges and spin densities:
               1          2
     1  Na  -0.053397   0.087279
     2  Na  -0.455156   0.695176
     3  Na   0.133148  -0.016695
     4  Na   0.002387   0.163756
     5  Na   0.084007   0.048480
     6  Na  -0.051973  -0.030292
     7  Na   0.340985   0.052295
 Sum of Mulliken charges =  -0.00000   1.00000

 Dipole moment (field-independent basis, Debye):
    X=              0.0919    Y=             -0.0135    Z=              0.3174  Tot=              0.3307
 Quadrupole moment (field-independent basis, Debye-Ang):
   XX=            -58.6132   YY=            -62.4017   ZZ=            -73.0367
   XY=              0.6259   XZ=             -0.2741   YZ=             -0.1803

 Normal termination of Gaussian 16 at Thu Dec  7 18:09:30 2023.
