 Gaussian 16, Revision B.01,
 Gaussian 16:  ES64L-G16RevB.01 20-Dec-2017

 -------------------------
 #P B3LYP/6-311+g(d) force
 -------------------------

 -----
 DPGEN
 -----
 Symbolic Z-matrix:
 Charge =  0 Multiplicity = 2

                         Standard orientation:
 ---------------------------------------------------------------------
 Center     Atomic      Atomic             Coordinates (Angstroms)
 Number     Number       Type             X           Y           Z
 ---------------------------------------------------------------------
      1         11           0        3.526896   -0.772635   -1.723702
      2         11           0        2.022219    1.190147    1.523377
      3         11           0        0.966260   -2.437569    1.193076
      4         11           0       -1.805631   -0.274334    1.463259
      5         11           0       -0.658582    3.349421   -0.281904
      6         11           0       -3.760855   -1.174981   -1.057811
      7         11           0       -0.290307    0.119950   -1.116294
 ---------------------------------------------------------------------

 SCF Done:  E(UB3LYP) =  -1136.12154588     A.U. after   21 cycles

 The electronic state is 2-A.
 Alpha  occ. eigenvalues --  -38.44678 -38.44469 -38.44216 -38.43985 -38.43803
 Alpha  occ. eigenvalues --  -38.43760 -38.42942  -2.20459  -2.20243  -2.20011
 Alpha  occ. eigenvalues --   -2.19888  -2.19693  -2.19608  -2.18730  -1.14142
 Alpha  occ. eigenvalues --   -1.14130  -1.14070  -1.13899  -1.13887  -1.13845
 Alpha  occ. eigenvalues --   -1.13698  -1.13684  -1.13656  -1.13646  -1.13518
 Alpha  occ. eigenvalues --   -1.13485  -1.13399  -1.13329  -1.13293  -1.13278
 Alpha  occ. eigenvalues --   -1.13272  -1.13226  -1.12415  -1.12386  -1.12363
 Alpha  occ. eigenvalues --   -0.17691  -0.13016  -0.11472  -0.11054
 Alpha virt. eigenvalues --   -0.06229  -0.05265  -0.04811  -0.03208  -0.02488
 Alpha virt. eigenvalues --   -0.02402  -0.02104  -0.01336  -0.01084  -0.00119
 Alpha virt. eigenvalues --   -0.00033   0.00146   0.00283   0.00515   0.00659

  Beta  occ. eigenvalues --  -38.44662 -38.44387 -38.44195 -38.43963 -38.43775
  Beta  occ. eigenvalues --  -38.43742 -38.42947  -2.20432  -2.20089  -2.19970
  Beta  occ. eigenvalues --   -2.19850  -2.19661  -2.19560  -2.18739  -1.14117
  Beta  occ. eigenvalues --   -1.14099  -1.14056  -1.13792  -1.13781  -1.13746
  Beta  occ. eigenvalues --   -1.13674  -1.13657  -1.13627  -1.13617  -1.13479
  Beta  occ. eigenvalues --   -1.13443  -1.13360  -1.13311  -1.13270  -1.13250
  Beta  occ. eigenvalues --   -1.13222  -1.13191  -1.12417  -1.12393  -1.12367
  Beta  occ. eigenvalues --   -0.17092  -0.12571  -0.11309
  Beta virt. eigenvalues --   -0.07434  -0.06009  -0.04772  -0.04565  -0.03043
  Beta virt. eigenvalues --   -0.02078  -0.01968  -0.01683  -0.01055  -0.00834
  Beta virt. eigenvalues --   -0.00002   0.00156   0.00251   0.00306   0.00618

 Mulliken charges and spin densities:
               1          2
     1  Na   0.051347   0.311911
     2  Na   0.159730   0.144412
     3  Na  -0.133168   0.172337
     4  Na   0.596684   0.080937
     5  Na  -0.034179  -0.025728
     6  Na   0.012708   0.171254
     7  Na  -0.653124   0.144877
 Sum of Mulliken charges =  -0.00000   1.00000

 Dipole moment (field-independent basis, Debye):
    X=             -0.0738    Y=             -0.2307    Z=              0.3853  Tot=              0.4551
 Quadrupole moment (field-independent basis, Debye-Ang):
   XX=            -57.6966   YY=            -69.6135   ZZ=            -66.2379
   XY=              1.1714   XZ=              2.4969   YZ=              1.7044

 Normal termination of Gaussian 16 at Thu Dec  7 14:34:35 2023.
