 Gaussian 16, Revision B.01,
 Gaussian 16:  ES64L-G16RevB.01 20-Dec-2017

 -------------------------
 #P B3LYP/6-311+g(d) force
 -------------------------

 -----
 DPGEN
 -----
 Symbolic Z-matrix:
 Charge =  0 Multiplicity = 2

                         Standard orientation:
 ---------------------------------------------------------------------
 Center     Atomic      Atomic             Coordinates (Angstroms)
 Number     Number       Type             X           Y           Z
 ---------------------------------------------------------------------
      1         11           0       -1.044999    1.343087   -1.262598
      2         11           0       -0.673051   -1.312699    1.674598
      3         11           0        2.034579    1.279699   -1.232566
      4         11           0       -3.883151   -0.201739   -0.180304
      5         11           0        0.480701    2.474870    1.550112
      6         11           0        0.108757   -2.304810   -0.873420
      7         11           0        2.977164   -1.278408    0.324178
 ---------------------------------------------------------------------

 SCF Done:  E(UB3LYP) =  -1136.12335034     A.U. after   19 cycles

 The electronic state is 2-A.
 Alpha  occ. eigenvalues --  -38.44870 -38.44359 -38.43980 -38.43856 -38.43681
 Alpha  occ. eigenvalues --  -38.43328 -38.43139  -2.20632  -2.20202  -2.19881
 Alpha  occ. eigenvalues --   -2.19743  -2.19519  -2.19248  -2.19050  -1.14306
 Alpha  occ. eigenvalues --   -1.14296  -1.14259  -1.13900  -1.13858  -1.13845
 Alpha  occ. eigenvalues --   -1.13774  -1.13525  -1.13466  -1.13383  -1.13344
 Alpha  occ. eigenvalues --   -1.13315  -1.13180  -1.13166  -1.13147  -1.12992
 Alpha  occ. eigenvalues --   -1.12903  -1.12853  -1.12727  -1.12710  -1.12650
 Alpha  occ. eigenvalues --   -0.18312  -0.12985  -0.12345  -0.10907
 Alpha virt. eigenvalues --   -0.06607  -0.04601  -0.04292  -0.03534  -0.03153
 Alpha virt. eigenvalues --   -0.02488  -0.02249  -0.00811  -0.00471   0.00023
 Alpha virt. eigenvalues --    0.00070   0.00219   0.00504   0.00831   0.00913

  Beta  occ. eigenvalues --  -38.44867 -38.44358 -38.43971 -38.43805 -38.43623
  Beta  occ. eigenvalues --  -38.43304 -38.43110  -2.20627  -2.20202  -2.19865
  Beta  occ. eigenvalues --   -2.19650  -2.19410  -2.19206  -2.19000  -1.14297
  Beta  occ. eigenvalues --   -1.14290  -1.14257  -1.13897  -1.13858  -1.13832
  Beta  occ. eigenvalues --   -1.13742  -1.13501  -1.13456  -1.13324  -1.13278
  Beta  occ. eigenvalues --   -1.13253  -1.13110  -1.13093  -1.13063  -1.12958
  Beta  occ. eigenvalues --   -1.12877  -1.12808  -1.12694  -1.12655  -1.12617
  Beta  occ. eigenvalues --   -0.17629  -0.12797  -0.12141
  Beta virt. eigenvalues --   -0.07109  -0.06461  -0.04435  -0.03968  -0.03045
  Beta virt. eigenvalues --   -0.02601  -0.02196  -0.01537  -0.00751  -0.00212
  Beta virt. eigenvalues --    0.00097   0.00124   0.00278   0.00589   0.00870

 Mulliken charges and spin densities:
               1          2
     1  Na   0.052990   0.099679
     2  Na  -0.022619   0.288728
     3  Na   0.147511   0.155369
     4  Na   0.159375  -0.057629
     5  Na  -0.448962   0.285784
     6  Na  -0.317618   0.222017
     7  Na   0.429323   0.006053
 Sum of Mulliken charges =  -0.00000   1.00000

 Dipole moment (field-independent basis, Debye):
    X=             -0.3454    Y=             -0.3346    Z=              0.3153  Tot=              0.5750
 Quadrupole moment (field-independent basis, Debye-Ang):
   XX=            -53.0815   YY=            -71.2998   ZZ=            -69.8053
   XY=              0.0803   XZ=              0.6019   YZ=              2.3006

 Normal termination of Gaussian 16 at Tue Dec  5 18:09:59 2023.
