 Gaussian 16, Revision B.01,
 Gaussian 16:  ES64L-G16RevB.01 20-Dec-2017

 -------------------------
 #P B3LYP/6-311+g(d) force
 -------------------------

 -----
 DPGEN
 -----
 Symbolic Z-matrix:
 Charge =  0 Multiplicity = 2

                         Standard orientation:
 ---------------------------------------------------------------------
 Center     Atomic      Atomic             Coordinates (Angstroms)
 Number     Number       Type             X           Y           Z
 ---------------------------------------------------------------------
      1         11           0       -0.090124    0.532566   -1.371096
      2         11           0       -0.404464   -0.593008    2.208751
      3         11           0        3.212107   -0.064025   -0.155196
      4         11           0        1.237288   -2.498953   -0.310455
      5         11           0       -2.387073   -1.647865   -0.506843
      6         11           0       -3.079629    1.586746   -0.051984
      7         11           0        1.511896    2.684538    0.186823
 ---------------------------------------------------------------------

 SCF Done:  E(UB3LYP) =  -1136.13076721     A.U. after   21 cycles

 The electronic state is 2-A.
 Alpha  occ. eigenvalues --  -38.44589 -38.44347 -38.43958 -38.43639 -38.43491
 Alpha  occ. eigenvalues --  -38.43228 -38.42930  -2.20391  -2.20213  -2.19832
 Alpha  occ. eigenvalues --   -2.19496  -2.19340  -2.19218  -2.18810  -1.14059
 Alpha  occ. eigenvalues --   -1.14050  -1.14040  -1.13896  -1.13870  -1.13863
 Alpha  occ. eigenvalues --   -1.13529  -1.13496  -1.13450  -1.13150  -1.13122
 Alpha  occ. eigenvalues --   -1.13112  -1.13088  -1.12988  -1.12970  -1.12902
 Alpha  occ. eigenvalues --   -1.12855  -1.12830  -1.12493  -1.12466  -1.12449
 Alpha  occ. eigenvalues --   -0.18522  -0.13627  -0.12024  -0.10596
 Alpha virt. eigenvalues --   -0.06228  -0.05459  -0.04213  -0.03351  -0.02766
 Alpha virt. eigenvalues --   -0.02375  -0.01942  -0.01211  -0.00550  -0.00242
 Alpha virt. eigenvalues --   -0.00037   0.00303   0.00696   0.00792   0.00887

  Beta  occ. eigenvalues --  -38.44588 -38.44344 -38.43944 -38.43533 -38.43489
  Beta  occ. eigenvalues --  -38.43189 -38.42921  -2.20391  -2.20209  -2.19812
  Beta  occ. eigenvalues --   -2.19337  -2.19298  -2.19148  -2.18798  -1.14055
  Beta  occ. eigenvalues --   -1.14050  -1.14031  -1.13893  -1.13865  -1.13851
  Beta  occ. eigenvalues --   -1.13513  -1.13459  -1.13436  -1.13075  -1.13018
  Beta  occ. eigenvalues --   -1.12985  -1.12981  -1.12973  -1.12962  -1.12853
  Beta  occ. eigenvalues --   -1.12801  -1.12780  -1.12488  -1.12451  -1.12422
  Beta  occ. eigenvalues --   -0.17832  -0.13408  -0.11834
  Beta virt. eigenvalues --   -0.06648  -0.06170  -0.05404  -0.04168  -0.02627
  Beta virt. eigenvalues --   -0.01999  -0.01857  -0.01361  -0.01138  -0.00556
  Beta virt. eigenvalues --   -0.00267   0.00160   0.00353   0.00780   0.00802

 Mulliken charges and spin densities:
               1          2
     1  Na  -0.285487   0.097299
     2  Na  -0.680920   0.720777
     3  Na   0.089145   0.013697
     4  Na   0.180495   0.069524
     5  Na   0.369596   0.055505
     6  Na   0.105634   0.015558
     7  Na   0.221536   0.027640
 Sum of Mulliken charges =  -0.00000   1.00000

 Dipole moment (field-independent basis, Debye):
    X=             -0.4151    Y=              0.2637    Z=              0.1777  Tot=              0.5229
 Quadrupole moment (field-independent basis, Debye-Ang):
   XX=            -52.8661   YY=            -65.6112   ZZ=            -75.1618
   XY=             -1.2022   XZ=              0.4594   YZ=              2.4346

 Normal termination of Gaussian 16 at Tue Dec  5 18:13:57 2023.
