 Gaussian 16, Revision B.01,
 Gaussian 16:  ES64L-G16RevB.01 20-Dec-2017

 -------------------------
 #P B3LYP/6-311+g(d) force
 -------------------------

 -----
 DPGEN
 -----
 Symbolic Z-matrix:
 Charge =  0 Multiplicity = 2

                         Standard orientation:
 ---------------------------------------------------------------------
 Center     Atomic      Atomic             Coordinates (Angstroms)
 Number     Number       Type             X           Y           Z
 ---------------------------------------------------------------------
      1         11           0       -2.484365    0.211502   -1.342340
      2         11           0        3.404578   -1.689692   -0.547779
      3         11           0        0.145460   -1.061592   -0.092688
      4         11           0       -1.843545    3.275654    0.807296
      5         11           0        1.015450    1.315151   -1.441927
      6         11           0       -2.987212   -2.924162    0.993739
      7         11           0        2.749634    0.873139    1.623699
 ---------------------------------------------------------------------

 SCF Done:  E(UB3LYP) =  -1136.11304381     A.U. after   24 cycles

 The electronic state is 2-A.
 Alpha  occ. eigenvalues --  -38.45351 -38.44482 -38.44462 -38.44187 -38.44158
 Alpha  occ. eigenvalues --  -38.43427 -38.43329  -2.21156  -2.20296  -2.20218
 Alpha  occ. eigenvalues --   -2.20098  -2.19983  -2.19407  -2.19094  -1.14838
 Alpha  occ. eigenvalues --   -1.14816  -1.14785  -1.13964  -1.13952  -1.13919
 Alpha  occ. eigenvalues --   -1.13901  -1.13891  -1.13882  -1.13838  -1.13739
 Alpha  occ. eigenvalues --   -1.13712  -1.13656  -1.13654  -1.13569  -1.13117
 Alpha  occ. eigenvalues --   -1.13072  -1.12991  -1.12759  -1.12754  -1.12705
 Alpha  occ. eigenvalues --   -0.17857  -0.13594  -0.11484  -0.10255
 Alpha virt. eigenvalues --   -0.06802  -0.05421  -0.05362  -0.03050  -0.02768
 Alpha virt. eigenvalues --   -0.02366  -0.01712  -0.01472  -0.00952  -0.00477
 Alpha virt. eigenvalues --   -0.00135   0.00108   0.00196   0.00264   0.00514

  Beta  occ. eigenvalues --  -38.45351 -38.44463 -38.44401 -38.44154 -38.44141
  Beta  occ. eigenvalues --  -38.43407 -38.43291  -2.21159  -2.20183  -2.20180
  Beta  occ. eigenvalues --   -2.20019  -2.19978  -2.19378  -2.19024  -1.14843
  Beta  occ. eigenvalues --   -1.14795  -1.14790  -1.13887  -1.13879  -1.13865
  Beta  occ. eigenvalues --   -1.13856  -1.13856  -1.13823  -1.13814  -1.13707
  Beta  occ. eigenvalues --   -1.13654  -1.13640  -1.13604  -1.13563  -1.13082
  Beta  occ. eigenvalues --   -1.13024  -1.12979  -1.12710  -1.12706  -1.12661
  Beta  occ. eigenvalues --   -0.17241  -0.13330  -0.11172
  Beta virt. eigenvalues --   -0.06866  -0.06565  -0.05173  -0.04849  -0.02735
  Beta virt. eigenvalues --   -0.02440  -0.02267  -0.01292  -0.01160  -0.00631
  Beta virt. eigenvalues --   -0.00297   0.00064   0.00184   0.00263   0.00433

 Mulliken charges and spin densities:
               1          2
     1  Na   0.214673   0.042871
     2  Na   1.748817   0.045837
     3  Na  -3.302065   0.215317
     4  Na  -0.268989   0.073423
     5  Na   1.484077   0.234096
     6  Na   0.040604   0.036515
     7  Na   0.082883   0.351941
 Sum of Mulliken charges =  -0.00000   1.00000

 Dipole moment (field-independent basis, Debye):
    X=              1.4424    Y=              0.1741    Z=             -0.5168  Tot=              1.5420
 Quadrupole moment (field-independent basis, Debye-Ang):
   XX=            -55.2869   YY=            -68.5543   ZZ=            -70.0094
   XY=             -7.1635   XZ=             -2.0707   YZ=              0.4769

 Normal termination of Gaussian 16 at Thu Dec  7 03:23:00 2023.
