 Gaussian 16, Revision B.01,
 Gaussian 16:  ES64L-G16RevB.01 20-Dec-2017

 -------------------------
 #P B3LYP/6-311+g(d) force
 -------------------------

 -----
 DPGEN
 -----
 Symbolic Z-matrix:
 Charge =  0 Multiplicity = 2

                         Standard orientation:
 ---------------------------------------------------------------------
 Center     Atomic      Atomic             Coordinates (Angstroms)
 Number     Number       Type             X           Y           Z
 ---------------------------------------------------------------------
      1         11           0        1.202467    2.845378    0.337680
      2         11           0        3.317661   -0.609956   -0.294066
      3         11           0       -2.685100   -1.537349   -0.164878
      4         11           0        0.233066   -0.037596   -1.478763
      5         11           0        0.468613   -2.726945    0.318225
      6         11           0       -0.358955    0.143565    1.712021
      7         11           0       -2.177751    1.922904   -0.430219
 ---------------------------------------------------------------------

 SCF Done:  E(UB3LYP) =  -1136.13725903     A.U. after   20 cycles

 The electronic state is 2-A.
 Alpha  occ. eigenvalues --  -38.44052 -38.43762 -38.43617 -38.43576 -38.43375
 Alpha  occ. eigenvalues --  -38.42981 -38.42889  -2.19852  -2.19589  -2.19486
 Alpha  occ. eigenvalues --   -2.19464  -2.19274  -2.18978  -2.18916  -1.13532
 Alpha  occ. eigenvalues --   -1.13501  -1.13494  -1.13269  -1.13254  -1.13221
 Alpha  occ. eigenvalues --   -1.13178  -1.13156  -1.13151  -1.13139  -1.13126
 Alpha  occ. eigenvalues --   -1.13066  -1.12987  -1.12951  -1.12876  -1.12711
 Alpha  occ. eigenvalues --   -1.12603  -1.12587  -1.12576  -1.12544  -1.12522
 Alpha  occ. eigenvalues --   -0.18933  -0.12915  -0.12780  -0.10357
 Alpha virt. eigenvalues --   -0.05593  -0.05243  -0.04806  -0.02889  -0.02829
 Alpha virt. eigenvalues --   -0.02008  -0.01617  -0.01328  -0.00442  -0.00264
 Alpha virt. eigenvalues --    0.00038   0.00329   0.00798   0.00833   0.00899

  Beta  occ. eigenvalues --  -38.44046 -38.43753 -38.43611 -38.43560 -38.43364
  Beta  occ. eigenvalues --  -38.42902 -38.42832  -2.19844  -2.19574  -2.19479
  Beta  occ. eigenvalues --   -2.19439  -2.19257  -2.18833  -2.18812  -1.13515
  Beta  occ. eigenvalues --   -1.13496  -1.13489  -1.13254  -1.13232  -1.13213
  Beta  occ. eigenvalues --   -1.13170  -1.13153  -1.13131  -1.13107  -1.13096
  Beta  occ. eigenvalues --   -1.13045  -1.12976  -1.12912  -1.12864  -1.12623
  Beta  occ. eigenvalues --   -1.12504  -1.12501  -1.12477  -1.12464  -1.12440
  Beta  occ. eigenvalues --   -0.18240  -0.12633  -0.12510
  Beta virt. eigenvalues --   -0.06512  -0.05504  -0.05217  -0.04783  -0.02164
  Beta virt. eigenvalues --   -0.02100  -0.01531  -0.01249  -0.01013  -0.00453
  Beta virt. eigenvalues --   -0.00294   0.00165   0.00372   0.00834   0.00838

 Mulliken charges and spin densities:
               1          2
     1  Na  -0.000160  -0.034730
     2  Na   0.016016  -0.060189
     3  Na   0.115464  -0.014008
     4  Na  -0.356616   0.499816
     5  Na   0.166969  -0.003110
     6  Na  -0.125194   0.570300
     7  Na   0.183521   0.041920
 Sum of Mulliken charges =  -0.00000   1.00000

 Dipole moment (field-independent basis, Debye):
    X=              0.1764    Y=              0.1283    Z=              0.0722  Tot=              0.2298
 Quadrupole moment (field-independent basis, Debye-Ang):
   XX=            -55.0827   YY=            -59.8126   ZZ=            -76.2214
   XY=              1.0078   XZ=              1.2559   YZ=             -0.3413

 Normal termination of Gaussian 16 at Fri Dec  8 02:18:19 2023.
