 Gaussian 16, Revision B.01,
 Gaussian 16:  ES64L-G16RevB.01 20-Dec-2017

 -------------------------
 #P B3LYP/6-311+g(d) force
 -------------------------

 -----
 DPGEN
 -----
 Symbolic Z-matrix:
 Charge =  0 Multiplicity = 2

                         Standard orientation:
 ---------------------------------------------------------------------
 Center     Atomic      Atomic             Coordinates (Angstroms)
 Number     Number       Type             X           Y           Z
 ---------------------------------------------------------------------
      1         11           0       -0.860151    0.070464    1.824183
      2         11           0       -1.435171    2.137676   -0.180535
      3         11           0       -3.024506   -0.741467   -0.241333
      4         11           0       -0.178006   -2.098578    0.084555
      5         11           0       -0.263658    0.049341   -1.818944
      6         11           0        1.485144    0.704294    0.467372
      7         11           0        4.276348   -0.121730   -0.135298
 ---------------------------------------------------------------------

 SCF Done:  E(UB3LYP) =  -1136.08908613     A.U. after   29 cycles

 The electronic state is 2-A.
 Alpha  occ. eigenvalues --  -38.46111 -38.44888 -38.44446 -38.44104 -38.43233
 Alpha  occ. eigenvalues --  -38.42723 -38.42273  -2.21879  -2.20847  -2.20561
 Alpha  occ. eigenvalues --   -2.20284  -2.19349  -2.18777  -2.18313  -1.15588
 Alpha  occ. eigenvalues --   -1.15527  -1.15512  -1.14564  -1.14526  -1.14458
 Alpha  occ. eigenvalues --   -1.14311  -1.14212  -1.14151  -1.14090  -1.13897
 Alpha  occ. eigenvalues --   -1.13887  -1.13067  -1.13024  -1.12885  -1.12504
 Alpha  occ. eigenvalues --   -1.12451  -1.12325  -1.12016  -1.11980  -1.11916
 Alpha  occ. eigenvalues --   -0.20520  -0.13773  -0.11785  -0.11538
 Alpha virt. eigenvalues --   -0.07715  -0.03687  -0.03493  -0.03390  -0.02882
 Alpha virt. eigenvalues --   -0.02507  -0.02448  -0.00829  -0.00510  -0.00105
 Alpha virt. eigenvalues --    0.00239   0.00333   0.00384   0.00817   0.01069

  Beta  occ. eigenvalues --  -38.46131 -38.44872 -38.44357 -38.44003 -38.43208
  Beta  occ. eigenvalues --  -38.42700 -38.42259  -2.21918  -2.20823  -2.20401
  Beta  occ. eigenvalues --   -2.20101  -2.19309  -2.18742  -2.18294  -1.15615
  Beta  occ. eigenvalues --   -1.15551  -1.15537  -1.14547  -1.14470  -1.14443
  Beta  occ. eigenvalues --   -1.14208  -1.14094  -1.14033  -1.13965  -1.13776
  Beta  occ. eigenvalues --   -1.13751  -1.13048  -1.12934  -1.12868  -1.12487
  Beta  occ. eigenvalues --   -1.12369  -1.12307  -1.12011  -1.11930  -1.11892
  Beta  occ. eigenvalues --   -0.19633  -0.13655  -0.11182
  Beta virt. eigenvalues --   -0.07599  -0.07525  -0.03593  -0.03280  -0.02904
  Beta virt. eigenvalues --   -0.02697  -0.01599  -0.01572  -0.00809  -0.00271
  Beta virt. eigenvalues --   -0.00041   0.00242   0.00355   0.00547   0.00883

 Mulliken charges and spin densities:
               1          2
     1  Na  -0.194861   0.455002
     2  Na  -0.299798  -0.036143
     3  Na   0.155266  -0.014343
     4  Na  -0.108259  -0.120643
     5  Na  -0.121264   0.754359
     6  Na   0.254073   0.039063
     7  Na   0.314844  -0.077295
 Sum of Mulliken charges =  -0.00000   1.00000

 Dipole moment (field-independent basis, Debye):
    X=              0.7848    Y=             -0.3090    Z=             -0.3303  Tot=              0.9058
 Quadrupole moment (field-independent basis, Debye-Ang):
   XX=            -42.1413   YY=            -77.5140   ZZ=            -70.0006
   XY=             -1.6589   XZ=             -0.9169   YZ=              0.1523

 Normal termination of Gaussian 16 at Sat Dec  9 05:25:36 2023.
