 Gaussian 16, Revision B.01,
 Gaussian 16:  ES64L-G16RevB.01 20-Dec-2017

 -------------------------
 #P B3LYP/6-311+g(d) force
 -------------------------

 -----
 DPGEN
 -----
 Symbolic Z-matrix:
 Charge =  0 Multiplicity = 2

                         Standard orientation:
 ---------------------------------------------------------------------
 Center     Atomic      Atomic             Coordinates (Angstroms)
 Number     Number       Type             X           Y           Z
 ---------------------------------------------------------------------
      1         11           0        2.150858    0.070402   -1.842277
      2         11           0        3.297307    0.043610    1.892401
      3         11           0        0.164820    0.359549    1.004315
      4         11           0       -2.444030   -1.335286   -1.068599
      5         11           0       -3.618869    0.762152    1.357059
      6         11           0        0.064262    2.794836   -1.164745
      7         11           0        0.385653   -2.695263   -0.178154
 ---------------------------------------------------------------------

 SCF Done:  E(UB3LYP) =  -1136.12165277     A.U. after   24 cycles

 The electronic state is 2-A.
 Alpha  occ. eigenvalues --  -38.44911 -38.44563 -38.44425 -38.43932 -38.43423
 Alpha  occ. eigenvalues --  -38.43379 -38.42765  -2.20724  -2.20394  -2.20203
 Alpha  occ. eigenvalues --   -2.19760  -2.19387  -2.19189  -2.18623  -1.14393
 Alpha  occ. eigenvalues --   -1.14345  -1.14330  -1.14074  -1.14040  -1.14014
 Alpha  occ. eigenvalues --   -1.13873  -1.13851  -1.13831  -1.13437  -1.13428
 Alpha  occ. eigenvalues --   -1.13392  -1.13112  -1.13071  -1.13009  -1.12857
 Alpha  occ. eigenvalues --   -1.12848  -1.12809  -1.12317  -1.12282  -1.12243
 Alpha  occ. eigenvalues --   -0.17757  -0.13296  -0.11552  -0.11277
 Alpha virt. eigenvalues --   -0.06260  -0.05511  -0.04078  -0.03337  -0.02700
 Alpha virt. eigenvalues --   -0.02612  -0.02103  -0.01422  -0.00614  -0.00188
 Alpha virt. eigenvalues --    0.00029   0.00138   0.00288   0.00568   0.00718

  Beta  occ. eigenvalues --  -38.44823 -38.44523 -38.44398 -38.43931 -38.43406
  Beta  occ. eigenvalues --  -38.43359 -38.42757  -2.20561  -2.20322  -2.20152
  Beta  occ. eigenvalues --   -2.19760  -2.19360  -2.19154  -2.18610  -1.14273
  Beta  occ. eigenvalues --   -1.14235  -1.14225  -1.14021  -1.13988  -1.13958
  Beta  occ. eigenvalues --   -1.13838  -1.13817  -1.13798  -1.13436  -1.13429
  Beta  occ. eigenvalues --   -1.13381  -1.13067  -1.13055  -1.12989  -1.12835
  Beta  occ. eigenvalues --   -1.12818  -1.12779  -1.12310  -1.12257  -1.12237
  Beta  occ. eigenvalues --   -0.17186  -0.12841  -0.11194
  Beta virt. eigenvalues --   -0.07743  -0.06010  -0.04999  -0.03992  -0.03129
  Beta virt. eigenvalues --   -0.02207  -0.02127  -0.01640  -0.00987  -0.00531
  Beta virt. eigenvalues --    0.00012   0.00143   0.00244   0.00372   0.00637

 Mulliken charges and spin densities:
               1          2
     1  Na   0.181635   0.281207
     2  Na   0.389082   0.230505
     3  Na  -1.071030  -0.012086
     4  Na   0.402382   0.086170
     5  Na   0.635559   0.140311
     6  Na  -0.241128   0.208716
     7  Na  -0.296500   0.065176
 Sum of Mulliken charges =  -0.00000   1.00000

 Dipole moment (field-independent basis, Debye):
    X=              0.3633    Y=              0.0851    Z=             -0.2104  Tot=              0.4283
 Quadrupole moment (field-independent basis, Debye-Ang):
   XX=            -54.0071   YY=            -73.9262   ZZ=            -65.3155
   XY=             -2.0895   XZ=             -0.5300   YZ=              0.8560

 Normal termination of Gaussian 16 at Tue Dec  5 14:57:23 2023.
