 Gaussian 16, Revision B.01,
 Gaussian 16:  ES64L-G16RevB.01 20-Dec-2017

 -------------------------
 #P B3LYP/6-311+g(d) force
 -------------------------

 -----
 DPGEN
 -----
 Symbolic Z-matrix:
 Charge =  0 Multiplicity = 2

                         Standard orientation:
 ---------------------------------------------------------------------
 Center     Atomic      Atomic             Coordinates (Angstroms)
 Number     Number       Type             X           Y           Z
 ---------------------------------------------------------------------
      1         11           0       -0.178690    0.035761   -1.763634
      2         11           0        2.868005   -0.970118   -0.150174
      3         11           0       -0.236717   -2.896708   -0.109405
      4         11           0       -3.107210   -0.592299    0.020860
      5         11           0       -1.674257    2.503692    0.111092
      6         11           0        0.251886   -0.256037    1.965727
      7         11           0        2.076983    2.175710   -0.074466
 ---------------------------------------------------------------------

 SCF Done:  E(UB3LYP) =  -1136.14073520     A.U. after   19 cycles

 The electronic state is 2-A.
 Alpha  occ. eigenvalues --  -38.44110 -38.43862 -38.43525 -38.43500 -38.43463
 Alpha  occ. eigenvalues --  -38.43248 -38.43218  -2.19935  -2.19728  -2.19375
 Alpha  occ. eigenvalues --   -2.19369  -2.19331  -2.19198  -2.19076  -1.13611
 Alpha  occ. eigenvalues --   -1.13600  -1.13575  -1.13413  -1.13395  -1.13370
 Alpha  occ. eigenvalues --   -1.13056  -1.13044  -1.13035  -1.13022  -1.13009
 Alpha  occ. eigenvalues --   -1.13004  -1.12990  -1.12985  -1.12965  -1.12883
 Alpha  occ. eigenvalues --   -1.12839  -1.12818  -1.12743  -1.12737  -1.12701
 Alpha  occ. eigenvalues --   -0.18687  -0.13132  -0.12387  -0.10706
 Alpha virt. eigenvalues --   -0.05644  -0.05179  -0.04703  -0.03236  -0.02859
 Alpha virt. eigenvalues --   -0.02531  -0.01517  -0.01079  -0.00384  -0.00361
 Alpha virt. eigenvalues --   -0.00013   0.00376   0.00803   0.00890   0.00903

  Beta  occ. eigenvalues --  -38.44108 -38.43856 -38.43521 -38.43497 -38.43375
  Beta  occ. eigenvalues --  -38.43211 -38.43175  -2.19934  -2.19721  -2.19371
  Beta  occ. eigenvalues --   -2.19329  -2.19208  -2.19068  -2.19065  -1.13604
  Beta  occ. eigenvalues --   -1.13585  -1.13578  -1.13411  -1.13369  -1.13360
  Beta  occ. eigenvalues --   -1.13046  -1.13021  -1.13012  -1.13004  -1.12979
  Beta  occ. eigenvalues --   -1.12966  -1.12937  -1.12882  -1.12874  -1.12803
  Beta  occ. eigenvalues --   -1.12760  -1.12722  -1.12719  -1.12700  -1.12691
  Beta  occ. eigenvalues --   -0.17945  -0.12910  -0.12148
  Beta virt. eigenvalues --   -0.06796  -0.05609  -0.05194  -0.04650  -0.02437
  Beta virt. eigenvalues --   -0.02077  -0.01477  -0.01425  -0.01008  -0.00440
  Beta virt. eigenvalues --   -0.00428   0.00128   0.00395   0.00855   0.00884

 Mulliken charges and spin densities:
               1          2
     1  Na  -0.212704   0.644819
     2  Na   0.290501  -0.045363
     3  Na   0.176417  -0.125986
     4  Na   0.109006  -0.091891
     5  Na   0.010581  -0.094964
     6  Na  -0.433777   0.795679
     7  Na   0.059975  -0.082294
 Sum of Mulliken charges =  -0.00000   1.00000

 Dipole moment (field-independent basis, Debye):
    X=             -0.1194    Y=             -0.0455    Z=              0.0650  Tot=              0.1433
 Quadrupole moment (field-independent basis, Debye-Ang):
   XX=            -56.4132   YY=            -62.6473   ZZ=            -74.4345
   XY=              0.2037   XZ=             -0.9498   YZ=              0.7000

 Normal termination of Gaussian 16 at Tue Dec  5 20:45:32 2023.
