 Gaussian 16, Revision B.01,
 Gaussian 16:  ES64L-G16RevB.01 20-Dec-2017

 -------------------------
 #P B3LYP/6-311+g(d) force
 -------------------------

 -----
 DPGEN
 -----
 Symbolic Z-matrix:
 Charge =  0 Multiplicity = 2

                         Standard orientation:
 ---------------------------------------------------------------------
 Center     Atomic      Atomic             Coordinates (Angstroms)
 Number     Number       Type             X           Y           Z
 ---------------------------------------------------------------------
      1         11           0       -0.579466   -1.552521    1.182863
      2         11           0        2.707107   -2.609845   -0.685733
      3         11           0        2.701100    0.145938    0.349145
      4         11           0       -3.615618   -1.266760   -0.365897
      5         11           0       -1.424402    0.737874   -1.779273
      6         11           0       -0.895320    1.392478    1.846225
      7         11           0        1.106599    3.152837   -0.547331
 ---------------------------------------------------------------------

 SCF Done:  E(UB3LYP) =  -1136.12716923     A.U. after   18 cycles

 The electronic state is 2-A.
 Alpha  occ. eigenvalues --  -38.44370 -38.44292 -38.44196 -38.43778 -38.43704
 Alpha  occ. eigenvalues --  -38.43508 -38.43347  -2.20211  -2.20109  -2.20083
 Alpha  occ. eigenvalues --   -2.19674  -2.19575  -2.19340  -2.19162  -1.13887
 Alpha  occ. eigenvalues --   -1.13881  -1.13845  -1.13829  -1.13772  -1.13755
 Alpha  occ. eigenvalues --   -1.13730  -1.13711  -1.13673  -1.13378  -1.13339
 Alpha  occ. eigenvalues --   -1.13328  -1.13259  -1.13237  -1.13226  -1.12981
 Alpha  occ. eigenvalues --   -1.12975  -1.12948  -1.12831  -1.12822  -1.12799
 Alpha  occ. eigenvalues --   -0.17918  -0.13349  -0.12222  -0.11166
 Alpha virt. eigenvalues --   -0.05884  -0.05172  -0.04721  -0.03426  -0.03095
 Alpha virt. eigenvalues --   -0.02523  -0.01843  -0.01063  -0.00797  -0.00319
 Alpha virt. eigenvalues --    0.00146   0.00284   0.00515   0.00701   0.00813

  Beta  occ. eigenvalues --  -38.44312 -38.44280 -38.44117 -38.43733 -38.43701
  Beta  occ. eigenvalues --  -38.43499 -38.43341  -2.20104  -2.20090  -2.19942
  Beta  occ. eigenvalues --   -2.19598  -2.19572  -2.19323  -2.19152  -1.13822
  Beta  occ. eigenvalues --   -1.13812  -1.13776  -1.13761  -1.13729  -1.13721
  Beta  occ. eigenvalues --   -1.13691  -1.13612  -1.13573  -1.13333  -1.13318
  Beta  occ. eigenvalues --   -1.13250  -1.13230  -1.13227  -1.13206  -1.12968
  Beta  occ. eigenvalues --   -1.12964  -1.12941  -1.12824  -1.12806  -1.12795
  Beta  occ. eigenvalues --   -0.17204  -0.13057  -0.12095
  Beta virt. eigenvalues --   -0.07271  -0.05739  -0.04888  -0.04553  -0.02912
  Beta virt. eigenvalues --   -0.02582  -0.01779  -0.01700  -0.01015  -0.00584
  Beta virt. eigenvalues --   -0.00112   0.00283   0.00346   0.00636   0.00804

 Mulliken charges and spin densities:
               1          2
     1  Na  -0.108093   0.423567
     2  Na   0.385686  -0.125874
     3  Na  -0.566141   0.161396
     4  Na   0.257079  -0.113108
     5  Na  -0.497232   0.457426
     6  Na   0.120148   0.138096
     7  Na   0.408553   0.058496
 Sum of Mulliken charges =  -0.00000   1.00000

 Dipole moment (field-independent basis, Debye):
    X=             -0.8788    Y=              0.0031    Z=             -0.1807  Tot=              0.8972
 Quadrupole moment (field-independent basis, Debye-Ang):
   XX=            -61.4788   YY=            -64.0876   ZZ=            -70.5555
   XY=              3.3934   XZ=             -1.7350   YZ=              1.8219

 Normal termination of Gaussian 16 at Sun Dec  3 13:38:49 2023.
