 Gaussian 16, Revision B.01,
 Gaussian 16:  ES64L-G16RevB.01 20-Dec-2017

 -------------------------
 #P B3LYP/6-311+g(d) force
 -------------------------

 -----
 DPGEN
 -----
 Symbolic Z-matrix:
 Charge =  0 Multiplicity = 2

                         Standard orientation:
 ---------------------------------------------------------------------
 Center     Atomic      Atomic             Coordinates (Angstroms)
 Number     Number       Type             X           Y           Z
 ---------------------------------------------------------------------
      1         11           0       -2.009048    0.856408   -0.891288
      2         11           0       -2.726087   -2.242049    0.067218
      3         11           0       -0.669734    3.079856    0.566671
      4         11           0        1.558600    1.330187   -1.352088
      5         11           0       -0.005895   -0.077730    2.075783
      6         11           0        3.532279   -1.077035    0.324021
      7         11           0        0.319886   -1.869637   -0.790318
 ---------------------------------------------------------------------

 SCF Done:  E(UB3LYP) =  -1136.13472808     A.U. after   18 cycles

 The electronic state is 2-A.
 Alpha  occ. eigenvalues --  -38.44081 -38.43941 -38.43666 -38.43564 -38.43482
 Alpha  occ. eigenvalues --  -38.43326 -38.43273  -2.19874  -2.19809  -2.19541
 Alpha  occ. eigenvalues --   -2.19428  -2.19411  -2.19213  -2.19204  -1.13549
 Alpha  occ. eigenvalues --   -1.13534  -1.13514  -1.13487  -1.13436  -1.13420
 Alpha  occ. eigenvalues --   -1.13248  -1.13207  -1.13180  -1.13140  -1.13117
 Alpha  occ. eigenvalues --   -1.13103  -1.13094  -1.13053  -1.13023  -1.12910
 Alpha  occ. eigenvalues --   -1.12886  -1.12858  -1.12847  -1.12828  -1.12781
 Alpha  occ. eigenvalues --   -0.18573  -0.12915  -0.12687  -0.10874
 Alpha virt. eigenvalues --   -0.05758  -0.04996  -0.04550  -0.03286  -0.03048
 Alpha virt. eigenvalues --   -0.02638  -0.01696  -0.01237  -0.00318  -0.00163
 Alpha virt. eigenvalues --    0.00228   0.00350   0.00747   0.00844   0.00882

  Beta  occ. eigenvalues --  -38.44084 -38.43841 -38.43626 -38.43565 -38.43461
  Beta  occ. eigenvalues --  -38.43319 -38.43255  -2.19881  -2.19626  -2.19468
  Beta  occ. eigenvalues --   -2.19414  -2.19392  -2.19204  -2.19175  -1.13555
  Beta  occ. eigenvalues --   -1.13525  -1.13518  -1.13366  -1.13304  -1.13292
  Beta  occ. eigenvalues --   -1.13196  -1.13162  -1.13146  -1.13111  -1.13100
  Beta  occ. eigenvalues --   -1.13087  -1.13064  -1.13042  -1.13003  -1.12895
  Beta  occ. eigenvalues --   -1.12853  -1.12833  -1.12830  -1.12803  -1.12766
  Beta  occ. eigenvalues --   -0.17813  -0.12757  -0.12488
  Beta virt. eigenvalues --   -0.06921  -0.05627  -0.04917  -0.04503  -0.02591
  Beta virt. eigenvalues --   -0.02399  -0.01672  -0.01594  -0.01123  -0.00238
  Beta virt. eigenvalues --   -0.00036   0.00280   0.00403   0.00782   0.00866

 Mulliken charges and spin densities:
               1          2
     1  Na  -0.190544   0.221708
     2  Na   0.619345  -0.042275
     3  Na   0.428924  -0.057199
     4  Na  -0.189840   0.113417
     5  Na  -0.584045   0.670283
     6  Na   0.222200  -0.099836
     7  Na  -0.306040   0.193901
 Sum of Mulliken charges =  -0.00000   1.00000

 Dipole moment (field-independent basis, Debye):
    X=              0.3240    Y=             -0.1139    Z=              0.2717  Tot=              0.4379
 Quadrupole moment (field-independent basis, Debye-Ang):
   XX=            -57.0859   YY=            -63.9948   ZZ=            -72.2150
   XY=              0.6681   XZ=              0.4806   YZ=             -0.4072

 Normal termination of Gaussian 16 at Tue Dec  5 18:59:10 2023.
