 Gaussian 16, Revision B.01,
 Gaussian 16:  ES64L-G16RevB.01 20-Dec-2017

 -------------------------
 #P B3LYP/6-311+g(d) force
 -------------------------

 -----
 DPGEN
 -----
 Symbolic Z-matrix:
 Charge =  0 Multiplicity = 2

                         Standard orientation:
 ---------------------------------------------------------------------
 Center     Atomic      Atomic             Coordinates (Angstroms)
 Number     Number       Type             X           Y           Z
 ---------------------------------------------------------------------
      1         11           0       -1.329329   -2.504727    0.026993
      2         11           0        2.275314   -2.048970   -0.179031
      3         11           0       -0.711146    2.996454    0.041518
      4         11           0       -0.032672    0.023430   -1.453679
      5         11           0        2.839959    1.403241   -0.202364
      6         11           0       -3.161277    0.163570   -0.240664
      7         11           0        0.119152   -0.032998    2.007227
 ---------------------------------------------------------------------

 SCF Done:  E(UB3LYP) =  -1136.13861358     A.U. after   20 cycles

 The electronic state is 2-A.
 Alpha  occ. eigenvalues --  -38.44105 -38.44001 -38.43650 -38.43564 -38.43277
 Alpha  occ. eigenvalues --  -38.43269 -38.42898  -2.19924  -2.19848  -2.19499
 Alpha  occ. eigenvalues --   -2.19377  -2.19182  -2.19168  -2.18926  -1.13605
 Alpha  occ. eigenvalues --   -1.13586  -1.13557  -1.13532  -1.13510  -1.13484
 Alpha  occ. eigenvalues --   -1.13184  -1.13159  -1.13134  -1.13061  -1.13046
 Alpha  occ. eigenvalues --   -1.13008  -1.12894  -1.12858  -1.12832  -1.12798
 Alpha  occ. eigenvalues --   -1.12795  -1.12781  -1.12615  -1.12554  -1.12547
 Alpha  occ. eigenvalues --   -0.18744  -0.13117  -0.12445  -0.10470
 Alpha virt. eigenvalues --   -0.05715  -0.05231  -0.04766  -0.03026  -0.02727
 Alpha virt. eigenvalues --   -0.02311  -0.01622  -0.01230  -0.00527  -0.00357
 Alpha virt. eigenvalues --    0.00013   0.00344   0.00781   0.00854   0.00887

  Beta  occ. eigenvalues --  -38.44100 -38.43995 -38.43644 -38.43562 -38.43261
  Beta  occ. eigenvalues --  -38.43176 -38.42845  -2.19917  -2.19840  -2.19492
  Beta  occ. eigenvalues --   -2.19376  -2.19159  -2.18997  -2.18830  -1.13592
  Beta  occ. eigenvalues --   -1.13574  -1.13552  -1.13525  -1.13493  -1.13475
  Beta  occ. eigenvalues --   -1.13175  -1.13142  -1.13125  -1.13057  -1.13028
  Beta  occ. eigenvalues --   -1.13010  -1.12876  -1.12802  -1.12785  -1.12735
  Beta  occ. eigenvalues --   -1.12670  -1.12657  -1.12542  -1.12487  -1.12474
  Beta  occ. eigenvalues --   -0.18026  -0.12860  -0.12216
  Beta virt. eigenvalues --   -0.06555  -0.05687  -0.05217  -0.04741  -0.02263
  Beta virt. eigenvalues --   -0.01965  -0.01527  -0.01251  -0.01160  -0.00571
  Beta virt. eigenvalues --   -0.00408   0.00158   0.00381   0.00823   0.00866

 Mulliken charges and spin densities:
               1          2
     1  Na   0.387256   0.036148
     2  Na   0.258394  -0.008698
     3  Na   0.058834  -0.074861
     4  Na  -0.546344   0.325674
     5  Na   0.125816  -0.055000
     6  Na   0.211254  -0.008900
     7  Na  -0.495211   0.785636
 Sum of Mulliken charges =  -0.00000   1.00000

 Dipole moment (field-independent basis, Debye):
    X=              0.1259    Y=              0.1826    Z=              0.1354  Tot=              0.2598
 Quadrupole moment (field-independent basis, Debye-Ang):
   XX=            -54.9827   YY=            -60.9554   ZZ=            -76.0254
   XY=             -0.2017   XZ=             -0.2330   YZ=              0.1225

 Normal termination of Gaussian 16 at Thu Dec  7 15:24:06 2023.
