 Gaussian 16, Revision B.01,
 Gaussian 16:  ES64L-G16RevB.01 20-Dec-2017

 -------------------------
 #P B3LYP/6-311+g(d) force
 -------------------------

 -----
 DPGEN
 -----
 Symbolic Z-matrix:
 Charge =  0 Multiplicity = 2

                         Standard orientation:
 ---------------------------------------------------------------------
 Center     Atomic      Atomic             Coordinates (Angstroms)
 Number     Number       Type             X           Y           Z
 ---------------------------------------------------------------------
      1         11           0        2.354414    1.708893   -0.246853
      2         11           0        2.800203   -1.349325    0.054342
      3         11           0       -0.454298   -2.516284    0.108095
      4         11           0       -0.263439   -0.106528   -1.638103
      5         11           0       -3.228205   -0.493647   -0.023553
      6         11           0        0.010050    0.284866    1.707830
      7         11           0       -1.218725    2.472025    0.038242
 ---------------------------------------------------------------------

 SCF Done:  E(UB3LYP) =  -1136.13289341     A.U. after   19 cycles

 The electronic state is 2-A.
 Alpha  occ. eigenvalues --  -38.44501 -38.43893 -38.43681 -38.43166 -38.43083
 Alpha  occ. eigenvalues --  -38.43020 -38.42970  -2.20342  -2.19764  -2.19575
 Alpha  occ. eigenvalues --   -2.19129  -2.19086  -2.19048  -2.18910  -1.14014
 Alpha  occ. eigenvalues --   -1.13996  -1.13985  -1.13489  -1.13418  -1.13409
 Alpha  occ. eigenvalues --   -1.13240  -1.13235  -1.13196  -1.12919  -1.12898
 Alpha  occ. eigenvalues --   -1.12827  -1.12737  -1.12721  -1.12703  -1.12684
 Alpha  occ. eigenvalues --   -1.12652  -1.12623  -1.12563  -1.12551  -1.12502
 Alpha  occ. eigenvalues --   -0.19396  -0.13525  -0.12421  -0.10591
 Alpha virt. eigenvalues --   -0.06048  -0.05047  -0.04214  -0.03209  -0.02674
 Alpha virt. eigenvalues --   -0.02147  -0.01931  -0.01002  -0.00149  -0.00065
 Alpha virt. eigenvalues --    0.00018   0.00337   0.00797   0.00911   0.00943

  Beta  occ. eigenvalues --  -38.44498 -38.43891 -38.43673 -38.43156 -38.43010
  Beta  occ. eigenvalues --  -38.42959 -38.42938  -2.20339  -2.19763  -2.19564
  Beta  occ. eigenvalues --   -2.19072  -2.18997  -2.18901  -2.18894  -1.14001
  Beta  occ. eigenvalues --   -1.13993  -1.13978  -1.13491  -1.13411  -1.13393
  Beta  occ. eigenvalues --   -1.13235  -1.13199  -1.13192  -1.12872  -1.12831
  Beta  occ. eigenvalues --   -1.12757  -1.12681  -1.12664  -1.12628  -1.12617
  Beta  occ. eigenvalues --   -1.12573  -1.12532  -1.12519  -1.12501  -1.12485
  Beta  occ. eigenvalues --   -0.18663  -0.13272  -0.12130
  Beta virt. eigenvalues --   -0.06647  -0.06014  -0.05049  -0.04219  -0.02410
  Beta virt. eigenvalues --   -0.01862  -0.01841  -0.01109  -0.00951  -0.00198
  Beta virt. eigenvalues --   -0.00106   0.00151   0.00365   0.00833   0.00907

 Mulliken charges and spin densities:
               1          2
     1  Na   0.276442  -0.029923
     2  Na   0.056259  -0.046305
     3  Na   0.267508  -0.085399
     4  Na  -0.576241   0.670037
     5  Na   0.216659  -0.081126
     6  Na  -0.518518   0.694125
     7  Na   0.277891  -0.121409
 Sum of Mulliken charges =  -0.00000   1.00000

 Dipole moment (field-independent basis, Debye):
    X=             -0.2595    Y=              0.0011    Z=              0.0243  Tot=              0.2606
 Quadrupole moment (field-independent basis, Debye-Ang):
   XX=            -51.0109   YY=            -65.4917   ZZ=            -75.4160
   XY=             -0.1140   XZ=             -0.5067   YZ=             -1.0057

 Normal termination of Gaussian 16 at Tue Nov 28 21:07:18 2023.
