 Gaussian 16, Revision B.01,
 Gaussian 16:  ES64L-G16RevB.01 20-Dec-2017

 -------------------------
 #P B3LYP/6-311+g(d) force
 -------------------------

 -----
 DPGEN
 -----
 Symbolic Z-matrix:
 Charge =  0 Multiplicity = 2

                         Standard orientation:
 ---------------------------------------------------------------------
 Center     Atomic      Atomic             Coordinates (Angstroms)
 Number     Number       Type             X           Y           Z
 ---------------------------------------------------------------------
      1         11           0        0.635850    2.764634   -0.051991
      2         11           0       -2.632677    1.347581    0.229373
      3         11           0       -0.256718    0.335980   -1.717716
      4         11           0        1.218296   -2.490865   -0.367853
      5         11           0        3.128670    0.296874   -0.143914
      6         11           0        0.145280   -0.446561    2.386098
      7         11           0       -2.238701   -1.807643   -0.333997
 ---------------------------------------------------------------------

 SCF Done:  E(UB3LYP) =  -1136.13692007     A.U. after   19 cycles

 The electronic state is 2-A.
 Alpha  occ. eigenvalues --  -38.44340 -38.43956 -38.43698 -38.43441 -38.43420
 Alpha  occ. eigenvalues --  -38.43197 -38.43175  -2.20172  -2.19777  -2.19573
 Alpha  occ. eigenvalues --   -2.19443  -2.19305  -2.19060  -2.19041  -1.13817
 Alpha  occ. eigenvalues --   -1.13800  -1.13793  -1.13451  -1.13437  -1.13424
 Alpha  occ. eigenvalues --   -1.13295  -1.13231  -1.13222  -1.13143  -1.13124
 Alpha  occ. eigenvalues --   -1.13054  -1.12966  -1.12955  -1.12934  -1.12740
 Alpha  occ. eigenvalues --   -1.12729  -1.12722  -1.12694  -1.12692  -1.12656
 Alpha  occ. eigenvalues --   -0.18707  -0.12999  -0.12372  -0.11299
 Alpha virt. eigenvalues --   -0.05514  -0.04965  -0.04472  -0.03461  -0.03204
 Alpha virt. eigenvalues --   -0.02940  -0.01348  -0.00889  -0.00177  -0.00127
 Alpha virt. eigenvalues --   -0.00069   0.00372   0.00800   0.00932   0.00938

  Beta  occ. eigenvalues --  -38.44233 -38.43955 -38.43693 -38.43413 -38.43383
  Beta  occ. eigenvalues --  -38.43189 -38.43172  -2.19973  -2.19778  -2.19566
  Beta  occ. eigenvalues --   -2.19338  -2.19296  -2.19050  -2.19038  -1.13685
  Beta  occ. eigenvalues --   -1.13661  -1.13652  -1.13445  -1.13434  -1.13423
  Beta  occ. eigenvalues --   -1.13285  -1.13222  -1.13202  -1.13075  -1.13065
  Beta  occ. eigenvalues --   -1.12984  -1.12945  -1.12933  -1.12921  -1.12731
  Beta  occ. eigenvalues --   -1.12717  -1.12695  -1.12687  -1.12677  -1.12658
  Beta  occ. eigenvalues --   -0.17967  -0.12809  -0.12151
  Beta virt. eigenvalues --   -0.07285  -0.05461  -0.04978  -0.04373  -0.02637
  Beta virt. eigenvalues --   -0.02363  -0.01940  -0.01267  -0.00821  -0.00219
  Beta virt. eigenvalues --   -0.00162   0.00092   0.00402   0.00889   0.00928

 Mulliken charges and spin densities:
               1          2
     1  Na   0.182240   0.029731
     2  Na   0.156400   0.104777
     3  Na  -0.132186   0.191733
     4  Na   0.187972   0.006342
     5  Na   0.084642  -0.036707
     6  Na  -0.770414   0.694888
     7  Na   0.291345   0.009235
 Sum of Mulliken charges =  -0.00000   1.00000

 Dipole moment (field-independent basis, Debye):
    X=              0.0786    Y=              0.0069    Z=              0.3307  Tot=              0.3400
 Quadrupole moment (field-independent basis, Debye-Ang):
   XX=            -58.7072   YY=            -65.9492   ZZ=            -70.9008
   XY=              0.0568   XZ=             -0.7233   YZ=              1.5756

 Normal termination of Gaussian 16 at Thu Dec  7 09:22:01 2023.
