 Gaussian 16, Revision B.01,
 Gaussian 16:  ES64L-G16RevB.01 20-Dec-2017

 -------------------------
 #P B3LYP/6-311+g(d) force
 -------------------------

 -----
 DPGEN
 -----
 Symbolic Z-matrix:
 Charge =  0 Multiplicity = 2

                         Standard orientation:
 ---------------------------------------------------------------------
 Center     Atomic      Atomic             Coordinates (Angstroms)
 Number     Number       Type             X           Y           Z
 ---------------------------------------------------------------------
      1         11           0        3.400014    1.308326   -0.381414
      2         11           0       -3.359988   -1.325155   -0.064307
      3         11           0       -2.484042    1.809590   -0.707487
      4         11           0        0.247866    3.270250    1.014971
      5         11           0       -0.527433   -2.781378    0.735074
      6         11           0        2.726055   -2.451487   -0.198655
      7         11           0       -0.002472    0.169854   -0.398182
 ---------------------------------------------------------------------

 SCF Done:  E(UB3LYP) =  -1136.12278098     A.U. after   25 cycles

 The electronic state is 2-A.
 Alpha  occ. eigenvalues --  -38.44607 -38.44526 -38.43843 -38.43731 -38.43670
 Alpha  occ. eigenvalues --  -38.43565 -38.43388  -2.20410  -2.20392  -2.19815
 Alpha  occ. eigenvalues --   -2.19561  -2.19533  -2.19375  -2.19276  -1.14171
 Alpha  occ. eigenvalues --   -1.14080  -1.14071  -1.14052  -1.14031  -1.14011
 Alpha  occ. eigenvalues --   -1.13547  -1.13470  -1.13447  -1.13224  -1.13202
 Alpha  occ. eigenvalues --   -1.13199  -1.13190  -1.13187  -1.13170  -1.13038
 Alpha  occ. eigenvalues --   -1.13010  -1.12998  -1.12953  -1.12924  -1.12888
 Alpha  occ. eigenvalues --   -0.17643  -0.13635  -0.13378  -0.09507
 Alpha virt. eigenvalues --   -0.06731  -0.05778  -0.04240  -0.03361  -0.02759
 Alpha virt. eigenvalues --   -0.02341  -0.01922  -0.01351  -0.00886  -0.00520
 Alpha virt. eigenvalues --    0.00057   0.00238   0.00268   0.00544   0.00775

  Beta  occ. eigenvalues --  -38.44604 -38.44511 -38.43852 -38.43683 -38.43639
  Beta  occ. eigenvalues --  -38.43493 -38.43356  -2.20394  -2.20388  -2.19830
  Beta  occ. eigenvalues --   -2.19478  -2.19473  -2.19242  -2.19217  -1.14167
  Beta  occ. eigenvalues --   -1.14087  -1.14063  -1.14055  -1.13992  -1.13946
  Beta  occ. eigenvalues --   -1.13547  -1.13481  -1.13465  -1.13164  -1.13158
  Beta  occ. eigenvalues --   -1.13153  -1.13133  -1.13132  -1.13130  -1.12947
  Beta  occ. eigenvalues --   -1.12924  -1.12915  -1.12901  -1.12884  -1.12844
  Beta  occ. eigenvalues --   -0.17378  -0.12906  -0.12861
  Beta virt. eigenvalues --   -0.06775  -0.06252  -0.05484  -0.04093  -0.02834
  Beta virt. eigenvalues --   -0.02250  -0.02034  -0.01856  -0.01014  -0.00710
  Beta virt. eigenvalues --   -0.00339   0.00300   0.00312   0.00487   0.00649

 Mulliken charges and spin densities:
               1          2
     1  Na   0.542297   0.442971
     2  Na   0.637030   0.228393
     3  Na   1.995836   0.208744
     4  Na   0.645752   0.181503
     5  Na   0.514173   0.123598
     6  Na   0.480036   0.021031
     7  Na  -4.815123  -0.206240
 Sum of Mulliken charges =  -0.00000   1.00000

 Dipole moment (field-independent basis, Debye):
    X=             -0.4181    Y=             -0.0385    Z=              0.3711  Tot=              0.5604
 Quadrupole moment (field-independent basis, Debye-Ang):
   XX=            -65.3623   YY=            -61.2139   ZZ=            -70.8400
   XY=             -2.2005   XZ=              0.7886   YZ=              0.4005

 Normal termination of Gaussian 16 at Wed Nov 29 16:35:51 2023.
