 Gaussian 16, Revision B.01,
 Gaussian 16:  ES64L-G16RevB.01 20-Dec-2017

 -------------------------
 #P B3LYP/6-311+g(d) force
 -------------------------

 -----
 DPGEN
 -----
 Symbolic Z-matrix:
 Charge =  0 Multiplicity = 2

                         Standard orientation:
 ---------------------------------------------------------------------
 Center     Atomic      Atomic             Coordinates (Angstroms)
 Number     Number       Type             X           Y           Z
 ---------------------------------------------------------------------
      1         11           0        0.310252   -0.684765   -1.793118
      2         11           0        3.023158   -1.006073    0.181831
      3         11           0       -0.555160   -2.841127    0.165633
      4         11           0       -0.210243    0.072123    1.823839
      5         11           0       -1.335603    2.793834   -0.219309
      6         11           0        2.123951    2.009927   -0.062796
      7         11           0       -3.356355   -0.343919   -0.096081
 ---------------------------------------------------------------------

 SCF Done:  E(UB3LYP) =  -1136.13492763     A.U. after   20 cycles

 The electronic state is 2-A.
 Alpha  occ. eigenvalues --  -38.44719 -38.44166 -38.43523 -38.43511 -38.43502
 Alpha  occ. eigenvalues --  -38.43356 -38.43264  -2.20492  -2.20018  -2.19390
 Alpha  occ. eigenvalues --   -2.19384  -2.19305  -2.19287  -2.19180  -1.14171
 Alpha  occ. eigenvalues --   -1.14144  -1.14132  -1.13711  -1.13679  -1.13655
 Alpha  occ. eigenvalues --   -1.13168  -1.13066  -1.13061  -1.13054  -1.13039
 Alpha  occ. eigenvalues --   -1.12991  -1.12979  -1.12969  -1.12942  -1.12940
 Alpha  occ. eigenvalues --   -1.12897  -1.12889  -1.12856  -1.12807  -1.12794
 Alpha  occ. eigenvalues --   -0.18479  -0.13107  -0.12427  -0.10438
 Alpha virt. eigenvalues --   -0.06132  -0.05109  -0.04763  -0.03174  -0.02876
 Alpha virt. eigenvalues --   -0.02279  -0.01844  -0.01057  -0.00564  -0.00436
 Alpha virt. eigenvalues --   -0.00009   0.00350   0.00757   0.00847   0.00874

  Beta  occ. eigenvalues --  -38.44719 -38.44161 -38.43518 -38.43501 -38.43499
  Beta  occ. eigenvalues --  -38.43285 -38.43184  -2.20493  -2.20013  -2.19384
  Beta  occ. eigenvalues --   -2.19371  -2.19301  -2.19156  -2.19033  -1.14155
  Beta  occ. eigenvalues --   -1.14147  -1.14136  -1.13711  -1.13660  -1.13642
  Beta  occ. eigenvalues --   -1.13138  -1.13063  -1.13042  -1.13022  -1.13019
  Beta  occ. eigenvalues --   -1.12986  -1.12968  -1.12958  -1.12942  -1.12857
  Beta  occ. eigenvalues --   -1.12811  -1.12799  -1.12759  -1.12702  -1.12687
  Beta  occ. eigenvalues --   -0.17758  -0.12900  -0.12197
  Beta virt. eigenvalues --   -0.06577  -0.06099  -0.05114  -0.04663  -0.02414
  Beta virt. eigenvalues --   -0.02118  -0.01756  -0.01275  -0.00995  -0.00617
  Beta virt. eigenvalues --   -0.00471   0.00143   0.00383   0.00785   0.00861

 Mulliken charges and spin densities:
               1          2
     1  Na  -0.242985   0.718659
     2  Na   0.384606  -0.031267
     3  Na   0.229173  -0.170505
     4  Na  -0.167336   0.701360
     5  Na  -0.136920  -0.076067
     6  Na  -0.049552  -0.043259
     7  Na  -0.016987  -0.098921
 Sum of Mulliken charges =  -0.00000   1.00000

 Dipole moment (field-independent basis, Debye):
    X=             -0.2864    Y=             -0.2208    Z=              0.0147  Tot=              0.3619
 Quadrupole moment (field-independent basis, Debye-Ang):
   XX=            -53.6799   YY=            -63.5877   ZZ=            -75.7193
   XY=             -0.1699   XZ=              1.2222   YZ=             -1.6683

 Normal termination of Gaussian 16 at Sun Dec  3 13:38:30 2023.
