 Gaussian 16, Revision B.01,
 Gaussian 16:  ES64L-G16RevB.01 20-Dec-2017

 -------------------------
 #P B3LYP/6-311+g(d) force
 -------------------------

 -----
 DPGEN
 -----
 Symbolic Z-matrix:
 Charge =  0 Multiplicity = 2

                         Standard orientation:
 ---------------------------------------------------------------------
 Center     Atomic      Atomic             Coordinates (Angstroms)
 Number     Number       Type             X           Y           Z
 ---------------------------------------------------------------------
      1         11           0        0.653755    3.078089    0.435138
      2         11           0       -2.949490    0.879695   -0.801393
      3         11           0        1.612686   -2.588531    0.518982
      4         11           0        0.321971   -0.113509   -1.755907
      5         11           0        3.261493    0.245127   -0.453269
      6         11           0       -0.645853    0.379238    1.986034
      7         11           0       -2.254562   -1.880109    0.070416
 ---------------------------------------------------------------------

 SCF Done:  E(UB3LYP) =  -1136.13218032     A.U. after   19 cycles

 The electronic state is 2-A.
 Alpha  occ. eigenvalues --  -38.44327 -38.44282 -38.43837 -38.43695 -38.43659
 Alpha  occ. eigenvalues --  -38.43517 -38.43161  -2.20156  -2.20150  -2.19741
 Alpha  occ. eigenvalues --   -2.19583  -2.19553  -2.19328  -2.18956  -1.13879
 Alpha  occ. eigenvalues --   -1.13853  -1.13810  -1.13808  -1.13774  -1.13766
 Alpha  occ. eigenvalues --   -1.13423  -1.13381  -1.13366  -1.13271  -1.13238
 Alpha  occ. eigenvalues --   -1.13213  -1.13208  -1.13187  -1.13175  -1.13003
 Alpha  occ. eigenvalues --   -1.12988  -1.12965  -1.12638  -1.12610  -1.12597
 Alpha  occ. eigenvalues --   -0.18314  -0.13420  -0.11915  -0.11024
 Alpha virt. eigenvalues --   -0.05831  -0.05093  -0.04744  -0.03425  -0.02913
 Alpha virt. eigenvalues --   -0.02683  -0.01704  -0.01028  -0.00494  -0.00251
 Alpha virt. eigenvalues --   -0.00034   0.00351   0.00721   0.00860   0.00874

  Beta  occ. eigenvalues --  -38.44320 -38.44257 -38.43780 -38.43652 -38.43613
  Beta  occ. eigenvalues --  -38.43509 -38.43157  -2.20138  -2.20111  -2.19637
  Beta  occ. eigenvalues --   -2.19545  -2.19431  -2.19315  -2.18950  -1.13854
  Beta  occ. eigenvalues --   -1.13833  -1.13799  -1.13766  -1.13763  -1.13735
  Beta  occ. eigenvalues --   -1.13352  -1.13308  -1.13291  -1.13235  -1.13188
  Beta  occ. eigenvalues --   -1.13169  -1.13141  -1.13111  -1.13082  -1.12991
  Beta  occ. eigenvalues --   -1.12981  -1.12946  -1.12622  -1.12607  -1.12591
  Beta  occ. eigenvalues --   -0.17603  -0.13181  -0.11660
  Beta virt. eigenvalues --   -0.07207  -0.05702  -0.05004  -0.04565  -0.02834
  Beta virt. eigenvalues --   -0.02237  -0.01749  -0.01544  -0.00923  -0.00432
  Beta virt. eigenvalues --   -0.00290   0.00097   0.00401   0.00814   0.00876

 Mulliken charges and spin densities:
               1          2
     1  Na  -0.192885  -0.093809
     2  Na   0.349324   0.100288
     3  Na  -0.265287   0.042677
     4  Na  -0.001265   0.313629
     5  Na   0.198299  -0.028435
     6  Na  -0.171904   0.606334
     7  Na   0.083718   0.059316
 Sum of Mulliken charges =  -0.00000   1.00000

 Dipole moment (field-independent basis, Debye):
    X=              0.0564    Y=             -0.0225    Z=             -0.1070  Tot=              0.1231
 Quadrupole moment (field-independent basis, Debye-Ang):
   XX=            -56.4275   YY=            -66.1340   ZZ=            -72.5191
   XY=             -0.0661   XZ=              1.3512   YZ=             -2.2016

 Normal termination of Gaussian 16 at Tue Dec  5 10:07:41 2023.
