 Gaussian 16, Revision B.01,
 Gaussian 16:  ES64L-G16RevB.01 20-Dec-2017

 -------------------------
 #P B3LYP/6-311+g(d) force
 -------------------------

 -----
 DPGEN
 -----
 Symbolic Z-matrix:
 Charge =  0 Multiplicity = 2

                         Standard orientation:
 ---------------------------------------------------------------------
 Center     Atomic      Atomic             Coordinates (Angstroms)
 Number     Number       Type             X           Y           Z
 ---------------------------------------------------------------------
      1         11           0        2.713849    1.461229    0.575846
      2         11           0       -3.291424    0.314228   -0.335748
      3         11           0       -0.871898   -1.807854   -1.192638
      4         11           0       -0.858630    2.184165    0.331662
      5         11           0        0.973975    0.655811   -1.873697
      6         11           0       -0.763532   -0.915154    2.387385
      7         11           0        2.097660   -1.892425    0.107189
 ---------------------------------------------------------------------

 SCF Done:  E(UB3LYP) =  -1136.13033150     A.U. after   21 cycles

 The electronic state is 2-A.
 Alpha  occ. eigenvalues --  -38.44794 -38.44272 -38.43925 -38.43766 -38.43289
 Alpha  occ. eigenvalues --  -38.42991 -38.42919  -2.20609  -2.20115  -2.19899
 Alpha  occ. eigenvalues --   -2.19622  -2.19164  -2.18923  -2.18811  -1.14268
 Alpha  occ. eigenvalues --   -1.14237  -1.14224  -1.13796  -1.13781  -1.13751
 Alpha  occ. eigenvalues --   -1.13592  -1.13581  -1.13517  -1.13280  -1.13277
 Alpha  occ. eigenvalues --   -1.13250  -1.12858  -1.12827  -1.12802  -1.12624
 Alpha  occ. eigenvalues --   -1.12556  -1.12539  -1.12507  -1.12482  -1.12430
 Alpha  occ. eigenvalues --   -0.18769  -0.13301  -0.11832  -0.11749
 Alpha virt. eigenvalues --   -0.05898  -0.04800  -0.04233  -0.03502  -0.03392
 Alpha virt. eigenvalues --   -0.03014  -0.01556  -0.00677  -0.00361   0.00124
 Alpha virt. eigenvalues --    0.00262   0.00365   0.00551   0.00742   0.00909

  Beta  occ. eigenvalues --  -38.44703 -38.44273 -38.43872 -38.43759 -38.43286
  Beta  occ. eigenvalues --  -38.42957 -38.42911  -2.20440  -2.20118  -2.19802
  Beta  occ. eigenvalues --   -2.19611  -2.19161  -2.18864  -2.18798  -1.14151
  Beta  occ. eigenvalues --   -1.14123  -1.14103  -1.13800  -1.13777  -1.13744
  Beta  occ. eigenvalues --   -1.13533  -1.13506  -1.13449  -1.13266  -1.13258
  Beta  occ. eigenvalues --   -1.13241  -1.12854  -1.12815  -1.12792  -1.12576
  Beta  occ. eigenvalues --   -1.12505  -1.12496  -1.12495  -1.12452  -1.12427
  Beta  occ. eigenvalues --   -0.17990  -0.13144  -0.11553
  Beta virt. eigenvalues --   -0.07823  -0.05653  -0.04768  -0.03627  -0.03325
  Beta virt. eigenvalues --   -0.02587  -0.02118  -0.01469  -0.00622  -0.00088
  Beta virt. eigenvalues --    0.00157   0.00260   0.00414   0.00763   0.00869

 Mulliken charges and spin densities:
               1          2
     1  Na   0.207130   0.129817
     2  Na   0.258998  -0.079140
     3  Na   0.249863   0.096293
     4  Na  -0.079484   0.110511
     5  Na  -0.044492   0.160303
     6  Na  -0.591992   0.512541
     7  Na  -0.000024   0.069675
 Sum of Mulliken charges =  -0.00000   1.00000

 Dipole moment (field-independent basis, Debye):
    X=             -0.1905    Y=             -0.0952    Z=              0.5118  Tot=              0.5543
 Quadrupole moment (field-independent basis, Debye-Ang):
   XX=            -56.4703   YY=            -74.3330   ZZ=            -65.3896
   XY=              0.2286   XZ=              2.0924   YZ=             -0.0764

 Normal termination of Gaussian 16 at Fri Dec  8 04:43:39 2023.
