 Gaussian 16, Revision B.01,
 Gaussian 16:  ES64L-G16RevB.01 20-Dec-2017

 -------------------------
 #P B3LYP/6-311+g(d) force
 -------------------------

 -----
 DPGEN
 -----
 Symbolic Z-matrix:
 Charge =  0 Multiplicity = 2

                         Standard orientation:
 ---------------------------------------------------------------------
 Center     Atomic      Atomic             Coordinates (Angstroms)
 Number     Number       Type             X           Y           Z
 ---------------------------------------------------------------------
      1         11           0       -3.083127   -1.382432   -0.223647
      2         11           0        1.173316    3.168410    0.494056
      3         11           0       -2.021032    1.755940   -0.286827
      4         11           0        3.180458   -1.323598   -0.731374
      5         11           0        0.116605   -2.761969    0.272418
      6         11           0        0.395273   -0.184377    2.118166
      7         11           0        0.238507    0.728025   -1.642792
 ---------------------------------------------------------------------

 SCF Done:  E(UB3LYP) =  -1136.12859682     A.U. after   20 cycles

 The electronic state is 2-A.
 Alpha  occ. eigenvalues --  -38.44124 -38.44102 -38.44014 -38.43857 -38.43733
 Alpha  occ. eigenvalues --  -38.43665 -38.43511  -2.19961  -2.19935  -2.19803
 Alpha  occ. eigenvalues --   -2.19798  -2.19651  -2.19519  -2.19319  -1.13699
 Alpha  occ. eigenvalues --   -1.13642  -1.13606  -1.13605  -1.13585  -1.13579
 Alpha  occ. eigenvalues --   -1.13573  -1.13469  -1.13457  -1.13441  -1.13427
 Alpha  occ. eigenvalues --   -1.13396  -1.13293  -1.13265  -1.13221  -1.13219
 Alpha  occ. eigenvalues --   -1.13184  -1.13129  -1.12993  -1.12970  -1.12962
 Alpha  occ. eigenvalues --   -0.18198  -0.12998  -0.12387  -0.10914
 Alpha virt. eigenvalues --   -0.05598  -0.05456  -0.04740  -0.03364  -0.02954
 Alpha virt. eigenvalues --   -0.02559  -0.01578  -0.01452  -0.00348  -0.00229
 Alpha virt. eigenvalues --   -0.00078   0.00313   0.00718   0.00803   0.00859

  Beta  occ. eigenvalues --  -38.44114 -38.44012 -38.43988 -38.43806 -38.43722
  Beta  occ. eigenvalues --  -38.43658 -38.43515  -2.19917  -2.19796  -2.19754
  Beta  occ. eigenvalues --   -2.19709  -2.19632  -2.19511  -2.19329  -1.13650
  Beta  occ. eigenvalues --   -1.13590  -1.13569  -1.13564  -1.13531  -1.13478
  Beta  occ. eigenvalues --   -1.13463  -1.13427  -1.13421  -1.13406  -1.13372
  Beta  occ. eigenvalues --   -1.13336  -1.13273  -1.13224  -1.13202  -1.13198
  Beta  occ. eigenvalues --   -1.13170  -1.13124  -1.13001  -1.12972  -1.12963
  Beta  occ. eigenvalues --   -0.17530  -0.12762  -0.12136
  Beta virt. eigenvalues --   -0.07137  -0.05490  -0.05220  -0.04643  -0.02681
  Beta virt. eigenvalues --   -0.02352  -0.01672  -0.01457  -0.01285  -0.00372
  Beta virt. eigenvalues --   -0.00204   0.00073   0.00364   0.00794   0.00819

 Mulliken charges and spin densities:
               1          2
     1  Na  -0.275599  -0.091210
     2  Na   0.027752   0.053330
     3  Na   0.383726   0.255672
     4  Na  -0.068289   0.053938
     5  Na   0.161489   0.156450
     6  Na  -0.197145   0.423280
     7  Na  -0.031932   0.148541
 Sum of Mulliken charges =  -0.00000   1.00000

 Dipole moment (field-independent basis, Debye):
    X=              0.4576    Y=              0.3295    Z=              0.2123  Tot=              0.6025
 Quadrupole moment (field-independent basis, Debye-Ang):
   XX=            -60.9164   YY=            -60.5454   ZZ=            -73.2463
   XY=              2.0614   XZ=             -0.4363   YZ=              1.9824

 Normal termination of Gaussian 16 at Tue Dec  5 18:49:51 2023.
