 Gaussian 16, Revision B.01,
 Gaussian 16:  ES64L-G16RevB.01 20-Dec-2017

 -------------------------
 #P B3LYP/6-311+g(d) force
 -------------------------

 -----
 DPGEN
 -----
 Symbolic Z-matrix:
 Charge =  0 Multiplicity = 2

                         Standard orientation:
 ---------------------------------------------------------------------
 Center     Atomic      Atomic             Coordinates (Angstroms)
 Number     Number       Type             X           Y           Z
 ---------------------------------------------------------------------
      1         11           0       -3.050527   -2.322628    0.141386
      2         11           0       -1.345778    0.318154   -1.647776
      3         11           0        3.522961   -0.263102    0.525540
      4         11           0        1.440019    1.872085   -0.816056
      5         11           0       -1.630655    3.199578    0.505576
      6         11           0        1.389955   -2.402584   -0.709353
      7         11           0       -0.325974   -0.401503    2.000684
 ---------------------------------------------------------------------

 SCF Done:  E(UB3LYP) =  -1136.12796071     A.U. after   21 cycles

 The electronic state is 2-A.
 Alpha  occ. eigenvalues --  -38.44669 -38.44211 -38.44148 -38.43953 -38.43926
 Alpha  occ. eigenvalues --  -38.43655 -38.43350  -2.20464  -2.19963  -2.19925
 Alpha  occ. eigenvalues --   -2.19770  -2.19759  -2.19519  -2.19223  -1.14143
 Alpha  occ. eigenvalues --   -1.14136  -1.14092  -1.13639  -1.13631  -1.13598
 Alpha  occ. eigenvalues --   -1.13598  -1.13584  -1.13559  -1.13450  -1.13444
 Alpha  occ. eigenvalues --   -1.13412  -1.13406  -1.13400  -1.13384  -1.13234
 Alpha  occ. eigenvalues --   -1.13188  -1.13118  -1.12921  -1.12875  -1.12816
 Alpha  occ. eigenvalues --   -0.17725  -0.12880  -0.12196  -0.10486
 Alpha virt. eigenvalues --   -0.06215  -0.05740  -0.04455  -0.03204  -0.03045
 Alpha virt. eigenvalues --   -0.02497  -0.01800  -0.01645  -0.00631  -0.00298
 Alpha virt. eigenvalues --   -0.00002   0.00286   0.00554   0.00701   0.00756

  Beta  occ. eigenvalues --  -38.44656 -38.44216 -38.44143 -38.43924 -38.43871
  Beta  occ. eigenvalues --  -38.43638 -38.43297  -2.20442  -2.19975  -2.19917
  Beta  occ. eigenvalues --   -2.19758  -2.19616  -2.19490  -2.19125  -1.14126
  Beta  occ. eigenvalues --   -1.14105  -1.14080  -1.13646  -1.13628  -1.13606
  Beta  occ. eigenvalues --   -1.13593  -1.13567  -1.13554  -1.13449  -1.13409
  Beta  occ. eigenvalues --   -1.13389  -1.13339  -1.13294  -1.13276  -1.13205
  Beta  occ. eigenvalues --   -1.13151  -1.13101  -1.12856  -1.12797  -1.12748
  Beta  occ. eigenvalues --   -0.17012  -0.12741  -0.12042
  Beta virt. eigenvalues --   -0.06677  -0.06179  -0.05493  -0.04346  -0.02645
  Beta virt. eigenvalues --   -0.02422  -0.01841  -0.01504  -0.01453  -0.00472
  Beta virt. eigenvalues --   -0.00300   0.00108   0.00334   0.00624   0.00727

 Mulliken charges and spin densities:
               1          2
     1  Na  -0.019867  -0.115545
     2  Na   0.338583   0.312274
     3  Na   0.523263  -0.019268
     4  Na  -0.285572   0.158412
     5  Na   0.031106  -0.071075
     6  Na  -0.191072   0.008088
     7  Na  -0.396441   0.727115
 Sum of Mulliken charges =  -0.00000   1.00000

 Dipole moment (field-independent basis, Debye):
    X=             -0.0544    Y=             -0.1732    Z=              0.1723  Tot=              0.2503
 Quadrupole moment (field-independent basis, Debye-Ang):
   XX=            -56.8992   YY=            -61.7252   ZZ=            -74.4018
   XY=             -0.7535   XZ=             -0.1911   YZ=              2.2185

 Normal termination of Gaussian 16 at Thu Dec  7 19:52:36 2023.
