 Gaussian 16, Revision B.01,
 Gaussian 16:  ES64L-G16RevB.01 20-Dec-2017

 -------------------------
 #P B3LYP/6-311+g(d) force
 -------------------------

 -----
 DPGEN
 -----
 Symbolic Z-matrix:
 Charge =  0 Multiplicity = 2

                         Standard orientation:
 ---------------------------------------------------------------------
 Center     Atomic      Atomic             Coordinates (Angstroms)
 Number     Number       Type             X           Y           Z
 ---------------------------------------------------------------------
      1         11           0        0.661878    2.562575   -1.162055
      2         11           0       -2.914748    0.711227   -1.079656
      3         11           0       -2.756393   -2.404763   -0.140112
      4         11           0        2.398854   -0.120462    1.707638
      5         11           0        3.861656   -1.140364   -1.065791
      6         11           0        0.101374   -0.707660   -0.268996
      7         11           0       -1.352622    1.099446    2.008971
 ---------------------------------------------------------------------

 SCF Done:  E(UB3LYP) =  -1136.12144994     A.U. after   23 cycles

 The electronic state is 2-A.
 Alpha  occ. eigenvalues --  -38.44490 -38.44308 -38.44221 -38.44083 -38.43556
 Alpha  occ. eigenvalues --  -38.43442 -38.43040  -2.20354  -2.20100  -2.20085
 Alpha  occ. eigenvalues --   -2.19934  -2.19443  -2.19356  -2.18874  -1.14045
 Alpha  occ. eigenvalues --   -1.14028  -1.13952  -1.13824  -1.13786  -1.13753
 Alpha  occ. eigenvalues --   -1.13746  -1.13721  -1.13656  -1.13629  -1.13576
 Alpha  occ. eigenvalues --   -1.13537  -1.13181  -1.13108  -1.13066  -1.13028
 Alpha  occ. eigenvalues --   -1.12994  -1.12965  -1.12547  -1.12531  -1.12519
 Alpha  occ. eigenvalues --   -0.18052  -0.13782  -0.11146  -0.10993
 Alpha virt. eigenvalues --   -0.06375  -0.05135  -0.04852  -0.03124  -0.02612
 Alpha virt. eigenvalues --   -0.02264  -0.02164  -0.01218  -0.00901  -0.00287
 Alpha virt. eigenvalues --    0.00005   0.00201   0.00260   0.00564   0.00775

  Beta  occ. eigenvalues --  -38.44469 -38.44288 -38.44192 -38.44030 -38.43509
  Beta  occ. eigenvalues --  -38.43426 -38.43047  -2.20315  -2.20062  -2.20035
  Beta  occ. eigenvalues --   -2.19837  -2.19420  -2.19269  -2.18887  -1.14011
  Beta  occ. eigenvalues --   -1.14005  -1.13923  -1.13793  -1.13753  -1.13725
  Beta  occ. eigenvalues --   -1.13714  -1.13692  -1.13605  -1.13563  -1.13495
  Beta  occ. eigenvalues --   -1.13473  -1.13106  -1.13096  -1.13056  -1.12968
  Beta  occ. eigenvalues --   -1.12932  -1.12910  -1.12557  -1.12534  -1.12526
  Beta  occ. eigenvalues --   -0.17373  -0.13587  -0.10927
  Beta virt. eigenvalues --   -0.07203  -0.06187  -0.04871  -0.04415  -0.02846
  Beta virt. eigenvalues --   -0.02180  -0.02076  -0.01626  -0.00911  -0.00553
  Beta virt. eigenvalues --   -0.00189   0.00143   0.00249   0.00350   0.00669

 Mulliken charges and spin densities:
               1          2
     1  Na  -0.359155   0.262104
     2  Na   0.953993   0.088469
     3  Na   0.776151  -0.151160
     4  Na   0.371531  -0.079391
     5  Na   0.442277   0.131910
     6  Na  -2.686804   0.654113
     7  Na   0.502007   0.093956
 Sum of Mulliken charges =  -0.00000   1.00000

 Dipole moment (field-independent basis, Debye):
    X=              0.1934    Y=              0.5928    Z=              0.1653  Tot=              0.6451
 Quadrupole moment (field-independent basis, Debye-Ang):
   XX=            -54.7815   YY=            -71.8365   ZZ=            -66.7403
   XY=             -1.9388   XZ=             -2.2678   YZ=             -0.1518

 Normal termination of Gaussian 16 at Tue Dec  5 17:51:53 2023.
