 Gaussian 16, Revision B.01,
 Gaussian 16:  ES64L-G16RevB.01 20-Dec-2017

 -------------------------
 #P B3LYP/6-311+g(d) force
 -------------------------

 -----
 DPGEN
 -----
 Symbolic Z-matrix:
 Charge =  0 Multiplicity = 2

                         Standard orientation:
 ---------------------------------------------------------------------
 Center     Atomic      Atomic             Coordinates (Angstroms)
 Number     Number       Type             X           Y           Z
 ---------------------------------------------------------------------
      1         11           0        0.052593   -2.277884   -0.554952
      2         11           0        3.126759   -1.016401   -1.642256
      3         11           0        2.574692   -1.286612    1.962942
      4         11           0        3.470244    2.307495   -0.214356
      5         11           0        0.222644    1.965728    0.143930
      6         11           0       -3.391070    0.010687    1.000888
      7         11           0       -6.055861    0.296987   -0.696195
 ---------------------------------------------------------------------

 SCF Done:  E(UB3LYP) =  -1136.10733480     A.U. after   29 cycles

 The electronic state is 2-A.
 Alpha  occ. eigenvalues --  -38.47289 -38.45129 -38.44246 -38.43869 -38.43666
 Alpha  occ. eigenvalues --  -38.43473 -38.42827  -2.23010  -2.20950  -2.20035
 Alpha  occ. eigenvalues --   -2.19677  -2.19470  -2.19252  -2.18646  -1.16697
 Alpha  occ. eigenvalues --   -1.16663  -1.16642  -1.14638  -1.14589  -1.14555
 Alpha  occ. eigenvalues --   -1.13732  -1.13689  -1.13644  -1.13329  -1.13313
 Alpha  occ. eigenvalues --   -1.13312  -1.13153  -1.13129  -1.13080  -1.12930
 Alpha  occ. eigenvalues --   -1.12928  -1.12896  -1.12319  -1.12303  -1.12296
 Alpha  occ. eigenvalues --   -0.16937  -0.13388  -0.11605  -0.10659
 Alpha virt. eigenvalues --   -0.07800  -0.05139  -0.04763  -0.03405  -0.02719
 Alpha virt. eigenvalues --   -0.02483  -0.02165  -0.01905  -0.01611  -0.00744
 Alpha virt. eigenvalues --   -0.00488  -0.00075   0.00085   0.00356   0.00521

  Beta  occ. eigenvalues --  -38.47304 -38.45072 -38.44219 -38.43796 -38.43613
  Beta  occ. eigenvalues --  -38.43482 -38.42827  -2.23039  -2.20844  -2.19987
  Beta  occ. eigenvalues --   -2.19540  -2.19372  -2.19276  -2.18647  -1.16701
  Beta  occ. eigenvalues --   -1.16684  -1.16663  -1.14560  -1.14520  -1.14477
  Beta  occ. eigenvalues --   -1.13699  -1.13651  -1.13608  -1.13244  -1.13220
  Beta  occ. eigenvalues --   -1.13219  -1.13085  -1.13064  -1.13010  -1.12950
  Beta  occ. eigenvalues --   -1.12950  -1.12866  -1.12323  -1.12306  -1.12280
  Beta  occ. eigenvalues --   -0.16362  -0.12685  -0.11472
  Beta virt. eigenvalues --   -0.07701  -0.07335  -0.04500  -0.04384  -0.03192
  Beta virt. eigenvalues --   -0.02555  -0.02375  -0.01976  -0.01467  -0.01227
  Beta virt. eigenvalues --   -0.00499  -0.00302   0.00078   0.00137   0.00503

 Mulliken charges and spin densities:
               1          2
     1  Na  -0.064120   0.064609
     2  Na   0.154774   0.416107
     3  Na   0.197936   0.018911
     4  Na   0.192588  -0.030197
     5  Na  -0.304687   0.305351
     6  Na  -0.455378  -0.112050
     7  Na   0.278887   0.337269
 Sum of Mulliken charges =  -0.00000   1.00000

 Dipole moment (field-independent basis, Debye):
    X=              2.0248    Y=             -1.3383    Z=              0.6510  Tot=              2.5129
 Quadrupole moment (field-independent basis, Debye-Ang):
   XX=            -67.3124   YY=            -78.1851   ZZ=            -57.6785
   XY=             -2.3663   XZ=              8.5012   YZ=             -0.7324

 Normal termination of Gaussian 16 at Fri Dec  8 19:06:13 2023.
