 Gaussian 16, Revision B.01,
 Gaussian 16:  ES64L-G16RevB.01 20-Dec-2017

 -------------------------
 #P B3LYP/6-311+g(d) force
 -------------------------

 -----
 DPGEN
 -----
 Symbolic Z-matrix:
 Charge =  0 Multiplicity = 2

                         Standard orientation:
 ---------------------------------------------------------------------
 Center     Atomic      Atomic             Coordinates (Angstroms)
 Number     Number       Type             X           Y           Z
 ---------------------------------------------------------------------
      1         11           0        3.619373   -1.808909   -0.249565
      2         11           0        3.527662    1.158535    0.993646
      3         11           0        1.577359    2.828984   -0.227317
      4         11           0       -2.062815    2.991421   -0.663626
      5         11           0       -4.438929    0.426346    0.409874
      6         11           0       -2.309426   -2.732148    0.738723
      7         11           0        0.086778   -2.864228   -1.001735
 ---------------------------------------------------------------------

 SCF Done:  E(UB3LYP) =  -1136.10241194     A.U. after   23 cycles

 The electronic state is 2-A.
 Alpha  occ. eigenvalues --  -38.45131 -38.44968 -38.44580 -38.44453 -38.44431
 Alpha  occ. eigenvalues --  -38.44358 -38.43919  -2.20861  -2.20832  -2.20402
 Alpha  occ. eigenvalues --   -2.20250  -2.20230  -2.20176  -2.19773  -1.14605
 Alpha  occ. eigenvalues --   -1.14555  -1.14540  -1.14498  -1.14475  -1.14471
 Alpha  occ. eigenvalues --   -1.14188  -1.14050  -1.14028  -1.13895  -1.13889
 Alpha  occ. eigenvalues --   -1.13887  -1.13868  -1.13857  -1.13854  -1.13826
 Alpha  occ. eigenvalues --   -1.13815  -1.13801  -1.13444  -1.13395  -1.13388
 Alpha  occ. eigenvalues --   -0.16001  -0.14164  -0.13295  -0.10591
 Alpha virt. eigenvalues --   -0.07812  -0.04706  -0.04302  -0.03810  -0.03663
 Alpha virt. eigenvalues --   -0.02369  -0.02100  -0.01569  -0.01157  -0.00890
 Alpha virt. eigenvalues --   -0.00768  -0.00112   0.00243   0.00398   0.00702

  Beta  occ. eigenvalues --  -38.45142 -38.44963 -38.44552 -38.44407 -38.44387
  Beta  occ. eigenvalues --  -38.44290 -38.43868  -2.20886  -2.20830  -2.20355
  Beta  occ. eigenvalues --   -2.20210  -2.20107  -2.20050  -2.19677  -1.14577
  Beta  occ. eigenvalues --   -1.14574  -1.14561  -1.14482  -1.14477  -1.14455
  Beta  occ. eigenvalues --   -1.14137  -1.14021  -1.13993  -1.13871  -1.13863
  Beta  occ. eigenvalues --   -1.13806  -1.13804  -1.13785  -1.13772  -1.13740
  Beta  occ. eigenvalues --   -1.13732  -1.13716  -1.13387  -1.13328  -1.13325
  Beta  occ. eigenvalues --   -0.15496  -0.13440  -0.12592
  Beta virt. eigenvalues --   -0.07914  -0.07455  -0.04246  -0.03854  -0.03623
  Beta virt. eigenvalues --   -0.03348  -0.02056  -0.01849  -0.01376  -0.00981
  Beta virt. eigenvalues --   -0.00699  -0.00480   0.00074   0.00273   0.00477

 Mulliken charges and spin densities:
               1          2
     1  Na   0.288111   0.312166
     2  Na   0.503727   0.085358
     3  Na  -0.574103   0.169031
     4  Na   0.159859  -0.052261
     5  Na  -0.079817   0.308297
     6  Na   0.208410   0.097152
     7  Na  -0.506186   0.080257
 Sum of Mulliken charges =  -0.00000   1.00000

 Dipole moment (field-independent basis, Debye):
    X=             -0.0290    Y=             -0.3364    Z=              0.0869  Tot=              0.3486
 Quadrupole moment (field-independent basis, Debye-Ang):
   XX=            -64.7552   YY=            -70.4751   ZZ=            -68.0514
   XY=              1.7756   XZ=             -0.9560   YZ=             -1.0327

 Normal termination of Gaussian 16 at Sun Dec  3 23:22:37 2023.
