 Gaussian 16, Revision B.01,
 Gaussian 16:  ES64L-G16RevB.01 20-Dec-2017

 -------------------------
 #P B3LYP/6-311+g(d) force
 -------------------------

 -----
 DPGEN
 -----
 Symbolic Z-matrix:
 Charge =  0 Multiplicity = 2

                         Standard orientation:
 ---------------------------------------------------------------------
 Center     Atomic      Atomic             Coordinates (Angstroms)
 Number     Number       Type             X           Y           Z
 ---------------------------------------------------------------------
      1         11           0       -0.366150    0.478546   -1.603408
      2         11           0        3.100928   -0.615249   -0.214329
      3         11           0        2.155845    2.037199    0.113516
      4         11           0        0.021484   -2.647501   -0.386864
      5         11           0       -2.131807    2.612311    0.236292
      6         11           0        0.075532   -0.685688    1.924642
      7         11           0       -2.855832   -1.179617   -0.069849
 ---------------------------------------------------------------------

 SCF Done:  E(UB3LYP) =  -1136.12942730     A.U. after   20 cycles

 The electronic state is 2-A.
 Alpha  occ. eigenvalues --  -38.44406 -38.44186 -38.44105 -38.43810 -38.43444
 Alpha  occ. eigenvalues --  -38.43092 -38.43090  -2.20263  -2.20073  -2.19978
 Alpha  occ. eigenvalues --   -2.19595  -2.19366  -2.19049  -2.19026  -1.13968
 Alpha  occ. eigenvalues --   -1.13950  -1.13927  -1.13891  -1.13711  -1.13699
 Alpha  occ. eigenvalues --   -1.13618  -1.13605  -1.13531  -1.13274  -1.13251
 Alpha  occ. eigenvalues --   -1.13240  -1.13092  -1.13002  -1.12969  -1.12753
 Alpha  occ. eigenvalues --   -1.12712  -1.12685  -1.12679  -1.12648  -1.12644
 Alpha  occ. eigenvalues --   -0.18753  -0.13491  -0.12280  -0.10512
 Alpha virt. eigenvalues --   -0.05930  -0.05484  -0.04453  -0.03326  -0.02842
 Alpha virt. eigenvalues --   -0.02235  -0.01698  -0.01216  -0.00464  -0.00254
 Alpha virt. eigenvalues --   -0.00005   0.00350   0.00763   0.00828   0.00907

  Beta  occ. eigenvalues --  -38.44399 -38.44182 -38.44101 -38.43809 -38.43359
  Beta  occ. eigenvalues --  -38.43077 -38.43032  -2.20255  -2.20069  -2.19974
  Beta  occ. eigenvalues --   -2.19594  -2.19210  -2.19003  -2.18944  -1.13970
  Beta  occ. eigenvalues --   -1.13942  -1.13897  -1.13891  -1.13700  -1.13682
  Beta  occ. eigenvalues --   -1.13611  -1.13585  -1.13532  -1.13267  -1.13244
  Beta  occ. eigenvalues --   -1.13241  -1.12996  -1.12893  -1.12858  -1.12705
  Beta  occ. eigenvalues --   -1.12653  -1.12637  -1.12623  -1.12605  -1.12576
  Beta  occ. eigenvalues --   -0.18016  -0.13264  -0.12088
  Beta virt. eigenvalues --   -0.06614  -0.05883  -0.05427  -0.04400  -0.02543
  Beta virt. eigenvalues --   -0.02149  -0.01608  -0.01271  -0.01098  -0.00496
  Beta virt. eigenvalues --   -0.00282   0.00157   0.00386   0.00818   0.00849

 Mulliken charges and spin densities:
               1          2
     1  Na  -0.109102   0.398531
     2  Na   0.151914   0.022127
     3  Na   0.025032  -0.076149
     4  Na   0.347105   0.052277
     5  Na  -0.103767  -0.081583
     6  Na  -0.511719   0.730457
     7  Na   0.200536  -0.045660
 Sum of Mulliken charges =  -0.00000   1.00000

 Dipole moment (field-independent basis, Debye):
    X=             -0.2139    Y=              0.0409    Z=              0.1303  Tot=              0.2537
 Quadrupole moment (field-independent basis, Debye-Ang):
   XX=            -54.8342   YY=            -63.6888   ZZ=            -75.2983
   XY=              0.1232   XZ=             -1.1429   YZ=              2.6700

 Normal termination of Gaussian 16 at Thu Dec  7 06:28:48 2023.
