 Gaussian 16, Revision B.01,
 Gaussian 16:  ES64L-G16RevB.01 20-Dec-2017

 -------------------------
 #P B3LYP/6-311+g(d) force
 -------------------------

 -----
 DPGEN
 -----
 Symbolic Z-matrix:
 Charge =  0 Multiplicity = 2

                         Standard orientation:
 ---------------------------------------------------------------------
 Center     Atomic      Atomic             Coordinates (Angstroms)
 Number     Number       Type             X           Y           Z
 ---------------------------------------------------------------------
      1         11           0       -0.213303    0.379248   -1.702325
      2         11           0        0.104250   -0.232817    1.710274
      3         11           0        1.584213   -2.655563   -0.015102
      4         11           0        0.489634    3.023278    0.176977
      5         11           0       -2.388385   -2.025911   -0.163255
      6         11           0        3.055165    0.346685   -0.177842
      7         11           0       -2.631574    1.165079    0.171272
 ---------------------------------------------------------------------

 SCF Done:  E(UB3LYP) =  -1136.13869305     A.U. after   19 cycles

 The electronic state is 2-A.
 Alpha  occ. eigenvalues --  -38.44014 -38.43769 -38.43720 -38.43693 -38.43405
 Alpha  occ. eigenvalues --  -38.43071 -38.42980  -2.19854  -2.19631  -2.19611
 Alpha  occ. eigenvalues --   -2.19527  -2.19250  -2.19044  -2.18945  -1.13529
 Alpha  occ. eigenvalues --   -1.13525  -1.13492  -1.13368  -1.13313  -1.13290
 Alpha  occ. eigenvalues --   -1.13272  -1.13256  -1.13210  -1.13203  -1.13184
 Alpha  occ. eigenvalues --   -1.13161  -1.12936  -1.12914  -1.12888  -1.12736
 Alpha  occ. eigenvalues --   -1.12676  -1.12648  -1.12625  -1.12571  -1.12560
 Alpha  occ. eigenvalues --   -0.18820  -0.13232  -0.12510  -0.10366
 Alpha virt. eigenvalues --   -0.05520  -0.05267  -0.04974  -0.03130  -0.02748
 Alpha virt. eigenvalues --   -0.02127  -0.01481  -0.01260  -0.00508  -0.00374
 Alpha virt. eigenvalues --    0.00031   0.00365   0.00823   0.00874   0.00876

  Beta  occ. eigenvalues --  -38.44009 -38.43765 -38.43710 -38.43690 -38.43400
  Beta  occ. eigenvalues --  -38.42999 -38.42904  -2.19847  -2.19618  -2.19606
  Beta  occ. eigenvalues --   -2.19525  -2.19244  -2.18912  -2.18805  -1.13525
  Beta  occ. eigenvalues --   -1.13500  -1.13490  -1.13364  -1.13303  -1.13259
  Beta  occ. eigenvalues --   -1.13254  -1.13238  -1.13203  -1.13200  -1.13168
  Beta  occ. eigenvalues --   -1.13163  -1.12928  -1.12892  -1.12881  -1.12646
  Beta  occ. eigenvalues --   -1.12582  -1.12553  -1.12529  -1.12468  -1.12460
  Beta  occ. eigenvalues --   -0.18097  -0.12982  -0.12278
  Beta virt. eigenvalues --   -0.06483  -0.05501  -0.05255  -0.04932  -0.02323
  Beta virt. eigenvalues --   -0.02009  -0.01390  -0.01195  -0.01115  -0.00559
  Beta virt. eigenvalues --   -0.00424   0.00167   0.00393   0.00849   0.00871

 Mulliken charges and spin densities:
               1          2
     1  Na  -0.315715   0.675324
     2  Na  -0.253525   0.683469
     3  Na   0.029130  -0.119313
     4  Na   0.108326  -0.075148
     5  Na   0.031282  -0.093622
     6  Na   0.056253  -0.077102
     7  Na   0.344249   0.006392
 Sum of Mulliken charges =  -0.00000   1.00000

 Dipole moment (field-independent basis, Debye):
    X=              0.1255    Y=             -0.0957    Z=             -0.0087  Tot=              0.1580
 Quadrupole moment (field-independent basis, Debye-Ang):
   XX=            -56.7731   YY=            -59.1396   ZZ=            -76.3091
   XY=              0.8342   XZ=             -0.7073   YZ=              1.5185

 Normal termination of Gaussian 16 at Sun Dec  3 14:45:00 2023.
