 Gaussian 16, Revision B.01,
 Gaussian 16:  ES64L-G16RevB.01 20-Dec-2017

 -------------------------
 #P B3LYP/6-311+g(d) force
 -------------------------

 -----
 DPGEN
 -----
 Symbolic Z-matrix:
 Charge =  0 Multiplicity = 2

                         Standard orientation:
 ---------------------------------------------------------------------
 Center     Atomic      Atomic             Coordinates (Angstroms)
 Number     Number       Type             X           Y           Z
 ---------------------------------------------------------------------
      1         11           0       -3.204427    0.493048    0.133932
      2         11           0       -0.573514    3.029368   -0.265036
      3         11           0       -1.639909   -2.533153   -0.367655
      4         11           0        0.075365   -0.325776    2.257038
      5         11           0        0.226609    0.051765   -1.676163
      6         11           0        2.839067    1.430837    0.126186
      7         11           0        2.276809   -2.146089   -0.208302
 ---------------------------------------------------------------------

 SCF Done:  E(UB3LYP) =  -1136.13720269     A.U. after   19 cycles

 The electronic state is 2-A.
 Alpha  occ. eigenvalues --  -38.44126 -38.44064 -38.44023 -38.43829 -38.43599
 Alpha  occ. eigenvalues --  -38.43411 -38.43327  -2.19931  -2.19860  -2.19851
 Alpha  occ. eigenvalues --   -2.19649  -2.19422  -2.19265  -2.19217  -1.13610
 Alpha  occ. eigenvalues --   -1.13598  -1.13565  -1.13534  -1.13522  -1.13507
 Alpha  occ. eigenvalues --   -1.13503  -1.13482  -1.13468  -1.13339  -1.13309
 Alpha  occ. eigenvalues --   -1.13281  -1.13112  -1.13082  -1.13054  -1.12957
 Alpha  occ. eigenvalues --   -1.12931  -1.12893  -1.12882  -1.12861  -1.12846
 Alpha  occ. eigenvalues --   -0.18118  -0.12856  -0.12256  -0.10803
 Alpha virt. eigenvalues --   -0.05643  -0.05465  -0.04740  -0.03220  -0.02892
 Alpha virt. eigenvalues --   -0.02762  -0.01505  -0.01223  -0.00596  -0.00499
 Alpha virt. eigenvalues --   -0.00049   0.00357   0.00754   0.00831   0.00858

  Beta  occ. eigenvalues --  -38.44123 -38.44063 -38.43919 -38.43825 -38.43593
  Beta  occ. eigenvalues --  -38.43409 -38.43267  -2.19929  -2.19861  -2.19659
  Beta  occ. eigenvalues --   -2.19644  -2.19413  -2.19215  -2.19157  -1.13602
  Beta  occ. eigenvalues --   -1.13585  -1.13566  -1.13525  -1.13519  -1.13509
  Beta  occ. eigenvalues --   -1.13376  -1.13350  -1.13332  -1.13325  -1.13291
  Beta  occ. eigenvalues --   -1.13278  -1.13098  -1.13064  -1.13050  -1.12916
  Beta  occ. eigenvalues --   -1.12875  -1.12865  -1.12850  -1.12816  -1.12800
  Beta  occ. eigenvalues --   -0.17400  -0.12687  -0.12040
  Beta virt. eigenvalues --   -0.06861  -0.05584  -0.05462  -0.04655  -0.02462
  Beta virt. eigenvalues --   -0.02151  -0.01706  -0.01409  -0.01144  -0.00645
  Beta virt. eigenvalues --   -0.00552   0.00116   0.00390   0.00822   0.00841

 Mulliken charges and spin densities:
               1          2
     1  Na   0.007692  -0.013011
     2  Na   0.023651  -0.055357
     3  Na   0.137922  -0.045360
     4  Na  -0.533473   0.786725
     5  Na   0.071208   0.398459
     6  Na   0.087043  -0.013660
     7  Na   0.205958  -0.057796
 Sum of Mulliken charges =  -0.00000   1.00000

 Dipole moment (field-independent basis, Debye):
    X=              0.1749    Y=             -0.0690    Z=              0.1668  Tot=              0.2513
 Quadrupole moment (field-independent basis, Debye-Ang):
   XX=            -56.8256   YY=            -62.8073   ZZ=            -74.3435
   XY=             -0.0939   XZ=              0.1705   YZ=              0.9988

 Normal termination of Gaussian 16 at Thu Dec  7 11:27:47 2023.
