 Gaussian 16, Revision B.01,
 Gaussian 16:  ES64L-G16RevB.01 20-Dec-2017

 -------------------------
 #P B3LYP/6-311+g(d) force
 -------------------------

 -----
 DPGEN
 -----
 Symbolic Z-matrix:
 Charge =  0 Multiplicity = 2

                         Standard orientation:
 ---------------------------------------------------------------------
 Center     Atomic      Atomic             Coordinates (Angstroms)
 Number     Number       Type             X           Y           Z
 ---------------------------------------------------------------------
      1         11           0       -1.980325    0.472399    1.320031
      2         11           0        2.022138    0.297070    1.227778
      3         11           0       -3.300848   -1.073557   -1.124381
      4         11           0        0.007448    3.068699   -0.142165
      5         11           0        3.146249   -0.780143   -1.405503
      6         11           0       -0.268220    0.055901   -1.241320
      7         11           0        0.373559   -2.040368    1.365560
 ---------------------------------------------------------------------

 SCF Done:  E(UB3LYP) =  -1136.12172920     A.U. after   21 cycles

 The electronic state is 2-A.
 Alpha  occ. eigenvalues --  -38.44599 -38.44127 -38.43875 -38.43814 -38.43784
 Alpha  occ. eigenvalues --  -38.43257 -38.42139  -2.20447  -2.19976  -2.19816
 Alpha  occ. eigenvalues --   -2.19809  -2.19704  -2.19308  -2.17983  -1.14139
 Alpha  occ. eigenvalues --   -1.14096  -1.14051  -1.13699  -1.13671  -1.13652
 Alpha  occ. eigenvalues --   -1.13593  -1.13542  -1.13470  -1.13467  -1.13406
 Alpha  occ. eigenvalues --   -1.13400  -1.13340  -1.13320  -1.13246  -1.13023
 Alpha  occ. eigenvalues --   -1.12942  -1.12929  -1.11668  -1.11631  -1.11625
 Alpha  occ. eigenvalues --   -0.18940  -0.13707  -0.11621  -0.11337
 Alpha virt. eigenvalues --   -0.05925  -0.05147  -0.04014  -0.03435  -0.02691
 Alpha virt. eigenvalues --   -0.02402  -0.01910  -0.01022  -0.00543   0.00089
 Alpha virt. eigenvalues --    0.00253   0.00368   0.00502   0.00788   0.00856

  Beta  occ. eigenvalues --  -38.44550 -38.44098 -38.43854 -38.43790 -38.43730
  Beta  occ. eigenvalues --  -38.43222 -38.42142  -2.20356  -2.19922  -2.19782
  Beta  occ. eigenvalues --   -2.19771  -2.19610  -2.19246  -2.17989  -1.14083
  Beta  occ. eigenvalues --   -1.14026  -1.13990  -1.13643  -1.13639  -1.13607
  Beta  occ. eigenvalues --   -1.13557  -1.13518  -1.13420  -1.13418  -1.13378
  Beta  occ. eigenvalues --   -1.13372  -1.13287  -1.13226  -1.13198  -1.12962
  Beta  occ. eigenvalues --   -1.12900  -1.12882  -1.11669  -1.11631  -1.11627
  Beta  occ. eigenvalues --   -0.18190  -0.13371  -0.11233
  Beta virt. eigenvalues --   -0.07676  -0.05731  -0.04527  -0.03897  -0.03244
  Beta virt. eigenvalues --   -0.01958  -0.01859  -0.01680  -0.00734  -0.00361
  Beta virt. eigenvalues --    0.00243   0.00319   0.00439   0.00587   0.00842

 Mulliken charges and spin densities:
               1          2
     1  Na   0.339081   0.172440
     2  Na   0.515631   0.148506
     3  Na   0.258368   0.027684
     4  Na   0.052546  -0.008202
     5  Na  -0.023449   0.151290
     6  Na  -0.824971   0.284871
     7  Na  -0.317207   0.223410
 Sum of Mulliken charges =  -0.00000   1.00000

 Dipole moment (field-independent basis, Debye):
    X=              0.0403    Y=             -0.5500    Z=             -0.1643  Tot=              0.5755
 Quadrupole moment (field-independent basis, Debye-Ang):
   XX=            -55.3300   YY=            -71.9054   ZZ=            -65.8252
   XY=              0.6098   XZ=             -1.6020   YZ=              2.0539

 Normal termination of Gaussian 16 at Tue Dec  5 20:53:29 2023.
