 Gaussian 16, Revision B.01,
 Gaussian 16:  ES64L-G16RevB.01 20-Dec-2017

 -------------------------
 #P B3LYP/6-311+g(d) force
 -------------------------

 -----
 DPGEN
 -----
 Symbolic Z-matrix:
 Charge =  0 Multiplicity = 2

                         Standard orientation:
 ---------------------------------------------------------------------
 Center     Atomic      Atomic             Coordinates (Angstroms)
 Number     Number       Type             X           Y           Z
 ---------------------------------------------------------------------
      1         11           0        2.530439   -0.092192    0.008337
      2         11           0        3.115107   -3.100106    0.562215
      3         11           0       -2.892000   -0.271365   -1.116439
      4         11           0        1.794864    3.798125    0.718255
      5         11           0       -4.607274   -0.637796    1.359464
      6         11           0        0.207772   -1.695608   -0.715057
      7         11           0       -0.148908    1.998943   -0.816774
 ---------------------------------------------------------------------

 SCF Done:  E(UB3LYP) =  -1136.12120987     A.U. after   19 cycles

 The electronic state is 2-A.
 Alpha  occ. eigenvalues --  -38.44467 -38.44270 -38.44153 -38.44037 -38.43730
 Alpha  occ. eigenvalues --  -38.43541 -38.43168  -2.20392  -2.20116  -2.20077
 Alpha  occ. eigenvalues --   -2.19872  -2.19556  -2.19435  -2.19046  -1.14219
 Alpha  occ. eigenvalues --   -1.14070  -1.14010  -1.13773  -1.13765  -1.13762
 Alpha  occ. eigenvalues --   -1.13738  -1.13721  -1.13632  -1.13544  -1.13494
 Alpha  occ. eigenvalues --   -1.13492  -1.13286  -1.13202  -1.13186  -1.13117
 Alpha  occ. eigenvalues --   -1.13106  -1.13016  -1.12721  -1.12720  -1.12695
 Alpha  occ. eigenvalues --   -0.17491  -0.13949  -0.13010  -0.10611
 Alpha virt. eigenvalues --   -0.05911  -0.05297  -0.04392  -0.04151  -0.02593
 Alpha virt. eigenvalues --   -0.02133  -0.01695  -0.01619  -0.01254  -0.00701
 Alpha virt. eigenvalues --    0.00033   0.00105   0.00221   0.00520   0.00628

  Beta  occ. eigenvalues --  -38.44462 -38.44247 -38.44114 -38.43943 -38.43702
  Beta  occ. eigenvalues --  -38.43525 -38.43162  -2.20386  -2.20074  -2.20010
  Beta  occ. eigenvalues --   -2.19697  -2.19504  -2.19411  -2.19046  -1.14194
  Beta  occ. eigenvalues --   -1.14064  -1.14002  -1.13740  -1.13733  -1.13723
  Beta  occ. eigenvalues --   -1.13701  -1.13693  -1.13566  -1.13431  -1.13374
  Beta  occ. eigenvalues --   -1.13372  -1.13252  -1.13167  -1.13152  -1.13098
  Beta  occ. eigenvalues --   -1.13094  -1.12971  -1.12730  -1.12718  -1.12630
  Beta  occ. eigenvalues --   -0.16932  -0.13361  -0.12651
  Beta virt. eigenvalues --   -0.07200  -0.05595  -0.04998  -0.04200  -0.03762
  Beta virt. eigenvalues --   -0.02455  -0.01888  -0.01480  -0.01159  -0.01019
  Beta virt. eigenvalues --   -0.00355   0.00230   0.00323   0.00388   0.00638

 Mulliken charges and spin densities:
               1          2
     1  Na  -0.218359   0.228832
     2  Na   1.187393   0.169542
     3  Na  -0.228610  -0.272560
     4  Na   0.810896   0.182350
     5  Na   0.197311   0.519103
     6  Na  -0.999342   0.093042
     7  Na  -0.749289   0.079691
 Sum of Mulliken charges =  -0.00000   1.00000

 Dipole moment (field-independent basis, Debye):
    X=              1.3990    Y=             -0.7195    Z=              0.3998  Tot=              1.6232
 Quadrupole moment (field-independent basis, Debye-Ang):
   XX=            -68.8855   YY=            -60.0435   ZZ=            -68.4275
   XY=             -3.8107   XZ=              1.6485   YZ=             -0.4111

 Normal termination of Gaussian 16 at Wed Nov 29 02:44:27 2023.
