 Gaussian 16, Revision B.01,
 Gaussian 16:  ES64L-G16RevB.01 20-Dec-2017

 -------------------------
 #P B3LYP/6-311+g(d) force
 -------------------------

 -----
 DPGEN
 -----
 Symbolic Z-matrix:
 Charge =  0 Multiplicity = 2

                         Standard orientation:
 ---------------------------------------------------------------------
 Center     Atomic      Atomic             Coordinates (Angstroms)
 Number     Number       Type             X           Y           Z
 ---------------------------------------------------------------------
      1         11           0        3.180556   -0.303535    0.244245
      2         11           0        1.097585   -2.490598    0.032497
      3         11           0        0.053305    0.026591   -1.789841
      4         11           0       -2.926758   -1.390955   -0.491810
      5         11           0       -2.098875    1.875872    0.319445
      6         11           0       -0.630307   -0.276522    1.902198
      7         11           0        1.324495    2.559146   -0.216734
 ---------------------------------------------------------------------

 SCF Done:  E(UB3LYP) =  -1136.13369025     A.U. after   20 cycles

 The electronic state is 2-A.
 Alpha  occ. eigenvalues --  -38.44295 -38.44213 -38.43660 -38.43637 -38.43432
 Alpha  occ. eigenvalues --  -38.43225 -38.42980  -2.20152  -2.20040  -2.19598
 Alpha  occ. eigenvalues --   -2.19538  -2.19394  -2.19129  -2.18838  -1.13854
 Alpha  occ. eigenvalues --   -1.13806  -1.13791  -1.13710  -1.13696  -1.13684
 Alpha  occ. eigenvalues --   -1.13380  -1.13257  -1.13203  -1.13192  -1.13160
 Alpha  occ. eigenvalues --   -1.13134  -1.13079  -1.13048  -1.13009  -1.12806
 Alpha  occ. eigenvalues --   -1.12784  -1.12757  -1.12523  -1.12496  -1.12471
 Alpha  occ. eigenvalues --   -0.18883  -0.13492  -0.12183  -0.10935
 Alpha virt. eigenvalues --   -0.05908  -0.05206  -0.04193  -0.03531  -0.02789
 Alpha virt. eigenvalues --   -0.02597  -0.01737  -0.01000  -0.00215  -0.00120
 Alpha virt. eigenvalues --    0.00003   0.00340   0.00775   0.00891   0.00909

  Beta  occ. eigenvalues --  -38.44294 -38.44200 -38.43623 -38.43581 -38.43355
  Beta  occ. eigenvalues --  -38.43218 -38.42978  -2.20152  -2.20019  -2.19519
  Beta  occ. eigenvalues --   -2.19451  -2.19255  -2.19121  -2.18836  -1.13858
  Beta  occ. eigenvalues --   -1.13800  -1.13782  -1.13691  -1.13675  -1.13664
  Beta  occ. eigenvalues --   -1.13317  -1.13170  -1.13147  -1.13144  -1.13098
  Beta  occ. eigenvalues --   -1.13076  -1.12989  -1.12952  -1.12907  -1.12799
  Beta  occ. eigenvalues --   -1.12760  -1.12741  -1.12515  -1.12487  -1.12467
  Beta  occ. eigenvalues --   -0.18158  -0.13253  -0.11929
  Beta virt. eigenvalues --   -0.07026  -0.05819  -0.05173  -0.04182  -0.02745
  Beta virt. eigenvalues --   -0.02052  -0.01622  -0.01552  -0.00925  -0.00232
  Beta virt. eigenvalues --   -0.00139   0.00117   0.00369   0.00846   0.00900

 Mulliken charges and spin densities:
               1          2
     1  Na  -0.105903  -0.030071
     2  Na   0.272168  -0.030244
     3  Na  -0.357474   0.644745
     4  Na   0.145711  -0.047833
     5  Na   0.208158   0.017598
     6  Na  -0.273245   0.511019
     7  Na   0.110585  -0.065215
 Sum of Mulliken charges =  -0.00000   1.00000

 Dipole moment (field-independent basis, Debye):
    X=             -0.2009    Y=             -0.1776    Z=              0.0436  Tot=              0.2717
 Quadrupole moment (field-independent basis, Debye-Ang):
   XX=            -54.2055   YY=            -66.7555   ZZ=            -73.2945
   XY=              1.1739   XZ=              1.7798   YZ=              0.9601

 Normal termination of Gaussian 16 at Mon Dec  4 03:50:02 2023.
