 Gaussian 16, Revision B.01,
 Gaussian 16:  ES64L-G16RevB.01 20-Dec-2017

 -------------------------
 #P B3LYP/6-311+g(d) force
 -------------------------

 -----
 DPGEN
 -----
 Symbolic Z-matrix:
 Charge =  0 Multiplicity = 2

                         Standard orientation:
 ---------------------------------------------------------------------
 Center     Atomic      Atomic             Coordinates (Angstroms)
 Number     Number       Type             X           Y           Z
 ---------------------------------------------------------------------
      1         11           0       -0.803193    2.218090   -1.040053
      2         11           0        5.106403    0.051857   -0.029387
      3         11           0        2.115997    1.534967    0.524026
      4         11           0        2.888172   -1.853419   -0.187877
      5         11           0       -0.701431   -1.814320   -0.063652
      6         11           0       -2.994134    0.603334    1.213339
      7         11           0       -5.611815   -0.740509   -0.416395
 ---------------------------------------------------------------------

 SCF Done:  E(UB3LYP) =  -1136.11588282     A.U. after   22 cycles

 The electronic state is 2-A.
 Alpha  occ. eigenvalues --  -38.45126 -38.44242 -38.44228 -38.44174 -38.44015
 Alpha  occ. eigenvalues --  -38.43825 -38.43393  -2.20936  -2.20128  -2.20051
 Alpha  occ. eigenvalues --   -2.20012  -2.19894  -2.19594  -2.19206  -1.14616
 Alpha  occ. eigenvalues --   -1.14559  -1.14547  -1.13885  -1.13794  -1.13788
 Alpha  occ. eigenvalues --   -1.13753  -1.13725  -1.13712  -1.13692  -1.13656
 Alpha  occ. eigenvalues --   -1.13629  -1.13524  -1.13518  -1.13490  -1.13257
 Alpha  occ. eigenvalues --   -1.13255  -1.13221  -1.12880  -1.12858  -1.12839
 Alpha  occ. eigenvalues --   -0.17076  -0.14409  -0.11718  -0.11166
 Alpha virt. eigenvalues --   -0.05991  -0.05778  -0.04889  -0.03387  -0.03144
 Alpha virt. eigenvalues --   -0.02442  -0.01872  -0.01552  -0.00882  -0.00625
 Alpha virt. eigenvalues --   -0.00299   0.00024   0.00206   0.00510   0.00647

  Beta  occ. eigenvalues --  -38.45028 -38.44225 -38.44214 -38.44157 -38.43989
  Beta  occ. eigenvalues --  -38.43804 -38.43384  -2.20759  -2.20082  -2.20046
  Beta  occ. eigenvalues --   -2.19982  -2.19845  -2.19555  -2.19189  -1.14499
  Beta  occ. eigenvalues --   -1.14442  -1.14402  -1.13827  -1.13768  -1.13758
  Beta  occ. eigenvalues --   -1.13742  -1.13725  -1.13691  -1.13666  -1.13650
  Beta  occ. eigenvalues --   -1.13600  -1.13490  -1.13479  -1.13453  -1.13230
  Beta  occ. eigenvalues --   -1.13227  -1.13196  -1.12868  -1.12845  -1.12830
  Beta  occ. eigenvalues --   -0.16376  -0.14194  -0.10982
  Beta virt. eigenvalues --   -0.07705  -0.05760  -0.05505  -0.04464  -0.03153
  Beta virt. eigenvalues --   -0.02790  -0.01991  -0.01592  -0.01297  -0.00680
  Beta virt. eigenvalues --   -0.00324  -0.00202   0.00202   0.00371   0.00562

 Mulliken charges and spin densities:
               1          2
     1  Na   0.125134   0.042177
     2  Na   0.520941   0.126316
     3  Na  -0.629985   0.185924
     4  Na  -0.245588  -0.138178
     5  Na  -0.251678   0.551343
     6  Na   0.327830   0.149133
     7  Na   0.153346   0.083286
 Sum of Mulliken charges =  -0.00000   1.00000

 Dipole moment (field-independent basis, Debye):
    X=              0.9108    Y=              0.0749    Z=             -0.3107  Tot=              0.9653
 Quadrupole moment (field-independent basis, Debye-Ang):
   XX=            -63.3721   YY=            -71.2282   ZZ=            -67.0681
   XY=              0.7267   XZ=              3.4592   YZ=              1.8730

 Normal termination of Gaussian 16 at Wed Nov 29 03:07:49 2023.
