 Gaussian 16, Revision B.01,
 Gaussian 16:  ES64L-G16RevB.01 20-Dec-2017

 -------------------------
 #P B3LYP/6-311+g(d) force
 -------------------------

 -----
 DPGEN
 -----
 Symbolic Z-matrix:
 Charge =  0 Multiplicity = 2

                         Standard orientation:
 ---------------------------------------------------------------------
 Center     Atomic      Atomic             Coordinates (Angstroms)
 Number     Number       Type             X           Y           Z
 ---------------------------------------------------------------------
      1         11           0        1.000546    3.429745   -0.106142
      2         11           0        0.804477   -3.231512   -0.404091
      3         11           0        4.382679   -1.372230   -0.159481
      4         11           0        3.932361    1.670559    0.217748
      5         11           0       -2.133051   -2.788855    0.825837
      6         11           0       -4.632675   -0.276313   -0.611292
      7         11           0       -3.354339    2.568606    0.237421
 ---------------------------------------------------------------------

 SCF Done:  E(UB3LYP) =  -1136.10562248     A.U. after   21 cycles

 The electronic state is 2-A.
 Alpha  occ. eigenvalues --  -38.45096 -38.44821 -38.44462 -38.44425 -38.44392
 Alpha  occ. eigenvalues --  -38.44383 -38.44344  -2.20853  -2.20613  -2.20248
 Alpha  occ. eigenvalues --   -2.20207  -2.20199  -2.20193  -2.20135  -1.14531
 Alpha  occ. eigenvalues --   -1.14522  -1.14507  -1.14273  -1.14255  -1.14244
 Alpha  occ. eigenvalues --   -1.13979  -1.13902  -1.13900  -1.13895  -1.13880
 Alpha  occ. eigenvalues --   -1.13874  -1.13866  -1.13849  -1.13841  -1.13837
 Alpha  occ. eigenvalues --   -1.13818  -1.13797  -1.13781  -1.13773  -1.13737
 Alpha  occ. eigenvalues --   -0.15385  -0.14229  -0.13070  -0.11109
 Alpha virt. eigenvalues --   -0.07522  -0.05014  -0.04413  -0.03504  -0.03428
 Alpha virt. eigenvalues --   -0.02788  -0.02241  -0.01911  -0.01151  -0.00683
 Alpha virt. eigenvalues --   -0.00541  -0.00296  -0.00105   0.00286   0.00363

  Beta  occ. eigenvalues --  -38.45093 -38.44791 -38.44419 -38.44392 -38.44371
  Beta  occ. eigenvalues --  -38.44317 -38.44310  -2.20852  -2.20559  -2.20208
  Beta  occ. eigenvalues --   -2.20186  -2.20088  -2.20078  -2.20069  -1.14529
  Beta  occ. eigenvalues --   -1.14522  -1.14489  -1.14237  -1.14222  -1.14201
  Beta  occ. eigenvalues --   -1.13926  -1.13885  -1.13880  -1.13863  -1.13863
  Beta  occ. eigenvalues --   -1.13835  -1.13779  -1.13771  -1.13767  -1.13752
  Beta  occ. eigenvalues --   -1.13752  -1.13750  -1.13733  -1.13700  -1.13698
  Beta  occ. eigenvalues --   -0.14843  -0.13559  -0.12283
  Beta virt. eigenvalues --   -0.07942  -0.07657  -0.04640  -0.03835  -0.03264
  Beta virt. eigenvalues --   -0.03152  -0.02574  -0.02070  -0.01772  -0.00984
  Beta virt. eigenvalues --   -0.00359  -0.00179  -0.00069   0.00076   0.00316

 Mulliken charges and spin densities:
               1          2
     1  Na  -0.028961   0.459526
     2  Na  -0.133125   0.043167
     3  Na   0.266568   0.321690
     4  Na   0.043321  -0.021566
     5  Na  -0.179327   0.065207
     6  Na   0.063595   0.123378
     7  Na  -0.032070   0.008599
 Sum of Mulliken charges =  -0.00000   1.00000

 Dipole moment (field-independent basis, Debye):
    X=             -0.9076    Y=             -0.0864    Z=             -0.0761  Tot=              0.9149
 Quadrupole moment (field-independent basis, Debye-Ang):
   XX=            -60.8844   YY=            -67.7345   ZZ=            -72.2482
   XY=             -0.6075   XZ=             -0.2650   YZ=              2.1076

 Normal termination of Gaussian 16 at Sun Dec  3 13:25:41 2023.
