 Gaussian 16, Revision B.01,
 Gaussian 16:  ES64L-G16RevB.01 20-Dec-2017

 -------------------------
 #P B3LYP/6-311+g(d) force
 -------------------------

 -----
 DPGEN
 -----
 Symbolic Z-matrix:
 Charge =  0 Multiplicity = 2

                         Standard orientation:
 ---------------------------------------------------------------------
 Center     Atomic      Atomic             Coordinates (Angstroms)
 Number     Number       Type             X           Y           Z
 ---------------------------------------------------------------------
      1         11           0       -0.086950    0.570917    1.832923
      2         11           0        1.612909    3.365776   -0.195689
      3         11           0        0.209058   -0.291015   -1.721646
      4         11           0        3.059698   -0.260410   -0.115763
      5         11           0       -2.270629   -1.642914   -0.258364
      6         11           0        1.294988   -2.914720    0.460235
      7         11           0       -3.819074    1.172366   -0.001696
 ---------------------------------------------------------------------

 SCF Done:  E(UB3LYP) =  -1136.12402259     A.U. after   21 cycles

 The electronic state is 2-A.
 Alpha  occ. eigenvalues --  -38.45171 -38.44583 -38.43822 -38.43776 -38.43763
 Alpha  occ. eigenvalues --  -38.43659 -38.43389  -2.20933  -2.20436  -2.19653
 Alpha  occ. eigenvalues --   -2.19639  -2.19574  -2.19523  -2.19232  -1.14608
 Alpha  occ. eigenvalues --   -1.14594  -1.14572  -1.14138  -1.14107  -1.14048
 Alpha  occ. eigenvalues --   -1.13395  -1.13347  -1.13298  -1.13280  -1.13266
 Alpha  occ. eigenvalues --   -1.13260  -1.13238  -1.13206  -1.13199  -1.13191
 Alpha  occ. eigenvalues --   -1.13169  -1.13155  -1.12911  -1.12881  -1.12872
 Alpha  occ. eigenvalues --   -0.18027  -0.13331  -0.11851  -0.10249
 Alpha virt. eigenvalues --   -0.06763  -0.05462  -0.04537  -0.03236  -0.02696
 Alpha virt. eigenvalues --   -0.02263  -0.02130  -0.01422  -0.00949  -0.00384
 Alpha virt. eigenvalues --   -0.00088   0.00260   0.00538   0.00664   0.00730

  Beta  occ. eigenvalues --  -38.45179 -38.44573 -38.43781 -38.43750 -38.43747
  Beta  occ. eigenvalues --  -38.43586 -38.43376  -2.20948  -2.20421  -2.19619
  Beta  occ. eigenvalues --   -2.19534  -2.19514  -2.19441  -2.19211  -1.14621
  Beta  occ. eigenvalues --   -1.14597  -1.14581  -1.14125  -1.14071  -1.14043
  Beta  occ. eigenvalues --   -1.13359  -1.13264  -1.13251  -1.13247  -1.13206
  Beta  occ. eigenvalues --   -1.13193  -1.13177  -1.13173  -1.13157  -1.13150
  Beta  occ. eigenvalues --   -1.13115  -1.13077  -1.12899  -1.12862  -1.12840
  Beta  occ. eigenvalues --   -0.17289  -0.13165  -0.11687
  Beta virt. eigenvalues --   -0.06679  -0.06403  -0.05337  -0.04502  -0.02546
  Beta virt. eigenvalues --   -0.02166  -0.02014  -0.01452  -0.01123  -0.00941
  Beta virt. eigenvalues --   -0.00392   0.00091   0.00295   0.00649   0.00726

 Mulliken charges and spin densities:
               1          2
     1  Na  -0.352518   0.561986
     2  Na  -0.179768  -0.113580
     3  Na   0.188085   0.416211
     4  Na   0.236023   0.019004
     5  Na   0.237252   0.129795
     6  Na  -0.084229   0.095026
     7  Na  -0.044844  -0.108442
 Sum of Mulliken charges =  -0.00000   1.00000

 Dipole moment (field-independent basis, Debye):
    X=             -0.5526    Y=              0.3233    Z=              0.0228  Tot=              0.6406
 Quadrupole moment (field-independent basis, Debye-Ang):
   XX=            -53.4790   YY=            -61.5194   ZZ=            -77.2365
   XY=             -4.0258   XZ=              0.1552   YZ=             -1.8915

 Normal termination of Gaussian 16 at Fri Dec  8 05:03:41 2023.
