 Gaussian 16, Revision B.01,
 Gaussian 16:  ES64L-G16RevB.01 20-Dec-2017

 -------------------------
 #P B3LYP/6-311+g(d) force
 -------------------------

 -----
 DPGEN
 -----
 Symbolic Z-matrix:
 Charge =  0 Multiplicity = 2

                         Standard orientation:
 ---------------------------------------------------------------------
 Center     Atomic      Atomic             Coordinates (Angstroms)
 Number     Number       Type             X           Y           Z
 ---------------------------------------------------------------------
      1         11           0        0.038935    1.475719   -0.896654
      2         11           0       -1.744443    3.242190    0.580634
      3         11           0       -3.487124    0.632687   -0.298874
      4         11           0       -0.507529   -1.389071    0.923053
      5         11           0        2.870707   -1.452862   -0.255240
      6         11           0       -3.057761   -2.911065   -0.169740
      7         11           0        5.887215    0.402401    0.116821
 ---------------------------------------------------------------------

 SCF Done:  E(UB3LYP) =  -1136.11972801     A.U. after   19 cycles

 The electronic state is 2-A.
 Alpha  occ. eigenvalues --  -38.44622 -38.44405 -38.44257 -38.44210 -38.43675
 Alpha  occ. eigenvalues --  -38.43618 -38.43517  -2.20510  -2.20260  -2.20091
 Alpha  occ. eigenvalues --   -2.20047  -2.19562  -2.19438  -2.19291  -1.14254
 Alpha  occ. eigenvalues --   -1.14181  -1.14135  -1.13960  -1.13933  -1.13870
 Alpha  occ. eigenvalues --   -1.13738  -1.13723  -1.13699  -1.13684  -1.13683
 Alpha  occ. eigenvalues --   -1.13655  -1.13261  -1.13246  -1.13203  -1.13095
 Alpha  occ. eigenvalues --   -1.13081  -1.13054  -1.12987  -1.12963  -1.12936
 Alpha  occ. eigenvalues --   -0.17400  -0.13531  -0.12667  -0.10848
 Alpha virt. eigenvalues --   -0.05790  -0.05709  -0.05053  -0.03595  -0.02491
 Alpha virt. eigenvalues --   -0.02320  -0.02148  -0.01395  -0.01062  -0.00622
 Alpha virt. eigenvalues --   -0.00383  -0.00227   0.00435   0.00524   0.00574

  Beta  occ. eigenvalues --  -38.44599 -38.44367 -38.44206 -38.44144 -38.43643
  Beta  occ. eigenvalues --  -38.43613 -38.43526  -2.20468  -2.20191  -2.20085
  Beta  occ. eigenvalues --   -2.19837  -2.19505  -2.19429  -2.19316  -1.14231
  Beta  occ. eigenvalues --   -1.14153  -1.14099  -1.13914  -1.13887  -1.13822
  Beta  occ. eigenvalues --   -1.13724  -1.13719  -1.13687  -1.13541  -1.13539
  Beta  occ. eigenvalues --   -1.13517  -1.13232  -1.13208  -1.13160  -1.13089
  Beta  occ. eigenvalues --   -1.13063  -1.13038  -1.13010  -1.12986  -1.12902
  Beta  occ. eigenvalues --   -0.16958  -0.12849  -0.12341
  Beta virt. eigenvalues --   -0.07366  -0.05603  -0.05403  -0.04710  -0.03181
  Beta virt. eigenvalues --   -0.02286  -0.02034  -0.01906  -0.01261  -0.00729
  Beta virt. eigenvalues --   -0.00207  -0.00090  -0.00038   0.00513   0.00612

 Mulliken charges and spin densities:
               1          2
     1  Na  -0.198320   0.053084
     2  Na   0.243202  -0.001388
     3  Na   0.039358   0.313990
     4  Na  -0.429383   0.002159
     5  Na  -0.112501   0.071157
     6  Na   0.342243   0.040743
     7  Na   0.115401   0.520255
 Sum of Mulliken charges =  -0.00000   1.00000

 Dipole moment (field-independent basis, Debye):
    X=             -1.4275    Y=              0.9290    Z=              0.0076  Tot=              1.7032
 Quadrupole moment (field-independent basis, Debye-Ang):
   XX=            -71.6411   YY=            -62.0144   ZZ=            -68.3623
   XY=              1.5394   XZ=              0.5413   YZ=              2.7970

 Normal termination of Gaussian 16 at Tue Nov 28 20:42:05 2023.
