 Gaussian 16, Revision B.01,
 Gaussian 16:  ES64L-G16RevB.01 20-Dec-2017

 -------------------------
 #P B3LYP/6-311+g(d) force
 -------------------------

 -----
 DPGEN
 -----
 Symbolic Z-matrix:
 Charge =  0 Multiplicity = 2

                         Standard orientation:
 ---------------------------------------------------------------------
 Center     Atomic      Atomic             Coordinates (Angstroms)
 Number     Number       Type             X           Y           Z
 ---------------------------------------------------------------------
      1         11           0       -2.805853   -1.050539    1.936355
      2         11           0       -2.618848   -1.644570   -1.876333
      3         11           0        1.046264   -1.907841    0.009421
      4         11           0       -1.374615    1.815270   -1.775361
      5         11           0       -0.862072    1.604029    1.966976
      6         11           0        1.875889    2.441179   -0.349902
      7         11           0        4.739235   -1.257529    0.088844
 ---------------------------------------------------------------------

 SCF Done:  E(UB3LYP) =  -1136.11556288     A.U. after   20 cycles

 The electronic state is 2-A.
 Alpha  occ. eigenvalues --  -38.44686 -38.44640 -38.44514 -38.44502 -38.44414
 Alpha  occ. eigenvalues --  -38.44162 -38.44041  -2.20489  -2.20438  -2.20340
 Alpha  occ. eigenvalues --   -2.20284  -2.20139  -2.19925  -2.19764  -1.14186
 Alpha  occ. eigenvalues --   -1.14147  -1.14121  -1.14097  -1.14095  -1.14044
 Alpha  occ. eigenvalues --   -1.14014  -1.13999  -1.13946  -1.13938  -1.13937
 Alpha  occ. eigenvalues --   -1.13901  -1.13846  -1.13830  -1.13727  -1.13617
 Alpha  occ. eigenvalues --   -1.13594  -1.13534  -1.13444  -1.13434  -1.13394
 Alpha  occ. eigenvalues --   -0.16982  -0.12568  -0.12225  -0.11618
 Alpha virt. eigenvalues --   -0.06334  -0.05575  -0.04971  -0.03396  -0.03293
 Alpha virt. eigenvalues --   -0.02698  -0.02220  -0.01334  -0.00896  -0.00497
 Alpha virt. eigenvalues --   -0.00332   0.00040   0.00187   0.00265   0.00521

  Beta  occ. eigenvalues --  -38.44632 -38.44586 -38.44458 -38.44448 -38.44409
  Beta  occ. eigenvalues --  -38.44161 -38.44052  -2.20393  -2.20340  -2.20239
  Beta  occ. eigenvalues --   -2.20186  -2.20129  -2.19923  -2.19785  -1.14104
  Beta  occ. eigenvalues --   -1.14083  -1.14052  -1.14034  -1.14027  -1.13964
  Beta  occ. eigenvalues --   -1.13947  -1.13935  -1.13876  -1.13863  -1.13845
  Beta  occ. eigenvalues --   -1.13838  -1.13832  -1.13824  -1.13726  -1.13611
  Beta  occ. eigenvalues --   -1.13594  -1.13535  -1.13459  -1.13449  -1.13408
  Beta  occ. eigenvalues --   -0.16175  -0.12353  -0.11602
  Beta virt. eigenvalues --   -0.08137  -0.06133  -0.05440  -0.04327  -0.03173
  Beta virt. eigenvalues --   -0.02590  -0.02290  -0.02056  -0.01261  -0.00483
  Beta virt. eigenvalues --   -0.00418  -0.00084   0.00067   0.00253   0.00430

 Mulliken charges and spin densities:
               1          2
     1  Na   0.398988   0.037039
     2  Na   0.248087   0.392412
     3  Na  -0.725483   0.057478
     4  Na  -0.106075   0.163877
     5  Na  -0.134918   0.382583
     6  Na   0.175650   0.055852
     7  Na   0.143751  -0.089240
 Sum of Mulliken charges =  -0.00000   1.00000

 Dipole moment (field-independent basis, Debye):
    X=             -0.7765    Y=              0.5149    Z=             -0.0074  Tot=              0.9318
 Quadrupole moment (field-independent basis, Debye-Ang):
   XX=            -59.1684   YY=            -71.8808   ZZ=            -66.8481
   XY=              5.3788   XZ=              0.4413   YZ=             -0.1968

 Normal termination of Gaussian 16 at Mon Dec  4 04:00:00 2023.
