 Gaussian 16, Revision B.01,
 Gaussian 16:  ES64L-G16RevB.01 20-Dec-2017

 -------------------------
 #P B3LYP/6-311+g(d) force
 -------------------------

 -----
 DPGEN
 -----
 Symbolic Z-matrix:
 Charge =  0 Multiplicity = 2

                         Standard orientation:
 ---------------------------------------------------------------------
 Center     Atomic      Atomic             Coordinates (Angstroms)
 Number     Number       Type             X           Y           Z
 ---------------------------------------------------------------------
      1         11           0        1.457085    2.101310    0.129816
      2         11           0       -1.892799    2.326321    0.090167
      3         11           0        0.169432   -0.063023   -1.804229
      4         11           0       -0.277133   -0.427989    1.825346
      5         11           0        0.183607   -2.531229    0.033010
      6         11           0       -3.098312   -1.000284   -0.264613
      7         11           0        3.458119   -0.405105   -0.009497
 ---------------------------------------------------------------------

 SCF Done:  E(UB3LYP) =  -1136.12974683     A.U. after   20 cycles

 The electronic state is 2-A.
 Alpha  occ. eigenvalues --  -38.44718 -38.44569 -38.43504 -38.43492 -38.43205
 Alpha  occ. eigenvalues --  -38.43167 -38.43022  -2.20523  -2.20386  -2.19481
 Alpha  occ. eigenvalues --   -2.19475  -2.19154  -2.19014  -2.18946  -1.14208
 Alpha  occ. eigenvalues --   -1.14184  -1.14151  -1.14060  -1.14042  -1.14023
 Alpha  occ. eigenvalues --   -1.13340  -1.13194  -1.13156  -1.13108  -1.13066
 Alpha  occ. eigenvalues --   -1.13059  -1.12808  -1.12785  -1.12706  -1.12699
 Alpha  occ. eigenvalues --   -1.12678  -1.12666  -1.12632  -1.12606  -1.12555
 Alpha  occ. eigenvalues --   -0.19010  -0.13284  -0.12259  -0.10765
 Alpha virt. eigenvalues --   -0.06358  -0.04880  -0.04114  -0.03260  -0.02767
 Alpha virt. eigenvalues --   -0.02449  -0.02179  -0.01002  -0.00176  -0.00054
 Alpha virt. eigenvalues --    0.00010   0.00305   0.00791   0.00844   0.00888

  Beta  occ. eigenvalues --  -38.44720 -38.44564 -38.43425 -38.43407 -38.43190
  Beta  occ. eigenvalues --  -38.43165 -38.43013  -2.20528  -2.20378  -2.19333
  Beta  occ. eigenvalues --   -2.19327  -2.19133  -2.19013  -2.18934  -1.14214
  Beta  occ. eigenvalues --   -1.14171  -1.14156  -1.14042  -1.14030  -1.14022
  Beta  occ. eigenvalues --   -1.13254  -1.13099  -1.13053  -1.13000  -1.12961
  Beta  occ. eigenvalues --   -1.12951  -1.12778  -1.12718  -1.12698  -1.12698
  Beta  occ. eigenvalues --   -1.12669  -1.12654  -1.12623  -1.12569  -1.12551
  Beta  occ. eigenvalues --   -0.18261  -0.13079  -0.11977
  Beta virt. eigenvalues --   -0.06825  -0.06303  -0.04896  -0.04096  -0.02508
  Beta virt. eigenvalues --   -0.02075  -0.01946  -0.01384  -0.00967  -0.00218
  Beta virt. eigenvalues --   -0.00027   0.00093   0.00329   0.00824   0.00878

 Mulliken charges and spin densities:
               1          2
     1  Na   0.124757  -0.036734
     2  Na  -0.010777  -0.080115
     3  Na  -0.480686   0.730340
     4  Na  -0.456268   0.681374
     5  Na   0.440132  -0.162315
     6  Na   0.215079  -0.052340
     7  Na   0.167762  -0.080210
 Sum of Mulliken charges =  -0.00000   1.00000

 Dipole moment (field-independent basis, Debye):
    X=              0.0175    Y=             -0.2772    Z=             -0.0828  Tot=              0.2898
 Quadrupole moment (field-independent basis, Debye-Ang):
   XX=            -49.5544   YY=            -68.4357   ZZ=            -74.2785
   XY=             -0.5272   XZ=              1.0007   YZ=              0.9388

 Normal termination of Gaussian 16 at Tue Dec  5 17:47:51 2023.
