 Gaussian 16, Revision B.01,
 Gaussian 16:  ES64L-G16RevB.01 20-Dec-2017

 -------------------------
 #P B3LYP/6-311+g(d) force
 -------------------------

 -----
 DPGEN
 -----
 Symbolic Z-matrix:
 Charge =  0 Multiplicity = 2

                         Standard orientation:
 ---------------------------------------------------------------------
 Center     Atomic      Atomic             Coordinates (Angstroms)
 Number     Number       Type             X           Y           Z
 ---------------------------------------------------------------------
      1         11           0        2.153638    1.366384    0.910327
      2         11           0       -1.067606    0.476882    1.662514
      3         11           0       -2.041264   -2.465076    0.399900
      4         11           0        3.734117   -1.448394   -0.458712
      5         11           0       -3.328431    0.311830   -0.843047
      6         11           0       -0.110491    2.828787   -0.831208
      7         11           0        0.660037   -1.070412   -0.839775
 ---------------------------------------------------------------------

 SCF Done:  E(UB3LYP) =  -1136.12686842     A.U. after   21 cycles

 The electronic state is 2-A.
 Alpha  occ. eigenvalues --  -38.44424 -38.43933 -38.43776 -38.43731 -38.43704
 Alpha  occ. eigenvalues --  -38.43437 -38.43395  -2.20268  -2.19808  -2.19640
 Alpha  occ. eigenvalues --   -2.19639  -2.19605  -2.19353  -2.19271  -1.13943
 Alpha  occ. eigenvalues --   -1.13913  -1.13895  -1.13506  -1.13463  -1.13441
 Alpha  occ. eigenvalues --   -1.13385  -1.13363  -1.13329  -1.13315  -1.13294
 Alpha  occ. eigenvalues --   -1.13266  -1.13246  -1.13221  -1.13179  -1.13046
 Alpha  occ. eigenvalues --   -1.13011  -1.12950  -1.12945  -1.12915  -1.12902
 Alpha  occ. eigenvalues --   -0.18473  -0.13934  -0.12160  -0.10265
 Alpha virt. eigenvalues --   -0.06517  -0.05446  -0.04569  -0.03360  -0.02655
 Alpha virt. eigenvalues --   -0.02367  -0.01655  -0.01222  -0.00749  -0.00241
 Alpha virt. eigenvalues --   -0.00117   0.00176   0.00461   0.00677   0.00764

  Beta  occ. eigenvalues --  -38.44374 -38.43919 -38.43761 -38.43715 -38.43694
  Beta  occ. eigenvalues --  -38.43427 -38.43333  -2.20174  -2.19786  -2.19623
  Beta  occ. eigenvalues --   -2.19614  -2.19579  -2.19254  -2.19242  -1.13877
  Beta  occ. eigenvalues --   -1.13852  -1.13823  -1.13493  -1.13438  -1.13415
  Beta  occ. eigenvalues --   -1.13369  -1.13348  -1.13306  -1.13277  -1.13274
  Beta  occ. eigenvalues --   -1.13249  -1.13226  -1.13201  -1.13168  -1.12973
  Beta  occ. eigenvalues --   -1.12935  -1.12923  -1.12902  -1.12886  -1.12850
  Beta  occ. eigenvalues --   -0.17862  -0.13682  -0.11880
  Beta virt. eigenvalues --   -0.06643  -0.06262  -0.05360  -0.04199  -0.02895
  Beta virt. eigenvalues --   -0.02180  -0.02123  -0.01252  -0.00929  -0.00522
  Beta virt. eigenvalues --   -0.00050   0.00038   0.00255   0.00563   0.00736

 Mulliken charges and spin densities:
               1          2
     1  Na   0.453599   0.043714
     2  Na  -0.119405   0.220144
     3  Na   0.731098   0.011073
     4  Na   0.401743  -0.019682
     5  Na   0.080037   0.395769
     6  Na  -0.236298   0.148368
     7  Na  -1.310775   0.200614
 Sum of Mulliken charges =  -0.00000   1.00000

 Dipole moment (field-independent basis, Debye):
    X=             -0.1079    Y=             -0.1696    Z=              0.3699  Tot=              0.4209
 Quadrupole moment (field-independent basis, Debye-Ang):
   XX=            -55.7167   YY=            -66.6604   ZZ=            -72.4782
   XY=              3.2736   XZ=              0.8759   YZ=             -0.6739

 Normal termination of Gaussian 16 at Tue Dec  5 13:45:56 2023.
