 Gaussian 16, Revision B.01,
 Gaussian 16:  ES64L-G16RevB.01 20-Dec-2017

 -------------------------
 #P B3LYP/6-311+g(d) force
 -------------------------

 -----
 DPGEN
 -----
 Symbolic Z-matrix:
 Charge =  0 Multiplicity = 2

                         Standard orientation:
 ---------------------------------------------------------------------
 Center     Atomic      Atomic             Coordinates (Angstroms)
 Number     Number       Type             X           Y           Z
 ---------------------------------------------------------------------
      1         11           0       -3.272355    1.270745   -0.502190
      2         11           0        3.196330   -1.591401   -0.215884
      3         11           0       -3.018571   -1.687837    0.109068
      4         11           0        0.090603   -0.791885    1.999866
      5         11           0        2.885870    1.688644   -0.046082
      6         11           0       -0.212237    1.877299    0.420246
      7         11           0        0.330361   -0.765565   -1.765023
 ---------------------------------------------------------------------

 SCF Done:  E(UB3LYP) =  -1136.11520651     A.U. after   27 cycles

 The electronic state is 2-A.
 Alpha  occ. eigenvalues --  -38.44982 -38.44778 -38.44543 -38.44529 -38.44230
 Alpha  occ. eigenvalues --  -38.43985 -38.42221  -2.20811  -2.20636  -2.20388
 Alpha  occ. eigenvalues --   -2.20353  -2.20055  -2.19873  -2.18178  -1.14511
 Alpha  occ. eigenvalues --   -1.14464  -1.14427  -1.14356  -1.14284  -1.14276
 Alpha  occ. eigenvalues --   -1.14070  -1.14049  -1.14036  -1.14008  -1.14005
 Alpha  occ. eigenvalues --   -1.13985  -1.13721  -1.13713  -1.13697  -1.13565
 Alpha  occ. eigenvalues --   -1.13481  -1.13471  -1.11874  -1.11844  -1.11814
 Alpha  occ. eigenvalues --   -0.18536  -0.14325  -0.11092  -0.10978
 Alpha virt. eigenvalues --   -0.07167  -0.06032  -0.03891  -0.03134  -0.02849
 Alpha virt. eigenvalues --   -0.02670  -0.02369  -0.01582  -0.00593  -0.00317
 Alpha virt. eigenvalues --    0.00075   0.00193   0.00457   0.00533   0.00600

  Beta  occ. eigenvalues --  -38.44950 -38.44755 -38.44540 -38.44525 -38.44229
  Beta  occ. eigenvalues --  -38.43868 -38.42206  -2.20752  -2.20594  -2.20385
  Beta  occ. eigenvalues --   -2.20349  -2.20056  -2.19659  -2.18155  -1.14469
  Beta  occ. eigenvalues --   -1.14419  -1.14382  -1.14332  -1.14256  -1.14239
  Beta  occ. eigenvalues --   -1.14072  -1.14046  -1.14020  -1.14008  -1.13987
  Beta  occ. eigenvalues --   -1.13974  -1.13724  -1.13704  -1.13691  -1.13419
  Beta  occ. eigenvalues --   -1.13333  -1.13321  -1.11858  -1.11809  -1.11785
  Beta  occ. eigenvalues --   -0.17837  -0.14048  -0.10902
  Beta virt. eigenvalues --   -0.07168  -0.06932  -0.05964  -0.03248  -0.03015
  Beta virt. eigenvalues --   -0.02636  -0.01958  -0.01719  -0.01322  -0.00586
  Beta virt. eigenvalues --   -0.00092   0.00150   0.00189   0.00590   0.00632

 Mulliken charges and spin densities:
               1          2
     1  Na   0.273224   0.013042
     2  Na   0.530041   0.117764
     3  Na   0.241823   0.109932
     4  Na  -0.387617   0.385436
     5  Na  -0.050028  -0.077321
     6  Na  -0.057768   0.261329
     7  Na  -0.549676   0.189818
 Sum of Mulliken charges =  -0.00000   1.00000

 Dipole moment (field-independent basis, Debye):
    X=              0.0913    Y=             -0.3360    Z=             -0.1435  Tot=              0.3766
 Quadrupole moment (field-independent basis, Debye-Ang):
   XX=            -48.4068   YY=            -75.1011   ZZ=            -72.1793
   XY=              0.9059   XZ=              1.5896   YZ=             -2.2626

 Normal termination of Gaussian 16 at Thu Dec  7 04:05:28 2023.
