 Gaussian 16, Revision B.01,
 Gaussian 16:  ES64L-G16RevB.01 20-Dec-2017

 -------------------------
 #P B3LYP/6-311+g(d) force
 -------------------------

 -----
 DPGEN
 -----
 Symbolic Z-matrix:
 Charge =  0 Multiplicity = 2

                         Standard orientation:
 ---------------------------------------------------------------------
 Center     Atomic      Atomic             Coordinates (Angstroms)
 Number     Number       Type             X           Y           Z
 ---------------------------------------------------------------------
      1         11           0        0.167806    2.742499   -0.271451
      2         11           0       -2.981859    1.509740    0.139474
      3         11           0        1.750837   -2.093154   -0.241351
      4         11           0       -0.201520   -0.210727   -1.470869
      5         11           0       -1.886341   -2.489068   -0.252667
      6         11           0        3.088072    0.970105   -0.006984
      7         11           0        0.063005   -0.429396    2.103848
 ---------------------------------------------------------------------

 SCF Done:  E(UB3LYP) =  -1136.13357732     A.U. after   19 cycles

 The electronic state is 2-A.
 Alpha  occ. eigenvalues --  -38.44131 -38.43877 -38.43768 -38.43644 -38.43603
 Alpha  occ. eigenvalues --  -38.43325 -38.43061  -2.19923  -2.19721  -2.19600
 Alpha  occ. eigenvalues --   -2.19571  -2.19487  -2.19193  -2.19110  -1.13593
 Alpha  occ. eigenvalues --   -1.13582  -1.13568  -1.13445  -1.13373  -1.13352
 Alpha  occ. eigenvalues --   -1.13335  -1.13279  -1.13264  -1.13257  -1.13243
 Alpha  occ. eigenvalues --   -1.13149  -1.13144  -1.13105  -1.13095  -1.12928
 Alpha  occ. eigenvalues --   -1.12852  -1.12808  -1.12775  -1.12725  -1.12720
 Alpha  occ. eigenvalues --   -0.18745  -0.12828  -0.12707  -0.10663
 Alpha virt. eigenvalues --   -0.05635  -0.05421  -0.04546  -0.02978  -0.02875
 Alpha virt. eigenvalues --   -0.02534  -0.01580  -0.01353  -0.00303  -0.00257
 Alpha virt. eigenvalues --   -0.00006   0.00327   0.00772   0.00831   0.00914

  Beta  occ. eigenvalues --  -38.44132 -38.43869 -38.43767 -38.43631 -38.43502
  Beta  occ. eigenvalues --  -38.43319 -38.43002  -2.19926  -2.19712  -2.19602
  Beta  occ. eigenvalues --   -2.19553  -2.19300  -2.19184  -2.19005  -1.13587
  Beta  occ. eigenvalues --   -1.13582  -1.13571  -1.13430  -1.13351  -1.13341
  Beta  occ. eigenvalues --   -1.13325  -1.13279  -1.13257  -1.13240  -1.13194
  Beta  occ. eigenvalues --   -1.13143  -1.13025  -1.12978  -1.12962  -1.12910
  Beta  occ. eigenvalues --   -1.12830  -1.12807  -1.12705  -1.12650  -1.12644
  Beta  occ. eigenvalues --   -0.18018  -0.12634  -0.12455
  Beta virt. eigenvalues --   -0.06697  -0.05614  -0.05381  -0.04516  -0.02249
  Beta virt. eigenvalues --   -0.02119  -0.01503  -0.01418  -0.01288  -0.00358
  Beta virt. eigenvalues --   -0.00277   0.00149   0.00361   0.00813   0.00839

 Mulliken charges and spin densities:
               1          2
     1  Na   0.197335  -0.015081
     2  Na   0.010664  -0.028476
     3  Na   0.593553   0.053447
     4  Na  -0.448126   0.252944
     5  Na   0.296311  -0.041085
     6  Na   0.037417  -0.005248
     7  Na  -0.687154   0.783500
 Sum of Mulliken charges =  -0.00000   1.00000

 Dipole moment (field-independent basis, Debye):
    X=             -0.3077    Y=             -0.1068    Z=              0.2721  Tot=              0.4244
 Quadrupole moment (field-independent basis, Debye-Ang):
   XX=            -54.9680   YY=            -62.5669   ZZ=            -75.2135
   XY=              1.0195   XZ=             -0.6793   YZ=              0.5760

 Normal termination of Gaussian 16 at Tue Dec  5 10:55:02 2023.
