 Gaussian 16, Revision B.01,
 Gaussian 16:  ES64L-G16RevB.01 20-Dec-2017

 -------------------------
 #P B3LYP/6-311+g(d) force
 -------------------------

 -----
 DPGEN
 -----
 Symbolic Z-matrix:
 Charge =  0 Multiplicity = 2

                         Standard orientation:
 ---------------------------------------------------------------------
 Center     Atomic      Atomic             Coordinates (Angstroms)
 Number     Number       Type             X           Y           Z
 ---------------------------------------------------------------------
      1         11           0        0.519622   -1.418294    0.194894
      2         11           0       -3.012368   -0.248049    2.166268
      3         11           0        4.304690   -1.064128   -0.055981
      4         11           0        6.469924    1.239054    0.032818
      5         11           0       -1.145527    1.659286   -0.460499
      6         11           0       -4.360936    1.268490   -0.450724
      7         11           0       -2.775406   -1.436359   -1.426776
 ---------------------------------------------------------------------

 SCF Done:  E(UB3LYP) =  -1136.10307251     A.U. after   27 cycles

 The electronic state is 2-A.
 Alpha  occ. eigenvalues --  -38.47410 -38.45939 -38.44506 -38.43462 -38.43460
 Alpha  occ. eigenvalues --  -38.43440 -38.42501  -2.23228  -2.21789  -2.20371
 Alpha  occ. eigenvalues --   -2.19348  -2.19252  -2.19238  -2.18314  -1.16911
 Alpha  occ. eigenvalues --   -1.16884  -1.16855  -1.15469  -1.15436  -1.15396
 Alpha  occ. eigenvalues --   -1.14038  -1.13998  -1.13972  -1.13032  -1.13016
 Alpha  occ. eigenvalues --   -1.12981  -1.12979  -1.12926  -1.12915  -1.12895
 Alpha  occ. eigenvalues --   -1.12893  -1.12814  -1.12001  -1.11978  -1.11962
 Alpha  occ. eigenvalues --   -0.18269  -0.13212  -0.11218  -0.11082
 Alpha virt. eigenvalues --   -0.08317  -0.06136  -0.03353  -0.03277  -0.02924
 Alpha virt. eigenvalues --   -0.02794  -0.02377  -0.02022  -0.01521  -0.01069
 Alpha virt. eigenvalues --   -0.00895  -0.00014   0.00031   0.00350   0.00489

  Beta  occ. eigenvalues --  -38.47403 -38.45882 -38.44397 -38.43469 -38.43458
  Beta  occ. eigenvalues --  -38.43424 -38.42503  -2.23219  -2.21687  -2.20168
  Beta  occ. eigenvalues --   -2.19324  -2.19254  -2.19246  -2.18319  -1.16886
  Beta  occ. eigenvalues --   -1.16867  -1.16853  -1.15388  -1.15367  -1.15315
  Beta  occ. eigenvalues --   -1.13899  -1.13866  -1.13824  -1.13022  -1.13005
  Beta  occ. eigenvalues --   -1.12983  -1.12925  -1.12917  -1.12916  -1.12902
  Beta  occ. eigenvalues --   -1.12898  -1.12819  -1.12006  -1.11970  -1.11964
  Beta  occ. eigenvalues --   -0.17476  -0.13207  -0.11058
  Beta virt. eigenvalues --   -0.08058  -0.06935  -0.06101  -0.03260  -0.02943
  Beta virt. eigenvalues --   -0.02724  -0.02428  -0.01575  -0.01385  -0.01103
  Beta virt. eigenvalues --   -0.01022  -0.00845   0.00007   0.00235   0.00413

 Mulliken charges and spin densities:
               1          2
     1  Na  -0.373540  -0.010865
     2  Na  -0.107561   0.490854
     3  Na  -0.444700   0.007710
     4  Na  -0.118536  -0.036554
     5  Na  -0.123284   0.050825
     6  Na   0.746885   0.268534
     7  Na   0.420736   0.229496
 Sum of Mulliken charges =  -0.00000   1.00000

 Dipole moment (field-independent basis, Debye):
    X=             -2.4203    Y=              0.7477    Z=             -0.5772  Tot=              2.5981
 Quadrupole moment (field-independent basis, Debye-Ang):
   XX=            -75.7108   YY=            -58.1318   ZZ=            -76.4211
   XY=              9.8015   XZ=              2.2930   YZ=             -0.4715

 Normal termination of Gaussian 16 at Thu Dec  7 19:18:01 2023.
