 Gaussian 16, Revision B.01,
 Gaussian 16:  ES64L-G16RevB.01 20-Dec-2017

 -------------------------
 #P B3LYP/6-311+g(d) force
 -------------------------

 -----
 DPGEN
 -----
 Symbolic Z-matrix:
 Charge =  0 Multiplicity = 2

                         Standard orientation:
 ---------------------------------------------------------------------
 Center     Atomic      Atomic             Coordinates (Angstroms)
 Number     Number       Type             X           Y           Z
 ---------------------------------------------------------------------
      1         11           0       -1.668132   -2.163115    0.086193
      2         11           0        1.868374   -2.058035    0.057112
      3         11           0       -0.114608   -0.103188   -1.757455
      4         11           0       -3.158324    0.462258   -0.039469
      5         11           0        0.035871    0.301789    1.893270
      6         11           0        3.351220    0.762076   -0.117922
      7         11           0       -0.314400    2.798215   -0.121729
 ---------------------------------------------------------------------

 SCF Done:  E(UB3LYP) =  -1136.13272933     A.U. after   19 cycles

 The electronic state is 2-A.
 Alpha  occ. eigenvalues --  -38.44841 -38.44565 -38.43374 -38.43360 -38.43259
 Alpha  occ. eigenvalues --  -38.43008 -38.42974  -2.20638  -2.20431  -2.19338
 Alpha  occ. eigenvalues --   -2.19310  -2.19156  -2.18945  -2.18831  -1.14318
 Alpha  occ. eigenvalues --   -1.14303  -1.14267  -1.14139  -1.14088  -1.14053
 Alpha  occ. eigenvalues --   -1.13052  -1.12997  -1.12978  -1.12965  -1.12959
 Alpha  occ. eigenvalues --   -1.12922  -1.12825  -1.12813  -1.12794  -1.12625
 Alpha  occ. eigenvalues --   -1.12591  -1.12580  -1.12515  -1.12504  -1.12444
 Alpha  occ. eigenvalues --   -0.18984  -0.13494  -0.12101  -0.10758
 Alpha virt. eigenvalues --   -0.06427  -0.04809  -0.04193  -0.03373  -0.02726
 Alpha virt. eigenvalues --   -0.02453  -0.02077  -0.00956  -0.00305  -0.00074
 Alpha virt. eigenvalues --   -0.00037   0.00341   0.00805   0.00827   0.00889

  Beta  occ. eigenvalues --  -38.44842 -38.44560 -38.43289 -38.43285 -38.43252
  Beta  occ. eigenvalues --  -38.42999 -38.42968  -2.20641  -2.20427  -2.19201
  Beta  occ. eigenvalues --   -2.19153  -2.19147  -2.18934  -2.18824  -1.14324
  Beta  occ. eigenvalues --   -1.14289  -1.14271  -1.14140  -1.14060  -1.14051
  Beta  occ. eigenvalues --   -1.12965  -1.12899  -1.12883  -1.12872  -1.12849
  Beta  occ. eigenvalues --   -1.12817  -1.12798  -1.12792  -1.12770  -1.12619
  Beta  occ. eigenvalues --   -1.12581  -1.12539  -1.12511  -1.12469  -1.12443
  Beta  occ. eigenvalues --   -0.18225  -0.13276  -0.11834
  Beta virt. eigenvalues --   -0.06821  -0.06381  -0.04825  -0.04183  -0.02581
  Beta virt. eigenvalues --   -0.01984  -0.01915  -0.01394  -0.00911  -0.00343
  Beta virt. eigenvalues --   -0.00121   0.00111   0.00358   0.00836   0.00892

 Mulliken charges and spin densities:
               1          2
     1  Na   0.301334   0.040120
     2  Na   0.236399  -0.002434
     3  Na  -0.414873   0.625554
     4  Na   0.295447  -0.027362
     5  Na  -0.492304   0.673058
     6  Na   0.039954  -0.116978
     7  Na   0.034043  -0.191957
 Sum of Mulliken charges =  -0.00000   1.00000

 Dipole moment (field-independent basis, Debye):
    X=              0.2664    Y=              0.3363    Z=              0.0284  Tot=              0.4300
 Quadrupole moment (field-independent basis, Debye-Ang):
   XX=            -50.9995   YY=            -67.4723   ZZ=            -74.3786
   XY=              0.6357   XZ=             -0.3872   YZ=             -1.0228

 Normal termination of Gaussian 16 at Thu Dec  7 19:03:30 2023.
