 Gaussian 16, Revision B.01,
 Gaussian 16:  ES64L-G16RevB.01 20-Dec-2017

 -------------------------
 #P B3LYP/6-311+g(d) force
 -------------------------

 -----
 DPGEN
 -----
 Symbolic Z-matrix:
 Charge =  0 Multiplicity = 2

                         Standard orientation:
 ---------------------------------------------------------------------
 Center     Atomic      Atomic             Coordinates (Angstroms)
 Number     Number       Type             X           Y           Z
 ---------------------------------------------------------------------
      1         11           0       -2.585667   -1.734774    0.273028
      2         11           0       -1.041916    0.545979   -1.383257
      3         11           0        2.256805    2.232548   -0.433148
      4         11           0        3.457237   -0.683037    0.095372
      5         11           0       -2.561730    2.395042    0.245668
      6         11           0        0.150665   -2.508325   -0.871405
      7         11           0        0.324607   -0.247433    2.073742
 ---------------------------------------------------------------------

 SCF Done:  E(UB3LYP) =  -1136.12380758     A.U. after   21 cycles

 The electronic state is 2-A.
 Alpha  occ. eigenvalues --  -38.44523 -38.44501 -38.44373 -38.43931 -38.43804
 Alpha  occ. eigenvalues --  -38.43158 -38.43131  -2.20329  -2.20294  -2.20252
 Alpha  occ. eigenvalues --   -2.19755  -2.19650  -2.19145  -2.19025  -1.14051
 Alpha  occ. eigenvalues --   -1.13993  -1.13976  -1.13960  -1.13955  -1.13941
 Alpha  occ. eigenvalues --   -1.13903  -1.13895  -1.13891  -1.13527  -1.13388
 Alpha  occ. eigenvalues --   -1.13380  -1.13316  -1.13280  -1.13264  -1.12821
 Alpha  occ. eigenvalues --   -1.12803  -1.12769  -1.12687  -1.12675  -1.12650
 Alpha  occ. eigenvalues --   -0.18216  -0.13505  -0.12057  -0.10507
 Alpha virt. eigenvalues --   -0.06033  -0.05940  -0.04285  -0.03452  -0.02756
 Alpha virt. eigenvalues --   -0.02374  -0.01759  -0.01456  -0.00671  -0.00304
 Alpha virt. eigenvalues --   -0.00022   0.00308   0.00652   0.00712   0.00809

  Beta  occ. eigenvalues --  -38.44523 -38.44492 -38.44369 -38.43932 -38.43706
  Beta  occ. eigenvalues --  -38.43119 -38.43108  -2.20331  -2.20280  -2.20247
  Beta  occ. eigenvalues --   -2.19759  -2.19470  -2.19075  -2.18985  -1.14051
  Beta  occ. eigenvalues --   -1.13982  -1.13975  -1.13950  -1.13939  -1.13931
  Beta  occ. eigenvalues --   -1.13899  -1.13891  -1.13865  -1.13525  -1.13387
  Beta  occ. eigenvalues --   -1.13377  -1.13195  -1.13156  -1.13134  -1.12777
  Beta  occ. eigenvalues --   -1.12745  -1.12718  -1.12658  -1.12643  -1.12604
  Beta  occ. eigenvalues --   -0.17515  -0.13335  -0.11870
  Beta virt. eigenvalues --   -0.06638  -0.05973  -0.05785  -0.04217  -0.02750
  Beta virt. eigenvalues --   -0.02142  -0.01686  -0.01417  -0.01321  -0.00652
  Beta virt. eigenvalues --   -0.00268   0.00131   0.00359   0.00703   0.00798

 Mulliken charges and spin densities:
               1          2
     1  Na   0.229462   0.135240
     2  Na   0.260347   0.047502
     3  Na  -0.108560  -0.028689
     4  Na   0.170176   0.032562
     5  Na  -0.063604   0.027310
     6  Na  -0.085334   0.092376
     7  Na  -0.402488   0.693699
 Sum of Mulliken charges =  -0.00000   1.00000

 Dipole moment (field-independent basis, Debye):
    X=              0.2947    Y=             -0.0045    Z=              0.3324  Tot=              0.4443
 Quadrupole moment (field-independent basis, Debye-Ang):
   XX=            -53.7536   YY=            -65.1026   ZZ=            -75.4356
   XY=             -0.0223   XZ=             -2.9817   YZ=              1.0168

 Normal termination of Gaussian 16 at Fri Dec  8 07:02:48 2023.
