 Gaussian 16, Revision B.01,
 Gaussian 16:  ES64L-G16RevB.01 20-Dec-2017

 -------------------------
 #P B3LYP/6-311+g(d) force
 -------------------------

 -----
 DPGEN
 -----
 Symbolic Z-matrix:
 Charge =  0 Multiplicity = 2

                         Standard orientation:
 ---------------------------------------------------------------------
 Center     Atomic      Atomic             Coordinates (Angstroms)
 Number     Number       Type             X           Y           Z
 ---------------------------------------------------------------------
      1         11           0       -0.277334    0.237870    1.341188
      2         11           0        2.156995    2.093099   -0.389754
      3         11           0        0.792372   -2.241683   -0.654145
      4         11           0       -3.563828    0.388033   -0.313642
      5         11           0       -1.953270   -2.780560    0.085522
      6         11           0        4.299992   -0.585558    0.118095
      7         11           0       -1.454927    2.888799   -0.187264
 ---------------------------------------------------------------------

 SCF Done:  E(UB3LYP) =  -1136.12419400     A.U. after   20 cycles

 The electronic state is 2-A.
 Alpha  occ. eigenvalues --  -38.44534 -38.44326 -38.44317 -38.44142 -38.43813
 Alpha  occ. eigenvalues --  -38.43427 -38.43228  -2.20436  -2.20193  -2.20134
 Alpha  occ. eigenvalues --   -2.20019  -2.19664  -2.19241  -2.19090  -1.14143
 Alpha  occ. eigenvalues --   -1.14090  -1.14063  -1.13984  -1.13850  -1.13844
 Alpha  occ. eigenvalues --   -1.13830  -1.13806  -1.13758  -1.13667  -1.13645
 Alpha  occ. eigenvalues --   -1.13605  -1.13344  -1.13340  -1.13300  -1.12890
 Alpha  occ. eigenvalues --   -1.12888  -1.12853  -1.12746  -1.12723  -1.12720
 Alpha  occ. eigenvalues --   -0.17754  -0.13712  -0.13220  -0.09917
 Alpha virt. eigenvalues --   -0.06321  -0.06024  -0.04748  -0.03146  -0.02668
 Alpha virt. eigenvalues --   -0.02487  -0.02063  -0.01308  -0.00925  -0.00698
 Alpha virt. eigenvalues --   -0.00016   0.00104   0.00516   0.00595   0.00708

  Beta  occ. eigenvalues --  -38.44506 -38.44319 -38.44308 -38.44138 -38.43807
  Beta  occ. eigenvalues --  -38.43348 -38.43154  -2.20385  -2.20179  -2.20127
  Beta  occ. eigenvalues --   -2.20016  -2.19659  -2.19093  -2.18952  -1.14107
  Beta  occ. eigenvalues --   -1.14065  -1.14020  -1.13962  -1.13841  -1.13835
  Beta  occ. eigenvalues --   -1.13830  -1.13804  -1.13715  -1.13667  -1.13643
  Beta  occ. eigenvalues --   -1.13580  -1.13347  -1.13340  -1.13257  -1.12789
  Beta  occ. eigenvalues --   -1.12785  -1.12758  -1.12651  -1.12634  -1.12624
  Beta  occ. eigenvalues --   -0.17352  -0.13057  -0.12770
  Beta virt. eigenvalues --   -0.06517  -0.06194  -0.05917  -0.04517  -0.02474
  Beta virt. eigenvalues --   -0.02384  -0.02220  -0.01665  -0.01095  -0.00860
  Beta virt. eigenvalues --   -0.00520   0.00279   0.00328   0.00586   0.00781

 Mulliken charges and spin densities:
               1          2
     1  Na  -0.019699  -0.088695
     2  Na  -0.140300   0.031414
     3  Na  -0.455178  -0.039730
     4  Na  -0.171577   0.484716
     5  Na   0.468252   0.067022
     6  Na   0.240977   0.511047
     7  Na   0.077524   0.034226
 Sum of Mulliken charges =  -0.00000   1.00000

 Dipole moment (field-independent basis, Debye):
    X=             -0.2618    Y=             -0.0261    Z=              0.0441  Tot=              0.2668
 Quadrupole moment (field-independent basis, Debye-Ang):
   XX=            -77.6029   YY=            -60.7862   ZZ=            -67.5551
   XY=              3.5827   XZ=             -0.4559   YZ=             -1.6921

 Normal termination of Gaussian 16 at Wed Nov 29 03:11:48 2023.
