 Gaussian 16, Revision B.01,
 Gaussian 16:  ES64L-G16RevB.01 20-Dec-2017

 -------------------------
 #P B3LYP/6-311+g(d) force
 -------------------------

 -----
 DPGEN
 -----
 Symbolic Z-matrix:
 Charge =  0 Multiplicity = 2

                         Standard orientation:
 ---------------------------------------------------------------------
 Center     Atomic      Atomic             Coordinates (Angstroms)
 Number     Number       Type             X           Y           Z
 ---------------------------------------------------------------------
      1         11           0       -1.098054   -1.523836    0.384169
      2         11           0       -3.309696    0.023734   -0.123393
      3         11           0       -0.981727    1.644845   -0.166054
      4         11           0        2.153697    1.459302   -0.402093
      5         11           0        2.091402   -1.467979    0.286719
      6         11           0        0.545610   -0.541761   -1.963963
      7         11           0        0.598769    0.405694    1.984615
 ---------------------------------------------------------------------

 SCF Done:  E(UB3LYP) =  -1136.09531873     A.U. after   23 cycles

 The electronic state is 2-A.
 Alpha  occ. eigenvalues --  -38.45189 -38.44274 -38.44180 -38.43530 -38.43524
 Alpha  occ. eigenvalues --  -38.43087 -38.42827  -2.21134  -2.20385  -2.20266
 Alpha  occ. eigenvalues --   -2.19614  -2.19577  -2.19227  -2.18945  -1.14908
 Alpha  occ. eigenvalues --   -1.14828  -1.14715  -1.14127  -1.14058  -1.14018
 Alpha  occ. eigenvalues --   -1.13995  -1.13921  -1.13894  -1.13364  -1.13276
 Alpha  occ. eigenvalues --   -1.13253  -1.13233  -1.13199  -1.13115  -1.12920
 Alpha  occ. eigenvalues --   -1.12881  -1.12829  -1.12634  -1.12592  -1.12558
 Alpha  occ. eigenvalues --   -0.20980  -0.14353  -0.12558  -0.11584
 Alpha virt. eigenvalues --   -0.06268  -0.04368  -0.03963  -0.03625  -0.02802
 Alpha virt. eigenvalues --   -0.02701  -0.01718  -0.00521  -0.00210   0.00235
 Alpha virt. eigenvalues --    0.00527   0.00617   0.00804   0.00968   0.01061

  Beta  occ. eigenvalues --  -38.45194 -38.44184 -38.44099 -38.43510 -38.43502
  Beta  occ. eigenvalues --  -38.43063 -38.42808  -2.21144  -2.20222  -2.20120
  Beta  occ. eigenvalues --   -2.19584  -2.19543  -2.19190  -2.18917  -1.14915
  Beta  occ. eigenvalues --   -1.14835  -1.14712  -1.14029  -1.13943  -1.13929
  Beta  occ. eigenvalues --   -1.13870  -1.13816  -1.13777  -1.13348  -1.13238
  Beta  occ. eigenvalues --   -1.13218  -1.13178  -1.13143  -1.13100  -1.12901
  Beta  occ. eigenvalues --   -1.12830  -1.12784  -1.12620  -1.12546  -1.12523
  Beta  occ. eigenvalues --   -0.20096  -0.14100  -0.11373
  Beta virt. eigenvalues --   -0.08207  -0.06141  -0.04236  -0.03266  -0.03163
  Beta virt. eigenvalues --   -0.02215  -0.01801  -0.01641  -0.00406  -0.00056
  Beta virt. eigenvalues --    0.00275   0.00552   0.00632   0.00979   0.01033

 Mulliken charges and spin densities:
               1          2
     1  Na  -0.245609   0.082861
     2  Na  -0.093243  -0.116157
     3  Na  -0.219948   0.116927
     4  Na   0.082141   0.056763
     5  Na   0.329477  -0.053167
     6  Na  -0.017786   0.493816
     7  Na   0.164967   0.418957
 Sum of Mulliken charges =  -0.00000   1.00000

 Dipole moment (field-independent basis, Debye):
    X=             -0.4033    Y=              0.0527    Z=             -0.1243  Tot=              0.4253
 Quadrupole moment (field-independent basis, Debye-Ang):
   XX=            -53.0303   YY=            -77.0123   ZZ=            -66.0256
   XY=              0.0424   XZ=              0.4753   YZ=             -2.9630

 Normal termination of Gaussian 16 at Sat Dec  9 07:16:26 2023.
