 Gaussian 16, Revision B.01,
 Gaussian 16:  ES64L-G16RevB.01 20-Dec-2017

 -------------------------
 #P B3LYP/6-311+g(d) force
 -------------------------

 -----
 DPGEN
 -----
 Symbolic Z-matrix:
 Charge =  0 Multiplicity = 2

                         Standard orientation:
 ---------------------------------------------------------------------
 Center     Atomic      Atomic             Coordinates (Angstroms)
 Number     Number       Type             X           Y           Z
 ---------------------------------------------------------------------
      1         11           0        0.329439   -0.290476   -1.535583
      2         11           0       -1.535448    1.509555    1.341181
      3         11           0       -3.204561   -0.185074   -0.927516
      4         11           0        3.229379   -1.439004   -0.570037
      5         11           0        0.915217    2.502619   -0.976315
      6         11           0        1.704599    0.368863    1.961667
      7         11           0       -1.438625   -2.466482    0.706603
 ---------------------------------------------------------------------

 SCF Done:  E(UB3LYP) =  -1136.12708451     A.U. after   19 cycles

 The electronic state is 2-A.
 Alpha  occ. eigenvalues --  -38.44311 -38.44075 -38.44051 -38.43913 -38.43493
 Alpha  occ. eigenvalues --  -38.43397 -38.43388  -2.20158  -2.19904  -2.19876
 Alpha  occ. eigenvalues --   -2.19718  -2.19388  -2.19360  -2.19272  -1.13836
 Alpha  occ. eigenvalues --   -1.13820  -1.13795  -1.13584  -1.13547  -1.13545
 Alpha  occ. eigenvalues --   -1.13542  -1.13524  -1.13500  -1.13406  -1.13365
 Alpha  occ. eigenvalues --   -1.13357  -1.13272  -1.13040  -1.13004  -1.12979
 Alpha  occ. eigenvalues --   -1.12960  -1.12956  -1.12930  -1.12924  -1.12882
 Alpha  occ. eigenvalues --   -0.18356  -0.13326  -0.11553  -0.11439
 Alpha virt. eigenvalues --   -0.06046  -0.04866  -0.04603  -0.03265  -0.03087
 Alpha virt. eigenvalues --   -0.02814  -0.01716  -0.00836  -0.00743   0.00101
 Alpha virt. eigenvalues --    0.00189   0.00299   0.00414   0.00689   0.00806

  Beta  occ. eigenvalues --  -38.44305 -38.44068 -38.43985 -38.43911 -38.43463
  Beta  occ. eigenvalues --  -38.43370 -38.43326  -2.20147  -2.19864  -2.19782
  Beta  occ. eigenvalues --   -2.19716  -2.19324  -2.19264  -2.19224  -1.13827
  Beta  occ. eigenvalues --   -1.13807  -1.13786  -1.13540  -1.13522  -1.13496
  Beta  occ. eigenvalues --   -1.13493  -1.13464  -1.13441  -1.13394  -1.13360
  Beta  occ. eigenvalues --   -1.13352  -1.13207  -1.12966  -1.12958  -1.12927
  Beta  occ. eigenvalues --   -1.12913  -1.12898  -1.12886  -1.12858  -1.12851
  Beta  occ. eigenvalues --   -0.17619  -0.13144  -0.11365
  Beta virt. eigenvalues --   -0.07467  -0.05956  -0.04682  -0.04162  -0.03016
  Beta virt. eigenvalues --   -0.02401  -0.01913  -0.01635  -0.00768  -0.00374
  Beta virt. eigenvalues --    0.00152   0.00237   0.00348   0.00498   0.00814

 Mulliken charges and spin densities:
               1          2
     1  Na   0.171052   0.181894
     2  Na  -0.027948   0.320642
     3  Na   0.530554  -0.095097
     4  Na   0.071276   0.029311
     5  Na  -0.201748   0.072479
     6  Na  -0.109395   0.372842
     7  Na  -0.433791   0.117928
 Sum of Mulliken charges =  -0.00000   1.00000

 Dipole moment (field-independent basis, Debye):
    X=             -0.2578    Y=             -0.1290    Z=              0.1585  Tot=              0.3290
 Quadrupole moment (field-independent basis, Debye-Ang):
   XX=            -56.3933   YY=            -69.9943   ZZ=            -68.0927
   XY=             -0.6400   XZ=              1.1295   YZ=             -2.1444

 Normal termination of Gaussian 16 at Wed Nov 29 17:15:34 2023.
