 Gaussian 16, Revision B.01,
 Gaussian 16:  ES64L-G16RevB.01 20-Dec-2017

 -------------------------
 #P B3LYP/6-311+g(d) force
 -------------------------

 -----
 DPGEN
 -----
 Symbolic Z-matrix:
 Charge =  0 Multiplicity = 2

                         Standard orientation:
 ---------------------------------------------------------------------
 Center     Atomic      Atomic             Coordinates (Angstroms)
 Number     Number       Type             X           Y           Z
 ---------------------------------------------------------------------
      1         11           0       -2.080203    2.519486    0.361509
      2         11           0        0.076383    0.356513   -1.223013
      3         11           0       -3.583205   -0.614464   -1.204293
      4         11           0        2.363571   -1.868461   -0.705037
      5         11           0        0.916002    0.102883    1.928292
      6         11           0        3.822101    1.233496   -0.429767
      7         11           0       -1.514649   -1.729453    1.272309
 ---------------------------------------------------------------------

 SCF Done:  E(UB3LYP) =  -1136.11789734     A.U. after   27 cycles

 The electronic state is 2-A.
 Alpha  occ. eigenvalues --  -38.44675 -38.44622 -38.44597 -38.44260 -38.43662
 Alpha  occ. eigenvalues --  -38.43630 -38.42778  -2.20447  -2.20440  -2.20431
 Alpha  occ. eigenvalues --   -2.20178  -2.19592  -2.19423  -2.18656  -1.14174
 Alpha  occ. eigenvalues --   -1.14129  -1.14125  -1.14102  -1.14102  -1.14082
 Alpha  occ. eigenvalues --   -1.14074  -1.14037  -1.14022  -1.13918  -1.13835
 Alpha  occ. eigenvalues --   -1.13776  -1.13290  -1.13228  -1.13192  -1.13095
 Alpha  occ. eigenvalues --   -1.13080  -1.13049  -1.12351  -1.12311  -1.12276
 Alpha  occ. eigenvalues --   -0.18205  -0.14010  -0.11120  -0.10795
 Alpha virt. eigenvalues --   -0.06902  -0.05481  -0.04532  -0.02871  -0.02835
 Alpha virt. eigenvalues --   -0.02560  -0.02312  -0.01265  -0.00883  -0.00489
 Alpha virt. eigenvalues --    0.00054   0.00158   0.00336   0.00498   0.00685

  Beta  occ. eigenvalues --  -38.44704 -38.44574 -38.44568 -38.44239 -38.43602
  Beta  occ. eigenvalues --  -38.43587 -38.42753  -2.20496  -2.20403  -2.20330
  Beta  occ. eigenvalues --   -2.20144  -2.19455  -2.19372  -2.18615  -1.14163
  Beta  occ. eigenvalues --   -1.14150  -1.14143  -1.14124  -1.14058  -1.14031
  Beta  occ. eigenvalues --   -1.14010  -1.14002  -1.13969  -1.13865  -1.13809
  Beta  occ. eigenvalues --   -1.13756  -1.13202  -1.13125  -1.13089  -1.13058
  Beta  occ. eigenvalues --   -1.13040  -1.13010  -1.12307  -1.12265  -1.12254
  Beta  occ. eigenvalues --   -0.17554  -0.13668  -0.10548
  Beta virt. eigenvalues --   -0.07430  -0.06666  -0.05262  -0.04117  -0.02701
  Beta virt. eigenvalues --   -0.02538  -0.01905  -0.01690  -0.01106  -0.00595
  Beta virt. eigenvalues --   -0.00368   0.00127   0.00182   0.00418   0.00586

 Mulliken charges and spin densities:
               1          2
     1  Na  -0.146480   0.008036
     2  Na  -0.774649   0.410382
     3  Na   0.416041   0.140787
     4  Na   0.347830   0.039275
     5  Na   0.142978   0.549333
     6  Na   0.174802  -0.195256
     7  Na  -0.160522   0.047444
 Sum of Mulliken charges =  -0.00000   1.00000

 Dipole moment (field-independent basis, Debye):
    X=              0.7190    Y=             -0.2990    Z=             -0.0829  Tot=              0.7831
 Quadrupole moment (field-independent basis, Debye-Ang):
   XX=            -52.6409   YY=            -71.4343   ZZ=            -70.7399
   XY=              1.1124   XZ=              0.9528   YZ=              5.9484

 Normal termination of Gaussian 16 at Tue Dec  5 20:45:12 2023.
