 Gaussian 16, Revision B.01,
 Gaussian 16:  ES64L-G16RevB.01 20-Dec-2017

 -------------------------
 #P B3LYP/6-311+g(d) force
 -------------------------

 -----
 DPGEN
 -----
 Symbolic Z-matrix:
 Charge =  0 Multiplicity = 2

                         Standard orientation:
 ---------------------------------------------------------------------
 Center     Atomic      Atomic             Coordinates (Angstroms)
 Number     Number       Type             X           Y           Z
 ---------------------------------------------------------------------
      1         11           0        0.455684    1.764788   -0.469502
      2         11           0        0.490584   -1.145104    1.811643
      3         11           0        2.345721   -1.644146   -0.927418
      4         11           0       -2.622767   -0.377842    1.526555
      5         11           0        3.914202    1.480629    0.365693
      6         11           0       -3.531579    1.312465   -0.663973
      7         11           0       -1.051845   -1.390790   -1.642997
 ---------------------------------------------------------------------

 SCF Done:  E(UB3LYP) =  -1136.12060321     A.U. after   24 cycles

 The electronic state is 2-A.
 Alpha  occ. eigenvalues --  -38.44689 -38.44357 -38.44301 -38.44290 -38.43742
 Alpha  occ. eigenvalues --  -38.43735 -38.43673  -2.20480  -2.20281  -2.20141
 Alpha  occ. eigenvalues --   -2.20138  -2.19600  -2.19561  -2.19518  -1.14194
 Alpha  occ. eigenvalues --   -1.14168  -1.14089  -1.14068  -1.13943  -1.13910
 Alpha  occ. eigenvalues --   -1.13833  -1.13809  -1.13773  -1.13766  -1.13750
 Alpha  occ. eigenvalues --   -1.13727  -1.13294  -1.13256  -1.13244  -1.13200
 Alpha  occ. eigenvalues --   -1.13198  -1.13192  -1.13183  -1.13164  -1.13150
 Alpha  occ. eigenvalues --   -0.18321  -0.14044  -0.11521  -0.11086
 Alpha virt. eigenvalues --   -0.06925  -0.05441  -0.04632  -0.03315  -0.02690
 Alpha virt. eigenvalues --   -0.02559  -0.02335  -0.01398  -0.00818  -0.00196
 Alpha virt. eigenvalues --    0.00052   0.00207   0.00300   0.00418   0.00701

  Beta  occ. eigenvalues --  -38.44679 -38.44310 -38.44288 -38.44282 -38.43744
  Beta  occ. eigenvalues --  -38.43676 -38.43614  -2.20463  -2.20198  -2.20124
  Beta  occ. eigenvalues --   -2.20119  -2.19522  -2.19492  -2.19455  -1.14173
  Beta  occ. eigenvalues --   -1.14151  -1.14057  -1.14038  -1.13883  -1.13858
  Beta  occ. eigenvalues --   -1.13811  -1.13792  -1.13759  -1.13743  -1.13733
  Beta  occ. eigenvalues --   -1.13696  -1.13217  -1.13194  -1.13186  -1.13182
  Beta  occ. eigenvalues --   -1.13167  -1.13153  -1.13120  -1.13112  -1.13092
  Beta  occ. eigenvalues --   -0.17613  -0.13915  -0.10915
  Beta virt. eigenvalues --   -0.07444  -0.06784  -0.05334  -0.03990  -0.02952
  Beta virt. eigenvalues --   -0.02609  -0.02020  -0.01686  -0.01286  -0.00386
  Beta virt. eigenvalues --   -0.00114   0.00075   0.00229   0.00436   0.00560

 Mulliken charges and spin densities:
               1          2
     1  Na  -0.956376   0.080635
     2  Na  -0.079089   0.320385
     3  Na   0.341644   0.060812
     4  Na  -0.146579   0.009745
     5  Na   0.502176  -0.081931
     6  Na   0.578281   0.223354
     7  Na  -0.240057   0.387000
 Sum of Mulliken charges =  -0.00000   1.00000

 Dipole moment (field-independent basis, Debye):
    X=             -0.1268    Y=             -0.4736    Z=             -0.2639  Tot=              0.5568
 Quadrupole moment (field-independent basis, Debye-Ang):
   XX=            -52.8482   YY=            -75.3287   ZZ=            -69.7816
   XY=             -4.2833   XZ=              1.3302   YZ=              0.4277

 Normal termination of Gaussian 16 at Thu Dec  7 19:28:20 2023.
