 Gaussian 16, Revision B.01,
 Gaussian 16:  ES64L-G16RevB.01 20-Dec-2017

 -------------------------
 #P B3LYP/6-311+g(d) force
 -------------------------

 -----
 DPGEN
 -----
 Symbolic Z-matrix:
 Charge =  0 Multiplicity = 2

                         Standard orientation:
 ---------------------------------------------------------------------
 Center     Atomic      Atomic             Coordinates (Angstroms)
 Number     Number       Type             X           Y           Z
 ---------------------------------------------------------------------
      1         11           0        3.242224    1.614587   -0.173603
      2         11           0       -1.717450    3.071621    0.388738
      3         11           0       -3.226429   -0.763320   -0.544986
      4         11           0       -1.153332   -2.579602    0.671749
      5         11           0        0.576775    0.286984    1.768512
      6         11           0        2.425992   -2.255010   -0.421568
      7         11           0       -0.147778    0.624739   -1.688842
 ---------------------------------------------------------------------

 SCF Done:  E(UB3LYP) =  -1136.12454511     A.U. after   22 cycles

 The electronic state is 2-A.
 Alpha  occ. eigenvalues --  -38.45033 -38.44658 -38.44271 -38.44241 -38.43698
 Alpha  occ. eigenvalues --  -38.43337 -38.43150  -2.20792  -2.20417  -2.20101
 Alpha  occ. eigenvalues --   -2.19998  -2.19552  -2.19215  -2.19012  -1.14472
 Alpha  occ. eigenvalues --   -1.14444  -1.14427  -1.14099  -1.14074  -1.14051
 Alpha  occ. eigenvalues --   -1.13813  -1.13759  -1.13720  -1.13672  -1.13650
 Alpha  occ. eigenvalues --   -1.13645  -1.13253  -1.13190  -1.13168  -1.12905
 Alpha  occ. eigenvalues --   -1.12857  -1.12820  -1.12691  -1.12667  -1.12650
 Alpha  occ. eigenvalues --   -0.17724  -0.12996  -0.12092  -0.10204
 Alpha virt. eigenvalues --   -0.06667  -0.05669  -0.04492  -0.03133  -0.02861
 Alpha virt. eigenvalues --   -0.02193  -0.02028  -0.01747  -0.00795  -0.00372
 Alpha virt. eigenvalues --   -0.00051   0.00322   0.00415   0.00610   0.00749

  Beta  occ. eigenvalues --  -38.45027 -38.44653 -38.44259 -38.44235 -38.43647
  Beta  occ. eigenvalues --  -38.43259 -38.43138  -2.20784  -2.20409  -2.20080
  Beta  occ. eigenvalues --   -2.19989  -2.19458  -2.19073  -2.18995  -1.14453
  Beta  occ. eigenvalues --   -1.14440  -1.14420  -1.14088  -1.14065  -1.14044
  Beta  occ. eigenvalues --   -1.13801  -1.13729  -1.13708  -1.13659  -1.13641
  Beta  occ. eigenvalues --   -1.13636  -1.13186  -1.13123  -1.13098  -1.12809
  Beta  occ. eigenvalues --   -1.12753  -1.12718  -1.12682  -1.12642  -1.12627
  Beta  occ. eigenvalues --   -0.17059  -0.12772  -0.11884
  Beta virt. eigenvalues --   -0.06708  -0.06458  -0.05474  -0.04354  -0.02535
  Beta virt. eigenvalues --   -0.02230  -0.01905  -0.01700  -0.01227  -0.00791
  Beta virt. eigenvalues --   -0.00352   0.00101   0.00367   0.00502   0.00632

 Mulliken charges and spin densities:
               1          2
     1  Na   0.047224   0.027073
     2  Na  -0.134771  -0.042532
     3  Na   0.101989   0.039035
     4  Na  -0.103913   0.038757
     5  Na   0.203485   0.504247
     6  Na  -0.137007   0.078741
     7  Na   0.022993   0.354678
 Sum of Mulliken charges =  -0.00000   1.00000

 Dipole moment (field-independent basis, Debye):
    X=              0.6703    Y=              0.5075    Z=             -0.1750  Tot=              0.8588
 Quadrupole moment (field-independent basis, Debye-Ang):
   XX=            -53.7258   YY=            -61.9900   ZZ=            -76.3971
   XY=             -0.5286   XZ=             -1.0241   YZ=              1.2386

 Normal termination of Gaussian 16 at Sun Dec  3 18:48:07 2023.
