 Gaussian 16, Revision B.01,
 Gaussian 16:  ES64L-G16RevB.01 20-Dec-2017

 -------------------------
 #P B3LYP/6-311+g(d) force
 -------------------------

 -----
 DPGEN
 -----
 Symbolic Z-matrix:
 Charge =  0 Multiplicity = 2

                         Standard orientation:
 ---------------------------------------------------------------------
 Center     Atomic      Atomic             Coordinates (Angstroms)
 Number     Number       Type             X           Y           Z
 ---------------------------------------------------------------------
      1         11           0        0.198308   -0.334002   -1.704684
      2         11           0        3.184785    0.480916    0.026787
      3         11           0       -0.652349    0.528528    2.216811
      4         11           0        0.468195    3.013414   -0.063282
      5         11           0       -2.617599    1.109979   -0.781600
      6         11           0        1.449696   -2.692706    0.087344
      7         11           0       -2.031036   -2.106130    0.218624
 ---------------------------------------------------------------------

 SCF Done:  E(UB3LYP) =  -1136.13837347     A.U. after   19 cycles

 The electronic state is 2-A.
 Alpha  occ. eigenvalues --  -38.43980 -38.43937 -38.43630 -38.43621 -38.43590
 Alpha  occ. eigenvalues --  -38.43483 -38.43380  -2.19827  -2.19728  -2.19490
 Alpha  occ. eigenvalues --   -2.19441  -2.19426  -2.19345  -2.19335  -1.13480
 Alpha  occ. eigenvalues --   -1.13459  -1.13453  -1.13410  -1.13393  -1.13364
 Alpha  occ. eigenvalues --   -1.13200  -1.13154  -1.13142  -1.13129  -1.13117
 Alpha  occ. eigenvalues --   -1.13102  -1.13090  -1.13074  -1.13059  -1.13025
 Alpha  occ. eigenvalues --   -1.13011  -1.12994  -1.12972  -1.12954  -1.12944
 Alpha  occ. eigenvalues --   -0.18365  -0.12749  -0.12545  -0.11006
 Alpha virt. eigenvalues --   -0.05460  -0.05093  -0.04889  -0.03256  -0.03132
 Alpha virt. eigenvalues --   -0.02778  -0.01249  -0.01114  -0.00431  -0.00356
 Alpha virt. eigenvalues --   -0.00051   0.00375   0.00826   0.00848   0.00895

  Beta  occ. eigenvalues --  -38.43938 -38.43886 -38.43628 -38.43597 -38.43588
  Beta  occ. eigenvalues --  -38.43475 -38.43320  -2.19732  -2.19654  -2.19450
  Beta  occ. eigenvalues --   -2.19440  -2.19425  -2.19334  -2.19228  -1.13402
  Beta  occ. eigenvalues --   -1.13396  -1.13368  -1.13366  -1.13341  -1.13327
  Beta  occ. eigenvalues --   -1.13163  -1.13140  -1.13117  -1.13103  -1.13092
  Beta  occ. eigenvalues --   -1.13091  -1.13078  -1.13071  -1.13059  -1.13012
  Beta  occ. eigenvalues --   -1.12975  -1.12968  -1.12933  -1.12881  -1.12868
  Beta  occ. eigenvalues --   -0.17642  -0.12545  -0.12346
  Beta virt. eigenvalues --   -0.07048  -0.05465  -0.05076  -0.04702  -0.02566
  Beta virt. eigenvalues --   -0.02373  -0.01744  -0.01163  -0.01033  -0.00450
  Beta virt. eigenvalues --   -0.00391   0.00116   0.00417   0.00859   0.00895

 Mulliken charges and spin densities:
               1          2
     1  Na   0.051883   0.327943
     2  Na  -0.033741  -0.076848
     3  Na  -0.553331   0.681157
     4  Na   0.028507  -0.047366
     5  Na   0.307691   0.055063
     6  Na   0.032597  -0.035288
     7  Na   0.166394   0.095338
 Sum of Mulliken charges =  -0.00000   1.00000

 Dipole moment (field-independent basis, Debye):
    X=              0.1188    Y=              0.0639    Z=              0.2038  Tot=              0.2444
 Quadrupole moment (field-independent basis, Debye-Ang):
   XX=            -60.3586   YY=            -62.0395   ZZ=            -72.4124
   XY=              0.2086   XZ=              1.6203   YZ=             -1.7304

 Normal termination of Gaussian 16 at Tue Dec  5 19:12:34 2023.
