 Gaussian 16, Revision B.01,
 Gaussian 16:  ES64L-G16RevB.01 20-Dec-2017

 -------------------------
 #P B3LYP/6-311+g(d) force
 -------------------------

 -----
 DPGEN
 -----
 Symbolic Z-matrix:
 Charge =  0 Multiplicity = 2

                         Standard orientation:
 ---------------------------------------------------------------------
 Center     Atomic      Atomic             Coordinates (Angstroms)
 Number     Number       Type             X           Y           Z
 ---------------------------------------------------------------------
      1         11           0        0.115921   -0.041337   -1.798750
      2         11           0       -2.151761    2.381791   -0.366002
      3         11           0       -3.113220   -0.794872    0.427110
      4         11           0        2.041656    2.560999    0.188373
      5         11           0        2.860915   -1.172780   -0.237044
      6         11           0        0.519728   -0.025045    1.932373
      7         11           0       -0.273239   -2.908757   -0.146061
 ---------------------------------------------------------------------

 SCF Done:  E(UB3LYP) =  -1136.13644399     A.U. after   19 cycles

 The electronic state is 2-A.
 Alpha  occ. eigenvalues --  -38.44142 -38.43938 -38.43922 -38.43867 -38.43634
 Alpha  occ. eigenvalues --  -38.43434 -38.43285  -2.19992  -2.19727  -2.19726
 Alpha  occ. eigenvalues --   -2.19657  -2.19521  -2.19352  -2.19138  -1.13677
 Alpha  occ. eigenvalues --   -1.13670  -1.13609  -1.13410  -1.13402  -1.13395
 Alpha  occ. eigenvalues --   -1.13384  -1.13379  -1.13366  -1.13334  -1.13308
 Alpha  occ. eigenvalues --   -1.13287  -1.13192  -1.13157  -1.13132  -1.13036
 Alpha  occ. eigenvalues --   -1.12989  -1.12976  -1.12815  -1.12800  -1.12766
 Alpha  occ. eigenvalues --   -0.18264  -0.12960  -0.12280  -0.10661
 Alpha virt. eigenvalues --   -0.05727  -0.05445  -0.04756  -0.03193  -0.02882
 Alpha virt. eigenvalues --   -0.02538  -0.01521  -0.01293  -0.00641  -0.00418
 Alpha virt. eigenvalues --   -0.00025   0.00357   0.00783   0.00811   0.00864

  Beta  occ. eigenvalues --  -38.44132 -38.43936 -38.43917 -38.43863 -38.43554
  Beta  occ. eigenvalues --  -38.43358 -38.43280  -2.19979  -2.19724  -2.19718
  Beta  occ. eigenvalues --   -2.19651  -2.19373  -2.19214  -2.19132  -1.13667
  Beta  occ. eigenvalues --   -1.13638  -1.13600  -1.13398  -1.13395  -1.13380
  Beta  occ. eigenvalues --   -1.13380  -1.13371  -1.13364  -1.13316  -1.13304
  Beta  occ. eigenvalues --   -1.13285  -1.13094  -1.13056  -1.13023  -1.12946
  Beta  occ. eigenvalues --   -1.12898  -1.12871  -1.12800  -1.12783  -1.12753
  Beta  occ. eigenvalues --   -0.17540  -0.12748  -0.12033
  Beta virt. eigenvalues --   -0.06826  -0.05717  -0.05316  -0.04700  -0.02479
  Beta virt. eigenvalues --   -0.02146  -0.01544  -0.01425  -0.01195  -0.00661
  Beta virt. eigenvalues --   -0.00469   0.00114   0.00389   0.00802   0.00858

 Mulliken charges and spin densities:
               1          2
     1  Na  -0.013886   0.591687
     2  Na  -0.046250  -0.066828
     3  Na  -0.076035   0.006593
     4  Na  -0.055190  -0.143008
     5  Na   0.308035  -0.097999
     6  Na  -0.206640   0.730756
     7  Na   0.089965  -0.021201
 Sum of Mulliken charges =  -0.00000   1.00000

 Dipole moment (field-independent basis, Debye):
    X=              0.2763    Y=              0.0939    Z=              0.0558  Tot=              0.2971
 Quadrupole moment (field-independent basis, Debye-Ang):
   XX=            -57.1358   YY=            -61.6863   ZZ=            -74.7420
   XY=              0.1430   XZ=             -1.2185   YZ=             -0.3688

 Normal termination of Gaussian 16 at Fri Dec  8 02:33:02 2023.
