 Gaussian 16, Revision B.01,
 Gaussian 16:  ES64L-G16RevB.01 20-Dec-2017

 -------------------------
 #P B3LYP/6-311+g(d) force
 -------------------------

 -----
 DPGEN
 -----
 Symbolic Z-matrix:
 Charge =  0 Multiplicity = 2

                         Standard orientation:
 ---------------------------------------------------------------------
 Center     Atomic      Atomic             Coordinates (Angstroms)
 Number     Number       Type             X           Y           Z
 ---------------------------------------------------------------------
      1         11           0        0.100525   -1.638228    1.135177
      2         11           0        5.545494   -0.009662    0.045887
      3         11           0        2.793647   -1.075490   -0.732988
      4         11           0        1.649467    2.048174    0.096102
      5         11           0       -1.659836    1.787400    0.064072
      6         11           0       -2.772021   -1.206405   -0.628740
      7         11           0       -5.657276    0.094211    0.020490
 ---------------------------------------------------------------------

 SCF Done:  E(UB3LYP) =  -1136.11654901     A.U. after   21 cycles

 The electronic state is 2-A.
 Alpha  occ. eigenvalues --  -38.44690 -38.44558 -38.44371 -38.44089 -38.44015
 Alpha  occ. eigenvalues --  -38.43573 -38.43571  -2.20527  -2.20406  -2.20229
 Alpha  occ. eigenvalues --   -2.19966  -2.19906  -2.19376  -2.19358  -1.14210
 Alpha  occ. eigenvalues --   -1.14172  -1.14156  -1.14101  -1.14070  -1.13991
 Alpha  occ. eigenvalues --   -1.13912  -1.13889  -1.13819  -1.13653  -1.13638
 Alpha  occ. eigenvalues --   -1.13584  -1.13578  -1.13577  -1.13553  -1.13040
 Alpha  occ. eigenvalues --   -1.13030  -1.13025  -1.13021  -1.13012  -1.12992
 Alpha  occ. eigenvalues --   -0.17379  -0.14213  -0.12015  -0.11188
 Alpha virt. eigenvalues --   -0.05986  -0.05341  -0.05268  -0.03533  -0.02911
 Alpha virt. eigenvalues --   -0.02324  -0.02196  -0.01355  -0.00942  -0.00565
 Alpha virt. eigenvalues --   -0.00222  -0.00007   0.00138   0.00508   0.00687

  Beta  occ. eigenvalues --  -38.44627 -38.44512 -38.44293 -38.44074 -38.44001
  Beta  occ. eigenvalues --  -38.43574 -38.43574  -2.20414  -2.20323  -2.20087
  Beta  occ. eigenvalues --   -2.19941  -2.19883  -2.19381  -2.19360  -1.14136
  Beta  occ. eigenvalues --   -1.14102  -1.14057  -1.14047  -1.14012  -1.13919
  Beta  occ. eigenvalues --   -1.13813  -1.13784  -1.13728  -1.13636  -1.13624
  Beta  occ. eigenvalues --   -1.13569  -1.13554  -1.13543  -1.13528  -1.13043
  Beta  occ. eigenvalues --   -1.13033  -1.13027  -1.13023  -1.13013  -1.12992
  Beta  occ. eigenvalues --   -0.16664  -0.14077  -0.10997
  Beta virt. eigenvalues --   -0.07934  -0.05878  -0.05130  -0.04648  -0.02830
  Beta virt. eigenvalues --   -0.02690  -0.02218  -0.01861  -0.00989  -0.00711
  Beta virt. eigenvalues --   -0.00403  -0.00090   0.00204   0.00337   0.00508

 Mulliken charges and spin densities:
               1          2
     1  Na  -0.008110   0.578950
     2  Na   0.443455  -0.062113
     3  Na  -0.329700   0.033959
     4  Na  -0.215216   0.229170
     5  Na  -0.163842   0.254569
     6  Na  -0.188404   0.006432
     7  Na   0.461817  -0.040966
 Sum of Mulliken charges =  -0.00000   1.00000

 Dipole moment (field-independent basis, Debye):
    X=              0.0695    Y=              0.3726    Z=              0.5625  Tot=              0.6783
 Quadrupole moment (field-independent basis, Debye-Ang):
   XX=            -67.3292   YY=            -67.6212   ZZ=            -69.1214
   XY=              0.6311   XZ=              0.6040   YZ=              1.0825

 Normal termination of Gaussian 16 at Tue Nov 28 21:40:38 2023.
