 Gaussian 16, Revision B.01,
 Gaussian 16:  ES64L-G16RevB.01 20-Dec-2017

 -------------------------
 #P B3LYP/6-311+g(d) force
 -------------------------

 -----
 DPGEN
 -----
 Symbolic Z-matrix:
 Charge =  0 Multiplicity = 2

                         Standard orientation:
 ---------------------------------------------------------------------
 Center     Atomic      Atomic             Coordinates (Angstroms)
 Number     Number       Type             X           Y           Z
 ---------------------------------------------------------------------
      1         11           0        2.129659    1.835034   -0.414385
      2         11           0       -0.493661    3.310182    0.187399
      3         11           0       -3.231833   -0.513964    0.359281
      4         11           0        5.052671   -0.867587   -0.835917
      5         11           0       -6.032075   -0.977698   -0.944754
      6         11           0        0.104573   -0.606208    1.441893
      7         11           0        2.470666   -2.179759    0.206484
 ---------------------------------------------------------------------

 SCF Done:  E(UB3LYP) =  -1136.11492979     A.U. after   21 cycles

 The electronic state is 2-A.
 Alpha  occ. eigenvalues --  -38.44653 -38.44593 -38.44341 -38.44326 -38.44137
 Alpha  occ. eigenvalues --  -38.44136 -38.43587  -2.20533  -2.20415  -2.20201
 Alpha  occ. eigenvalues --   -2.20183  -2.19947  -2.19939  -2.19389  -1.14247
 Alpha  occ. eigenvalues --   -1.14183  -1.14130  -1.14111  -1.14060  -1.14048
 Alpha  occ. eigenvalues --   -1.13869  -1.13866  -1.13862  -1.13851  -1.13840
 Alpha  occ. eigenvalues --   -1.13807  -1.13602  -1.13602  -1.13586  -1.13579
 Alpha  occ. eigenvalues --   -1.13579  -1.13562  -1.13063  -1.13060  -1.13037
 Alpha  occ. eigenvalues --   -0.17084  -0.13746  -0.12524  -0.11567
 Alpha virt. eigenvalues --   -0.06395  -0.05661  -0.04521  -0.03572  -0.02856
 Alpha virt. eigenvalues --   -0.02330  -0.02223  -0.01581  -0.01236  -0.00834
 Alpha virt. eigenvalues --   -0.00563  -0.00178   0.00130   0.00406   0.00652

  Beta  occ. eigenvalues --  -38.44564 -38.44553 -38.44318 -38.44306 -38.44123
  Beta  occ. eigenvalues --  -38.44091 -38.43595  -2.20371  -2.20340  -2.20170
  Beta  occ. eigenvalues --   -2.20141  -2.19923  -2.19854  -2.19409  -1.14140
  Beta  occ. eigenvalues --   -1.14076  -1.14070  -1.14009  -1.14006  -1.13993
  Beta  occ. eigenvalues --   -1.13840  -1.13837  -1.13832  -1.13831  -1.13805
  Beta  occ. eigenvalues --   -1.13755  -1.13586  -1.13563  -1.13548  -1.13547
  Beta  occ. eigenvalues --   -1.13521  -1.13521  -1.13080  -1.13071  -1.13023
  Beta  occ. eigenvalues --   -0.16373  -0.13428  -0.11990
  Beta virt. eigenvalues --   -0.08214  -0.05946  -0.05245  -0.04256  -0.03161
  Beta virt. eigenvalues --   -0.02545  -0.02216  -0.01842  -0.01428  -0.01081
  Beta virt. eigenvalues --   -0.00419  -0.00244  -0.00019   0.00235   0.00502

 Mulliken charges and spin densities:
               1          2
     1  Na  -0.472900   0.153247
     2  Na   0.675476   0.070798
     3  Na  -0.351772  -0.052262
     4  Na   0.109473   0.153708
     5  Na   0.102491   0.179489
     6  Na  -0.838381   0.498833
     7  Na   0.775613  -0.003813
 Sum of Mulliken charges =  -0.00000   1.00000

 Dipole moment (field-independent basis, Debye):
    X=              0.9845    Y=              0.3744    Z=             -0.3075  Tot=              1.0973
 Quadrupole moment (field-independent basis, Debye-Ang):
   XX=            -55.9040   YY=            -68.3926   ZZ=            -70.7702
   XY=             -3.4696   XZ=              0.8333   YZ=              1.0490

 Normal termination of Gaussian 16 at Wed Nov 29 03:45:12 2023.
