 Gaussian 16, Revision B.01,
 Gaussian 16:  ES64L-G16RevB.01 20-Dec-2017

 -------------------------
 #P B3LYP/6-311+g(d) force
 -------------------------

 -----
 DPGEN
 -----
 Symbolic Z-matrix:
 Charge =  0 Multiplicity = 2

                         Standard orientation:
 ---------------------------------------------------------------------
 Center     Atomic      Atomic             Coordinates (Angstroms)
 Number     Number       Type             X           Y           Z
 ---------------------------------------------------------------------
      1         11           0       -2.275886    1.934429   -0.136207
      2         11           0        1.223314    2.688743    0.189658
      3         11           0        1.617397   -2.445072    0.407732
      4         11           0       -2.816503   -1.674405   -0.559441
      5         11           0       -0.123032   -0.277926   -1.354427
      6         11           0       -0.664802   -0.271058    1.986665
      7         11           0        3.039512    0.045289   -0.533978
 ---------------------------------------------------------------------

 SCF Done:  E(UB3LYP) =  -1136.13253411     A.U. after   19 cycles

 The electronic state is 2-A.
 Alpha  occ. eigenvalues --  -38.44134 -38.44051 -38.43822 -38.43610 -38.43442
 Alpha  occ. eigenvalues --  -38.43201 -38.43062  -2.19977  -2.19903  -2.19730
 Alpha  occ. eigenvalues --   -2.19497  -2.19351  -2.19106  -2.19037  -1.13678
 Alpha  occ. eigenvalues --   -1.13620  -1.13609  -1.13592  -1.13577  -1.13513
 Alpha  occ. eigenvalues --   -1.13463  -1.13400  -1.13373  -1.13165  -1.13144
 Alpha  occ. eigenvalues --   -1.13117  -1.13032  -1.12974  -1.12960  -1.12793
 Alpha  occ. eigenvalues --   -1.12746  -1.12740  -1.12707  -1.12697  -1.12677
 Alpha  occ. eigenvalues --   -0.18806  -0.13576  -0.12225  -0.10659
 Alpha virt. eigenvalues --   -0.05707  -0.05507  -0.04452  -0.03286  -0.02704
 Alpha virt. eigenvalues --   -0.02335  -0.01701  -0.01228  -0.00424  -0.00131
 Alpha virt. eigenvalues --    0.00000   0.00326   0.00747   0.00808   0.00881

  Beta  occ. eigenvalues --  -38.44114 -38.44044 -38.43813 -38.43600 -38.43349
  Beta  occ. eigenvalues --  -38.43201 -38.43015  -2.19942  -2.19895  -2.19714
  Beta  occ. eigenvalues --   -2.19482  -2.19180  -2.19040  -2.19023  -1.13647
  Beta  occ. eigenvalues --   -1.13599  -1.13583  -1.13576  -1.13553  -1.13504
  Beta  occ. eigenvalues --   -1.13456  -1.13383  -1.13355  -1.13156  -1.13119
  Beta  occ. eigenvalues --   -1.13097  -1.12922  -1.12855  -1.12834  -1.12727
  Beta  occ. eigenvalues --   -1.12714  -1.12702  -1.12682  -1.12671  -1.12665
  Beta  occ. eigenvalues --   -0.18125  -0.13302  -0.11992
  Beta virt. eigenvalues --   -0.06776  -0.05662  -0.05416  -0.04348  -0.02613
  Beta virt. eigenvalues --   -0.02002  -0.01579  -0.01303  -0.01176  -0.00396
  Beta virt. eigenvalues --   -0.00157   0.00150   0.00384   0.00812   0.00843

 Mulliken charges and spin densities:
               1          2
     1  Na   0.110387   0.056487
     2  Na  -0.150265   0.019211
     3  Na   0.155394   0.088159
     4  Na   0.201746   0.075268
     5  Na  -0.283716   0.118272
     6  Na  -0.331643   0.608182
     7  Na   0.298098   0.034420
 Sum of Mulliken charges =  -0.00000   1.00000

 Dipole moment (field-independent basis, Debye):
    X=             -0.4743    Y=             -0.1215    Z=              0.1808  Tot=              0.5219
 Quadrupole moment (field-independent basis, Debye-Ang):
   XX=            -54.9920   YY=            -63.6566   ZZ=            -74.6129
   XY=             -0.0985   XZ=              0.5092   YZ=             -0.0349

 Normal termination of Gaussian 16 at Sun Dec  3 13:16:31 2023.
