 Gaussian 16, Revision B.01,
 Gaussian 16:  ES64L-G16RevB.01 20-Dec-2017

 -------------------------
 #P B3LYP/6-311+g(d) force
 -------------------------

 -----
 DPGEN
 -----
 Symbolic Z-matrix:
 Charge =  0 Multiplicity = 2

                         Standard orientation:
 ---------------------------------------------------------------------
 Center     Atomic      Atomic             Coordinates (Angstroms)
 Number     Number       Type             X           Y           Z
 ---------------------------------------------------------------------
      1         11           0        0.183892   -2.282671    1.040763
      2         11           0       -2.933154   -1.613690   -0.101663
      3         11           0       -0.273249    0.102507   -1.129260
      4         11           0        1.272612    2.843652    0.102388
      5         11           0        2.608300   -1.080382   -1.734019
      6         11           0        1.909084    0.114033    1.846689
      7         11           0       -2.767486    1.916552   -0.024898
 ---------------------------------------------------------------------

 SCF Done:  E(UB3LYP) =  -1136.12828747     A.U. after   19 cycles

 The electronic state is 2-A.
 Alpha  occ. eigenvalues --  -38.44454 -38.44236 -38.43873 -38.43780 -38.43582
 Alpha  occ. eigenvalues --  -38.43145 -38.42982  -2.20296  -2.20031  -2.19709
 Alpha  occ. eigenvalues --   -2.19685  -2.19399  -2.19058  -2.19022  -1.13984
 Alpha  occ. eigenvalues --   -1.13914  -1.13899  -1.13719  -1.13702  -1.13652
 Alpha  occ. eigenvalues --   -1.13395  -1.13392  -1.13377  -1.13337  -1.13331
 Alpha  occ. eigenvalues --   -1.13300  -1.13072  -1.13069  -1.13023  -1.12788
 Alpha  occ. eigenvalues --   -1.12725  -1.12701  -1.12671  -1.12658  -1.12638
 Alpha  occ. eigenvalues --   -0.18317  -0.13283  -0.12120  -0.11225
 Alpha virt. eigenvalues --   -0.05827  -0.05389  -0.04390  -0.03236  -0.02761
 Alpha virt. eigenvalues --   -0.02642  -0.01636  -0.01111  -0.00492  -0.00301
 Alpha virt. eigenvalues --   -0.00097   0.00329   0.00633   0.00795   0.00866

  Beta  occ. eigenvalues --  -38.44368 -38.44242 -38.43876 -38.43716 -38.43575
  Beta  occ. eigenvalues --  -38.43118 -38.42948  -2.20139  -2.20041  -2.19715
  Beta  occ. eigenvalues --   -2.19568  -2.19387  -2.19011  -2.18962  -1.13865
  Beta  occ. eigenvalues --   -1.13808  -1.13794  -1.13723  -1.13707  -1.13661
  Beta  occ. eigenvalues --   -1.13396  -1.13376  -1.13343  -1.13309  -1.13251
  Beta  occ. eigenvalues --   -1.13220  -1.13065  -1.13042  -1.13019  -1.12758
  Beta  occ. eigenvalues --   -1.12670  -1.12642  -1.12635  -1.12613  -1.12603
  Beta  occ. eigenvalues --   -0.17702  -0.13028  -0.11931
  Beta virt. eigenvalues --   -0.07163  -0.05707  -0.05182  -0.04242  -0.02839
  Beta virt. eigenvalues --   -0.02176  -0.01858  -0.01251  -0.01018  -0.00372
  Beta virt. eigenvalues --   -0.00128   0.00021   0.00407   0.00758   0.00816

 Mulliken charges and spin densities:
               1          2
     1  Na  -0.415748   0.169886
     2  Na   0.228505  -0.075564
     3  Na   0.263359   0.588849
     4  Na  -0.127546  -0.014858
     5  Na   0.108778   0.103522
     6  Na   0.018887   0.316191
     7  Na  -0.076235  -0.088025
 Sum of Mulliken charges =  -0.00000   1.00000

 Dipole moment (field-independent basis, Debye):
    X=             -0.2100    Y=              0.1142    Z=              0.1291  Tot=              0.2717
 Quadrupole moment (field-independent basis, Debye-Ang):
   XX=            -55.7549   YY=            -65.2460   ZZ=            -72.0256
   XY=             -0.1075   XZ=             -1.9448   YZ=              1.0716

 Normal termination of Gaussian 16 at Tue Nov 28 19:01:35 2023.
