 Gaussian 16, Revision B.01,
 Gaussian 16:  ES64L-G16RevB.01 20-Dec-2017

 -------------------------
 #P B3LYP/6-311+g(d) force
 -------------------------

 -----
 DPGEN
 -----
 Symbolic Z-matrix:
 Charge =  0 Multiplicity = 2

                         Standard orientation:
 ---------------------------------------------------------------------
 Center     Atomic      Atomic             Coordinates (Angstroms)
 Number     Number       Type             X           Y           Z
 ---------------------------------------------------------------------
      1         11           0       -0.778617   -1.880406   -0.660989
      2         11           0       -3.899762    0.007995   -0.121856
      3         11           0       -1.034143    0.392452    2.365907
      4         11           0        2.393589   -1.656911    1.067220
      5         11           0       -0.726480    1.611614   -1.184426
      6         11           0        1.579397   -0.392929   -1.868559
      7         11           0        2.466015    1.918185    0.402703
 ---------------------------------------------------------------------

 SCF Done:  E(UB3LYP) =  -1136.12435595     A.U. after   26 cycles

 The electronic state is 2-A.
 Alpha  occ. eigenvalues --  -38.45391 -38.45108 -38.43771 -38.43749 -38.43272
 Alpha  occ. eigenvalues --  -38.43170 -38.42719  -2.21178  -2.20874  -2.19738
 Alpha  occ. eigenvalues --   -2.19609  -2.19171  -2.18998  -2.18625  -1.14842
 Alpha  occ. eigenvalues --   -1.14818  -1.14788  -1.14549  -1.14540  -1.14503
 Alpha  occ. eigenvalues --   -1.13487  -1.13396  -1.13345  -1.13271  -1.13257
 Alpha  occ. eigenvalues --   -1.13226  -1.12887  -1.12832  -1.12757  -1.12669
 Alpha  occ. eigenvalues --   -1.12660  -1.12636  -1.12356  -1.12294  -1.12205
 Alpha  occ. eigenvalues --   -0.18515  -0.13464  -0.11976  -0.10903
 Alpha virt. eigenvalues --   -0.06654  -0.04794  -0.04474  -0.03453  -0.02865
 Alpha virt. eigenvalues --   -0.02748  -0.02201  -0.00727  -0.00633  -0.00136
 Alpha virt. eigenvalues --    0.00137   0.00274   0.00344   0.00719   0.00826

  Beta  occ. eigenvalues --  -38.45315 -38.45116 -38.43745 -38.43699 -38.43234
  Beta  occ. eigenvalues --  -38.43168 -38.42699  -2.21035  -2.20889  -2.19650
  Beta  occ. eigenvalues --   -2.19562  -2.19105  -2.18996  -2.18593  -1.14747
  Beta  occ. eigenvalues --   -1.14718  -1.14684  -1.14554  -1.14547  -1.14514
  Beta  occ. eigenvalues --   -1.13414  -1.13338  -1.13286  -1.13230  -1.13222
  Beta  occ. eigenvalues --   -1.13189  -1.12837  -1.12766  -1.12718  -1.12671
  Beta  occ. eigenvalues --   -1.12647  -1.12628  -1.12324  -1.12251  -1.12189
  Beta  occ. eigenvalues --   -0.17681  -0.13351  -0.10743
  Beta virt. eigenvalues --   -0.07972  -0.06340  -0.04429  -0.04133  -0.02963
  Beta virt. eigenvalues --   -0.02260  -0.02204  -0.02068  -0.00607  -0.00337
  Beta virt. eigenvalues --    0.00024   0.00267   0.00330   0.00375   0.00844

 Mulliken charges and spin densities:
               1          2
     1  Na  -0.302256   0.135124
     2  Na   0.286669  -0.061101
     3  Na  -0.273614   0.425851
     4  Na  -0.164370   0.290052
     5  Na  -0.257703   0.163510
     6  Na   0.870241  -0.027530
     7  Na  -0.158967   0.074094
 Sum of Mulliken charges =  -0.00000   1.00000

 Dipole moment (field-independent basis, Debye):
    X=             -1.1426    Y=              0.0439    Z=              0.7536  Tot=              1.3695
 Quadrupole moment (field-independent basis, Debye-Ang):
   XX=            -50.3447   YY=            -79.5759   ZZ=            -64.1469
   XY=             -0.5085   XZ=              1.8923   YZ=             -0.2575

 Normal termination of Gaussian 16 at Thu Dec  7 11:27:27 2023.
