 Gaussian 16, Revision B.01,
 Gaussian 16:  ES64L-G16RevB.01 20-Dec-2017

 -------------------------
 #P B3LYP/6-311+g(d) force
 -------------------------

 -----
 DPGEN
 -----
 Symbolic Z-matrix:
 Charge =  0 Multiplicity = 2

                         Standard orientation:
 ---------------------------------------------------------------------
 Center     Atomic      Atomic             Coordinates (Angstroms)
 Number     Number       Type             X           Y           Z
 ---------------------------------------------------------------------
      1         11           0       -1.577442    2.592179   -0.176185
      2         11           0       -2.956059   -0.475892    0.222919
      3         11           0       -0.497988   -2.694206   -0.488248
      4         11           0       -0.280686   -0.512192    1.645221
      5         11           0        2.752281   -1.312112    0.029353
      6         11           0        0.217293    0.385519   -1.603282
      7         11           0        2.342603    2.016703    0.370222
 ---------------------------------------------------------------------

 SCF Done:  E(UB3LYP) =  -1136.13524843     A.U. after   20 cycles

 The electronic state is 2-A.
 Alpha  occ. eigenvalues --  -38.43907 -38.43872 -38.43865 -38.43567 -38.43178
 Alpha  occ. eigenvalues --  -38.43175 -38.42834  -2.19771  -2.19742  -2.19733
 Alpha  occ. eigenvalues --   -2.19416  -2.19190  -2.19103  -2.18848  -1.13508
 Alpha  occ. eigenvalues --   -1.13445  -1.13419  -1.13413  -1.13400  -1.13400
 Alpha  occ. eigenvalues --   -1.13392  -1.13390  -1.13339  -1.13119  -1.13067
 Alpha  occ. eigenvalues --   -1.13046  -1.12950  -1.12837  -1.12809  -1.12772
 Alpha  occ. eigenvalues --   -1.12719  -1.12709  -1.12531  -1.12471  -1.12466
 Alpha  occ. eigenvalues --   -0.19092  -0.13344  -0.12596  -0.10448
 Alpha virt. eigenvalues --   -0.05491  -0.05417  -0.04653  -0.03164  -0.02810
 Alpha virt. eigenvalues --   -0.02029  -0.01517  -0.01169  -0.00400  -0.00233
 Alpha virt. eigenvalues --    0.00054   0.00357   0.00821   0.00871   0.00902

  Beta  occ. eigenvalues --  -38.43899 -38.43866 -38.43855 -38.43562 -38.43161
  Beta  occ. eigenvalues --  -38.43109 -38.42763  -2.19756  -2.19729  -2.19727
  Beta  occ. eigenvalues --   -2.19410  -2.19081  -2.19065  -2.18719  -1.13488
  Beta  occ. eigenvalues --   -1.13441  -1.13400  -1.13394  -1.13387  -1.13381
  Beta  occ. eigenvalues --   -1.13380  -1.13372  -1.13330  -1.13106  -1.13049
  Beta  occ. eigenvalues --   -1.13045  -1.12895  -1.12760  -1.12730  -1.12722
  Beta  occ. eigenvalues --   -1.12696  -1.12651  -1.12444  -1.12376  -1.12371
  Beta  occ. eigenvalues --   -0.18389  -0.13064  -0.12345
  Beta virt. eigenvalues --   -0.06574  -0.05426  -0.05403  -0.04609  -0.02385
  Beta virt. eigenvalues --   -0.02067  -0.01425  -0.01128  -0.01027  -0.00421
  Beta virt. eigenvalues --   -0.00261   0.00178   0.00399   0.00866   0.00877

 Mulliken charges and spin densities:
               1          2
     1  Na   0.005667  -0.104861
     2  Na   0.384630   0.032098
     3  Na   0.156606   0.024355
     4  Na  -0.345539   0.580211
     5  Na   0.119092  -0.021954
     6  Na  -0.198738   0.514568
     7  Na  -0.121716  -0.024418
 Sum of Mulliken charges =  -0.00000   1.00000

 Dipole moment (field-independent basis, Debye):
    X=              0.1781    Y=              0.1357    Z=              0.0480  Tot=              0.2290
 Quadrupole moment (field-independent basis, Debye-Ang):
   XX=            -55.5360   YY=            -61.1746   ZZ=            -75.6688
   XY=             -0.2652   XZ=              0.9890   YZ=              2.0304

 Normal termination of Gaussian 16 at Tue Nov 28 22:05:25 2023.
