 Gaussian 16, Revision B.01,
 Gaussian 16:  ES64L-G16RevB.01 20-Dec-2017

 -------------------------
 #P B3LYP/6-311+g(d) force
 -------------------------

 -----
 DPGEN
 -----
 Symbolic Z-matrix:
 Charge =  0 Multiplicity = 2

                         Standard orientation:
 ---------------------------------------------------------------------
 Center     Atomic      Atomic             Coordinates (Angstroms)
 Number     Number       Type             X           Y           Z
 ---------------------------------------------------------------------
      1         11           0        0.955289   -1.595383   -1.449800
      2         11           0       -2.109396    0.094444   -1.403472
      3         11           0       -0.252172   -0.110285    1.962084
      4         11           0       -1.342589    3.193554    0.147598
      5         11           0        3.389928   -0.500322    0.254186
      6         11           0       -2.008092   -2.713467    0.715013
      7         11           0        1.367031    1.631459   -0.225608
 ---------------------------------------------------------------------

 SCF Done:  E(UB3LYP) =  -1136.13306152     A.U. after   19 cycles

 The electronic state is 2-A.
 Alpha  occ. eigenvalues --  -38.43996 -38.43800 -38.43780 -38.43699 -38.43676
 Alpha  occ. eigenvalues --  -38.43353 -38.43199  -2.19886  -2.19667  -2.19657
 Alpha  occ. eigenvalues --   -2.19594  -2.19496  -2.19193  -2.19185  -1.13576
 Alpha  occ. eigenvalues --   -1.13521  -1.13502  -1.13408  -1.13369  -1.13356
 Alpha  occ. eigenvalues --   -1.13315  -1.13294  -1.13284  -1.13265  -1.13234
 Alpha  occ. eigenvalues --   -1.13170  -1.13163  -1.13155  -1.13120  -1.12926
 Alpha  occ. eigenvalues --   -1.12885  -1.12854  -1.12833  -1.12830  -1.12744
 Alpha  occ. eigenvalues --   -0.18553  -0.13087  -0.12533  -0.11111
 Alpha virt. eigenvalues --   -0.05478  -0.04929  -0.04771  -0.03480  -0.03007
 Alpha virt. eigenvalues --   -0.02720  -0.01429  -0.01293  -0.00362  -0.00056
 Alpha virt. eigenvalues --    0.00247   0.00361   0.00801   0.00807   0.00852

  Beta  occ. eigenvalues --  -38.43910 -38.43781 -38.43757 -38.43663 -38.43655
  Beta  occ. eigenvalues --  -38.43355 -38.43189  -2.19729  -2.19671  -2.19579
  Beta  occ. eigenvalues --   -2.19515  -2.19474  -2.19195  -2.19174  -1.13469
  Beta  occ. eigenvalues --   -1.13413  -1.13404  -1.13391  -1.13355  -1.13299
  Beta  occ. eigenvalues --   -1.13283  -1.13255  -1.13229  -1.13214  -1.13176
  Beta  occ. eigenvalues --   -1.13144  -1.13132  -1.13121  -1.13100  -1.12930
  Beta  occ. eigenvalues --   -1.12876  -1.12836  -1.12831  -1.12801  -1.12744
  Beta  occ. eigenvalues --   -0.17823  -0.12870  -0.12335
  Beta virt. eigenvalues --   -0.07204  -0.05295  -0.04776  -0.04704  -0.02787
  Beta virt. eigenvalues --   -0.02439  -0.01769  -0.01378  -0.01183  -0.00155
  Beta virt. eigenvalues --   -0.00010   0.00314   0.00429   0.00817   0.00871

 Mulliken charges and spin densities:
               1          2
     1  Na  -0.063347   0.206013
     2  Na  -0.177136   0.266103
     3  Na  -0.228790   0.542790
     4  Na   0.440961  -0.048984
     5  Na   0.643901  -0.038009
     6  Na  -0.075995  -0.122172
     7  Na  -0.539594   0.194259
 Sum of Mulliken charges =  -0.00000   1.00000

 Dipole moment (field-independent basis, Debye):
    X=             -0.0209    Y=             -0.3503    Z=              0.1414  Tot=              0.3784
 Quadrupole moment (field-independent basis, Debye-Ang):
   XX=            -60.0071   YY=            -62.9917   ZZ=            -71.2276
   XY=             -1.2909   XZ=              1.4099   YZ=             -0.0872

 Normal termination of Gaussian 16 at Tue Dec  5 23:11:15 2023.
