 Gaussian 16, Revision B.01,
 Gaussian 16:  ES64L-G16RevB.01 20-Dec-2017

 -------------------------
 #P B3LYP/6-311+g(d) force
 -------------------------

 -----
 DPGEN
 -----
 Symbolic Z-matrix:
 Charge =  0 Multiplicity = 2

                         Standard orientation:
 ---------------------------------------------------------------------
 Center     Atomic      Atomic             Coordinates (Angstroms)
 Number     Number       Type             X           Y           Z
 ---------------------------------------------------------------------
      1         11           0       -0.173881    0.176600   -1.796361
      2         11           0        2.139288   -1.846624   -0.353077
      3         11           0       -3.089891    0.073470   -0.327743
      4         11           0       -0.109487    0.025416    1.916579
      5         11           0       -0.323166    2.792624    0.180698
      6         11           0        2.471360    1.180517    0.013540
      7         11           0       -0.914222   -2.402002    0.366362
 ---------------------------------------------------------------------

 SCF Done:  E(UB3LYP) =  -1136.13486389     A.U. after   17 cycles

 The electronic state is 2-A.
 Alpha  occ. eigenvalues --  -38.43849 -38.43631 -38.43426 -38.43402 -38.43268
 Alpha  occ. eigenvalues --  -38.43226 -38.43196  -2.19700  -2.19627  -2.19409
 Alpha  occ. eigenvalues --   -2.19369  -2.19168  -2.19155  -2.19149  -1.13399
 Alpha  occ. eigenvalues --   -1.13364  -1.13340  -1.13336  -1.13289  -1.13229
 Alpha  occ. eigenvalues --   -1.13123  -1.13082  -1.13063  -1.13043  -1.13025
 Alpha  occ. eigenvalues --   -1.12995  -1.12877  -1.12843  -1.12829  -1.12827
 Alpha  occ. eigenvalues --   -1.12797  -1.12789  -1.12781  -1.12773  -1.12715
 Alpha  occ. eigenvalues --   -0.19520  -0.13105  -0.12740  -0.11326
 Alpha virt. eigenvalues --   -0.05343  -0.04663  -0.04531  -0.03330  -0.03149
 Alpha virt. eigenvalues --   -0.02798  -0.01332  -0.00901  -0.00075   0.00110
 Alpha virt. eigenvalues --    0.00222   0.00368   0.00909   0.00960   0.01019

  Beta  occ. eigenvalues --  -38.43841 -38.43540 -38.43420 -38.43325 -38.43261
  Beta  occ. eigenvalues --  -38.43219 -38.43183  -2.19690  -2.19461  -2.19361
  Beta  occ. eigenvalues --   -2.19269  -2.19160  -2.19143  -2.19131  -1.13380
  Beta  occ. eigenvalues --   -1.13337  -1.13331  -1.13237  -1.13180  -1.13122
  Beta  occ. eigenvalues --   -1.13088  -1.13058  -1.12990  -1.12982  -1.12963
  Beta  occ. eigenvalues --   -1.12915  -1.12865  -1.12828  -1.12801  -1.12799
  Beta  occ. eigenvalues --   -1.12783  -1.12769  -1.12759  -1.12744  -1.12708
  Beta  occ. eigenvalues --   -0.18757  -0.12817  -0.12457
  Beta virt. eigenvalues --   -0.07343  -0.05317  -0.04651  -0.04524  -0.02496
  Beta virt. eigenvalues --   -0.02313  -0.01717  -0.01240  -0.00840   0.00018
  Beta virt. eigenvalues --    0.00086   0.00193   0.00382   0.00936   0.00952

 Mulliken charges and spin densities:
               1          2
     1  Na  -0.549466   0.607455
     2  Na   0.093088  -0.010142
     3  Na   0.080583  -0.096984
     4  Na  -0.463684   0.505267
     5  Na   0.185389  -0.096339
     6  Na   0.236200   0.013283
     7  Na   0.417891   0.077461
 Sum of Mulliken charges =  -0.00000   1.00000

 Dipole moment (field-independent basis, Debye):
    X=             -0.3204    Y=              0.1942    Z=             -0.0162  Tot=              0.3750
 Quadrupole moment (field-independent basis, Debye-Ang):
   XX=            -59.0332   YY=            -64.2509   ZZ=            -71.6154
   XY=             -0.6321   XZ=             -0.0189   YZ=              0.4603

 Normal termination of Gaussian 16 at Fri Dec  8 06:27:51 2023.
