 Gaussian 16, Revision B.01,
 Gaussian 16:  ES64L-G16RevB.01 20-Dec-2017

 -------------------------
 #P B3LYP/6-311+g(d) force
 -------------------------

 -----
 DPGEN
 -----
 Symbolic Z-matrix:
 Charge =  0 Multiplicity = 2

                         Standard orientation:
 ---------------------------------------------------------------------
 Center     Atomic      Atomic             Coordinates (Angstroms)
 Number     Number       Type             X           Y           Z
 ---------------------------------------------------------------------
      1         11           0       -0.072968   -0.309131    2.156061
      2         11           0        2.990009    0.475560   -0.387446
      3         11           0       -2.399174    1.832773   -0.212438
      4         11           0        2.029310   -2.489495    0.016333
      5         11           0       -0.337587   -0.541747   -1.641887
      6         11           0       -3.034248   -1.806379   -0.041846
      7         11           0        0.824657    2.838420    0.111222
 ---------------------------------------------------------------------

 SCF Done:  E(UB3LYP) =  -1136.13309669     A.U. after   20 cycles

 The electronic state is 2-A.
 Alpha  occ. eigenvalues --  -38.44413 -38.44171 -38.44026 -38.43846 -38.43808
 Alpha  occ. eigenvalues --  -38.43578 -38.42914  -2.20199  -2.19996  -2.19895
 Alpha  occ. eigenvalues --   -2.19687  -2.19650  -2.19481  -2.18759  -1.13876
 Alpha  occ. eigenvalues --   -1.13852  -1.13845  -1.13688  -1.13664  -1.13618
 Alpha  occ. eigenvalues --   -1.13590  -1.13564  -1.13550  -1.13347  -1.13341
 Alpha  occ. eigenvalues --   -1.13328  -1.13306  -1.13271  -1.13269  -1.13165
 Alpha  occ. eigenvalues --   -1.13127  -1.13099  -1.12435  -1.12413  -1.12413
 Alpha  occ. eigenvalues --   -0.18236  -0.13337  -0.12133  -0.10680
 Alpha virt. eigenvalues --   -0.06076  -0.05577  -0.04397  -0.03380  -0.02752
 Alpha virt. eigenvalues --   -0.02664  -0.01775  -0.01312  -0.00638  -0.00267
 Alpha virt. eigenvalues --   -0.00033   0.00323   0.00700   0.00755   0.00857

  Beta  occ. eigenvalues --  -38.44413 -38.44166 -38.44018 -38.43843 -38.43701
  Beta  occ. eigenvalues --  -38.43526 -38.42912  -2.20203  -2.19990  -2.19882
  Beta  occ. eigenvalues --   -2.19685  -2.19453  -2.19386  -2.18758  -1.13872
  Beta  occ. eigenvalues --   -1.13850  -1.13845  -1.13679  -1.13645  -1.13618
  Beta  occ. eigenvalues --   -1.13587  -1.13556  -1.13522  -1.13344  -1.13333
  Beta  occ. eigenvalues --   -1.13310  -1.13177  -1.13134  -1.13131  -1.13097
  Beta  occ. eigenvalues --   -1.13060  -1.13028  -1.12437  -1.12415  -1.12393
  Beta  occ. eigenvalues --   -0.17529  -0.13132  -0.11950
  Beta virt. eigenvalues --   -0.06754  -0.06070  -0.05471  -0.04369  -0.02621
  Beta virt. eigenvalues --   -0.02018  -0.01741  -0.01565  -0.01214  -0.00692
  Beta virt. eigenvalues --   -0.00283   0.00132   0.00369   0.00748   0.00806

 Mulliken charges and spin densities:
               1          2
     1  Na  -0.407567   0.683116
     2  Na   0.057298   0.079893
     3  Na   0.045441   0.017274
     4  Na   0.271713   0.032242
     5  Na   0.017112   0.219991
     6  Na   0.111602  -0.042269
     7  Na  -0.095600   0.009753
 Sum of Mulliken charges =  -0.00000   1.00000

 Dipole moment (field-independent basis, Debye):
    X=             -0.5051    Y=             -0.5105    Z=              0.0263  Tot=              0.7187
 Quadrupole moment (field-independent basis, Debye-Ang):
   XX=            -55.3947   YY=            -64.0456   ZZ=            -74.9989
   XY=              0.1399   XZ=             -0.7203   YZ=             -0.6083

 Normal termination of Gaussian 16 at Tue Dec  5 11:49:29 2023.
