 Gaussian 16, Revision B.01,
 Gaussian 16:  ES64L-G16RevB.01 20-Dec-2017

 -------------------------
 #P B3LYP/6-311+g(d) force
 -------------------------

 -----
 DPGEN
 -----
 Symbolic Z-matrix:
 Charge =  0 Multiplicity = 2

                         Standard orientation:
 ---------------------------------------------------------------------
 Center     Atomic      Atomic             Coordinates (Angstroms)
 Number     Number       Type             X           Y           Z
 ---------------------------------------------------------------------
      1         11           0       -0.204169   -0.879871    2.072179
      2         11           0        1.468746   -2.634419   -0.524114
      3         11           0        0.185377    0.125664   -1.569169
      4         11           0       -2.323554   -1.640379   -0.115804
      5         11           0        3.020890    0.489184    0.173990
      6         11           0       -2.607169    1.209859   -0.230229
      7         11           0        0.459879    3.329962    0.193147
 ---------------------------------------------------------------------

 SCF Done:  E(UB3LYP) =  -1136.13165033     A.U. after   20 cycles

 The electronic state is 2-A.
 Alpha  occ. eigenvalues --  -38.44187 -38.43792 -38.43759 -38.43701 -38.43697
 Alpha  occ. eigenvalues --  -38.43623 -38.43123  -2.20000  -2.19667  -2.19593
 Alpha  occ. eigenvalues --   -2.19570  -2.19567  -2.19554  -2.19118  -1.13690
 Alpha  occ. eigenvalues --   -1.13669  -1.13622  -1.13532  -1.13343  -1.13326
 Alpha  occ. eigenvalues --   -1.13289  -1.13258  -1.13242  -1.13233  -1.13225
 Alpha  occ. eigenvalues --   -1.13219  -1.13212  -1.13199  -1.13183  -1.13178
 Alpha  occ. eigenvalues --   -1.13156  -1.13121  -1.12799  -1.12758  -1.12738
 Alpha  occ. eigenvalues --   -0.18686  -0.13168  -0.12480  -0.10743
 Alpha virt. eigenvalues --   -0.05653  -0.05057  -0.04983  -0.03284  -0.02964
 Alpha virt. eigenvalues --   -0.02422  -0.01350  -0.01233  -0.00450  -0.00339
 Alpha virt. eigenvalues --   -0.00011   0.00352   0.00808   0.00859   0.00897

  Beta  occ. eigenvalues --  -38.44184 -38.43793 -38.43752 -38.43683 -38.43613
  Beta  occ. eigenvalues --  -38.43609 -38.43063  -2.19996  -2.19657  -2.19568
  Beta  occ. eigenvalues --   -2.19559  -2.19531  -2.19422  -2.19009  -1.13683
  Beta  occ. eigenvalues --   -1.13655  -1.13621  -1.13529  -1.13316  -1.13288
  Beta  occ. eigenvalues --   -1.13256  -1.13236  -1.13229  -1.13220  -1.13214
  Beta  occ. eigenvalues --   -1.13178  -1.13172  -1.13165  -1.13121  -1.13114
  Beta  occ. eigenvalues --   -1.13084  -1.13067  -1.12728  -1.12677  -1.12651
  Beta  occ. eigenvalues --   -0.17961  -0.12911  -0.12275
  Beta virt. eigenvalues --   -0.06834  -0.05640  -0.04994  -0.04877  -0.02474
  Beta virt. eigenvalues --   -0.02274  -0.01436  -0.01262  -0.01155  -0.00461
  Beta virt. eigenvalues --   -0.00378   0.00160   0.00398   0.00836   0.00890

 Mulliken charges and spin densities:
               1          2
     1  Na  -0.554180   0.691358
     2  Na   0.215175  -0.040163
     3  Na   0.079352   0.349740
     4  Na   0.600366   0.095895
     5  Na  -0.130427  -0.022289
     6  Na  -0.073965  -0.055147
     7  Na  -0.136321  -0.019394
 Sum of Mulliken charges =  -0.00000   1.00000

 Dipole moment (field-independent basis, Debye):
    X=              0.3973    Y=             -0.0369    Z=              0.2039  Tot=              0.4481
 Quadrupole moment (field-independent basis, Debye-Ang):
   XX=            -59.6473   YY=            -60.5345   ZZ=            -74.2071
   XY=             -0.5823   XZ=              1.0501   YZ=              2.1919

 Normal termination of Gaussian 16 at Tue Dec  5 16:16:26 2023.
