 Gaussian 16, Revision B.01,
 Gaussian 16:  ES64L-G16RevB.01 20-Dec-2017

 -------------------------
 #P B3LYP/6-311+g(d) force
 -------------------------

 -----
 DPGEN
 -----
 Symbolic Z-matrix:
 Charge =  0 Multiplicity = 2

                         Standard orientation:
 ---------------------------------------------------------------------
 Center     Atomic      Atomic             Coordinates (Angstroms)
 Number     Number       Type             X           Y           Z
 ---------------------------------------------------------------------
      1         11           0        1.074046    3.560778    0.526643
      2         11           0        4.280275    0.578348    0.628692
      3         11           0        3.293508   -2.297240   -0.872365
      4         11           0       -0.482596   -2.938604   -0.503133
      5         11           0       -2.661481   -1.828675    1.756636
      6         11           0       -3.770677   -0.024947   -0.680281
      7         11           0       -1.733074    2.950340   -0.856192
 ---------------------------------------------------------------------

 SCF Done:  E(UB3LYP) =  -1136.10588958     A.U. after   23 cycles

 The electronic state is 2-A.
 Alpha  occ. eigenvalues --  -38.45476 -38.44538 -38.44515 -38.44179 -38.44158
 Alpha  occ. eigenvalues --  -38.44055 -38.43979  -2.21274  -2.20292  -2.20288
 Alpha  occ. eigenvalues --   -2.20011  -2.19960  -2.19844  -2.19772  -1.14947
 Alpha  occ. eigenvalues --   -1.14939  -1.14932  -1.13979  -1.13976  -1.13955
 Alpha  occ. eigenvalues --   -1.13945  -1.13929  -1.13888  -1.13672  -1.13654
 Alpha  occ. eigenvalues --   -1.13633  -1.13627  -1.13612  -1.13569  -1.13556
 Alpha  occ. eigenvalues --   -1.13520  -1.13502  -1.13423  -1.13409  -1.13379
 Alpha  occ. eigenvalues --   -0.15882  -0.13620  -0.13145  -0.10246
 Alpha virt. eigenvalues --   -0.07759  -0.05263  -0.04403  -0.03623  -0.03256
 Alpha virt. eigenvalues --   -0.02401  -0.02064  -0.01432  -0.01214  -0.01004
 Alpha virt. eigenvalues --   -0.00939  -0.00055   0.00150   0.00323   0.00584

  Beta  occ. eigenvalues --  -38.45487 -38.44546 -38.44459 -38.44113 -38.44092
  Beta  occ. eigenvalues --  -38.44053 -38.43934  -2.21299  -2.20311  -2.20186
  Beta  occ. eigenvalues --   -2.19888  -2.19848  -2.19838  -2.19691  -1.14962
  Beta  occ. eigenvalues --   -1.14959  -1.14923  -1.13993  -1.13982  -1.13933
  Beta  occ. eigenvalues --   -1.13877  -1.13860  -1.13831  -1.13588  -1.13574
  Beta  occ. eigenvalues --   -1.13553  -1.13541  -1.13536  -1.13528  -1.13528
  Beta  occ. eigenvalues --   -1.13494  -1.13482  -1.13369  -1.13356  -1.13324
  Beta  occ. eigenvalues --   -0.15399  -0.13004  -0.12495
  Beta virt. eigenvalues --   -0.07635  -0.07126  -0.05109  -0.03921  -0.03411
  Beta virt. eigenvalues --   -0.02908  -0.02136  -0.01762  -0.01282  -0.01063
  Beta virt. eigenvalues --   -0.00748  -0.00608   0.00067   0.00197   0.00439

 Mulliken charges and spin densities:
               1          2
     1  Na   0.101294   0.196393
     2  Na  -0.214197   0.265400
     3  Na   0.264181  -0.040188
     4  Na  -0.597801   0.258996
     5  Na   0.396252   0.026517
     6  Na   0.251345   0.357869
     7  Na  -0.201072  -0.064988
 Sum of Mulliken charges =  -0.00000   1.00000

 Dipole moment (field-independent basis, Debye):
    X=             -0.5512    Y=             -0.7197    Z=              0.6714  Tot=              1.1281
 Quadrupole moment (field-independent basis, Debye-Ang):
   XX=            -68.1731   YY=            -72.8273   ZZ=            -63.1356
   XY=              4.4807   XZ=              0.0519   YZ=              1.6852

 Normal termination of Gaussian 16 at Sun Dec  3 12:02:39 2023.
