 Gaussian 16, Revision B.01,
 Gaussian 16:  ES64L-G16RevB.01 20-Dec-2017

 -------------------------
 #P B3LYP/6-311+g(d) force
 -------------------------

 -----
 DPGEN
 -----
 Symbolic Z-matrix:
 Charge =  0 Multiplicity = 2

                         Standard orientation:
 ---------------------------------------------------------------------
 Center     Atomic      Atomic             Coordinates (Angstroms)
 Number     Number       Type             X           Y           Z
 ---------------------------------------------------------------------
      1         11           0       -0.547320    1.639067    1.275949
      2         11           0        1.909110    3.190861   -0.710564
      3         11           0        3.282406    0.486943   -0.027428
      4         11           0        0.202313   -1.108228   -0.084900
      5         11           0       -3.217380   -1.214928    0.446482
      6         11           0        4.295315   -2.760704   -0.169345
      7         11           0       -5.924444   -0.233011   -0.730194
 ---------------------------------------------------------------------

 SCF Done:  E(UB3LYP) =  -1136.11799537     A.U. after   19 cycles

 The electronic state is 2-A.
 Alpha  occ. eigenvalues --  -38.44900 -38.44758 -38.44741 -38.43998 -38.43710
 Alpha  occ. eigenvalues --  -38.43600 -38.43451  -2.20727  -2.20607  -2.20583
 Alpha  occ. eigenvalues --   -2.19846  -2.19544  -2.19489  -2.19218  -1.14474
 Alpha  occ. eigenvalues --   -1.14406  -1.14319  -1.14284  -1.14267  -1.14234
 Alpha  occ. eigenvalues --   -1.14206  -1.14205  -1.14186  -1.13557  -1.13488
 Alpha  occ. eigenvalues --   -1.13451  -1.13235  -1.13222  -1.13190  -1.13177
 Alpha  occ. eigenvalues --   -1.13174  -1.13083  -1.12887  -1.12884  -1.12841
 Alpha  occ. eigenvalues --   -0.17184  -0.14303  -0.11781  -0.11652
 Alpha virt. eigenvalues --   -0.06158  -0.05346  -0.04712  -0.03693  -0.02740
 Alpha virt. eigenvalues --   -0.02547  -0.01849  -0.01681  -0.01246  -0.00837
 Alpha virt. eigenvalues --   -0.00440  -0.00053   0.00179   0.00477   0.00558

  Beta  occ. eigenvalues --  -38.44884 -38.44686 -38.44658 -38.43954 -38.43710
  Beta  occ. eigenvalues --  -38.43578 -38.43449  -2.20701  -2.20508  -2.20397
  Beta  occ. eigenvalues --   -2.19765  -2.19555  -2.19448  -2.19214  -1.14437
  Beta  occ. eigenvalues --   -1.14392  -1.14295  -1.14224  -1.14206  -1.14113
  Beta  occ. eigenvalues --   -1.14102  -1.14080  -1.14078  -1.13493  -1.13433
  Beta  occ. eigenvalues --   -1.13404  -1.13242  -1.13231  -1.13153  -1.13142
  Beta  occ. eigenvalues --   -1.13140  -1.13047  -1.12885  -1.12879  -1.12839
  Beta  occ. eigenvalues --   -0.16569  -0.13381  -0.11669
  Beta virt. eigenvalues --   -0.08120  -0.05923  -0.04938  -0.04429  -0.03425
  Beta virt. eigenvalues --   -0.02472  -0.02051  -0.01658  -0.01448  -0.01002
  Beta virt. eigenvalues --   -0.00449  -0.00244   0.00061   0.00303   0.00574

 Mulliken charges and spin densities:
               1          2
     1  Na   0.017127  -0.014923
     2  Na   0.361498   0.108700
     3  Na  -0.140063   0.260682
     4  Na  -0.983716   0.129602
     5  Na  -0.254681   0.050075
     6  Na   0.579139   0.015240
     7  Na   0.420696   0.450624
 Sum of Mulliken charges =  -0.00000   1.00000

 Dipole moment (field-independent basis, Debye):
    X=             -0.9163    Y=              0.9875    Z=              0.0118  Tot=              1.3472
 Quadrupole moment (field-independent basis, Debye-Ang):
   XX=            -65.1987   YY=            -64.8082   ZZ=            -69.0805
   XY=             -3.1535   XZ=              0.6430   YZ=             -0.4240

 Normal termination of Gaussian 16 at Tue Nov 28 21:38:39 2023.
