 Gaussian 16, Revision B.01,
 Gaussian 16:  ES64L-G16RevB.01 20-Dec-2017

 -------------------------
 #P B3LYP/6-311+g(d) force
 -------------------------

 -----
 DPGEN
 -----
 Symbolic Z-matrix:
 Charge =  0 Multiplicity = 2

                         Standard orientation:
 ---------------------------------------------------------------------
 Center     Atomic      Atomic             Coordinates (Angstroms)
 Number     Number       Type             X           Y           Z
 ---------------------------------------------------------------------
      1         11           0        0.697558   -1.429377    0.968786
      2         11           0        3.521602   -3.113834   -0.097500
      3         11           0        3.147121    0.429317   -0.536386
      4         11           0       -0.028341    1.443788   -0.974447
      5         11           0       -2.741684   -0.792486   -0.261167
      6         11           0        2.513756    3.439286    0.729036
      7         11           0       -7.110012    0.023306    0.171678
 ---------------------------------------------------------------------

 SCF Done:  E(UB3LYP) =  -1136.11904430     A.U. after   19 cycles

 The electronic state is 2-A.
 Alpha  occ. eigenvalues --  -38.45454 -38.44235 -38.44150 -38.44080 -38.43855
 Alpha  occ. eigenvalues --  -38.43458 -38.43382  -2.21232  -2.20081  -2.19994
 Alpha  occ. eigenvalues --   -2.19881  -2.19742  -2.19256  -2.19149  -1.14855
 Alpha  occ. eigenvalues --   -1.14854  -1.14832  -1.13811  -1.13776  -1.13707
 Alpha  occ. eigenvalues --   -1.13683  -1.13655  -1.13575  -1.13561  -1.13544
 Alpha  occ. eigenvalues --   -1.13506  -1.13459  -1.13438  -1.13295  -1.12923
 Alpha  occ. eigenvalues --   -1.12920  -1.12881  -1.12838  -1.12831  -1.12780
 Alpha  occ. eigenvalues --   -0.16936  -0.13264  -0.12273  -0.11540
 Alpha virt. eigenvalues --   -0.06055  -0.05514  -0.04864  -0.03443  -0.02511
 Alpha virt. eigenvalues --   -0.02360  -0.02059  -0.01836  -0.01374  -0.01158
 Alpha virt. eigenvalues --   -0.00442  -0.00284   0.00203   0.00454   0.00501

  Beta  occ. eigenvalues --  -38.45294 -38.44221 -38.44139 -38.44071 -38.43848
  Beta  occ. eigenvalues --  -38.43450 -38.43393  -2.20934  -2.20058  -2.19976
  Beta  occ. eigenvalues --   -2.19864  -2.19730  -2.19241  -2.19173  -1.14653
  Beta  occ. eigenvalues --   -1.14652  -1.14632  -1.13797  -1.13760  -1.13698
  Beta  occ. eigenvalues --   -1.13671  -1.13632  -1.13552  -1.13547  -1.13532
  Beta  occ. eigenvalues --   -1.13496  -1.13448  -1.13430  -1.13285  -1.12913
  Beta  occ. eigenvalues --   -1.12909  -1.12872  -1.12858  -1.12851  -1.12767
  Beta  occ. eigenvalues --   -0.16725  -0.12265  -0.12165
  Beta virt. eigenvalues --   -0.07554  -0.05939  -0.05253  -0.04576  -0.03306
  Beta virt. eigenvalues --   -0.02286  -0.02042  -0.01661  -0.01387  -0.00856
  Beta virt. eigenvalues --   -0.00519  -0.00369   0.00010   0.00332   0.00573

 Mulliken charges and spin densities:
               1          2
     1  Na  -0.521501  -0.050668
     2  Na   0.364911   0.017314
     3  Na  -0.034333   0.133518
     4  Na  -0.149308  -0.022399
     5  Na   0.087696   0.101901
     6  Na   0.156248   0.038617
     7  Na   0.096286   0.781716
 Sum of Mulliken charges =  -0.00000   1.00000

 Dipole moment (field-independent basis, Debye):
    X=              0.7127    Y=              0.5716    Z=              0.2333  Tot=              0.9429
 Quadrupole moment (field-independent basis, Debye-Ang):
   XX=            -66.3726   YY=            -63.6851   ZZ=            -68.1477
   XY=             -0.7481   XZ=             -0.2055   YZ=              1.9490

 Normal termination of Gaussian 16 at Tue Nov 28 21:02:54 2023.
