 Gaussian 16, Revision B.01,
 Gaussian 16:  ES64L-G16RevB.01 20-Dec-2017

 -------------------------
 #P B3LYP/6-311+g(d) force
 -------------------------

 -----
 DPGEN
 -----
 Symbolic Z-matrix:
 Charge =  0 Multiplicity = 2

                         Standard orientation:
 ---------------------------------------------------------------------
 Center     Atomic      Atomic             Coordinates (Angstroms)
 Number     Number       Type             X           Y           Z
 ---------------------------------------------------------------------
      1         11           0       -1.237851    3.248998   -0.634434
      2         11           0        1.400251   -2.001487   -0.974223
      3         11           0       -3.752321   -0.495546    0.240861
      4         11           0       -1.398802   -2.722698   -0.230434
      5         11           0        1.443588    1.394783   -1.005073
      6         11           0       -0.940789    0.634041    1.670814
      7         11           0        4.485924   -0.058091    0.932489
 ---------------------------------------------------------------------

 SCF Done:  E(UB3LYP) =  -1136.12059411     A.U. after   20 cycles

 The electronic state is 2-A.
 Alpha  occ. eigenvalues --  -38.45383 -38.44190 -38.44181 -38.43918 -38.43725
 Alpha  occ. eigenvalues --  -38.43515 -38.43400  -2.21202  -2.20020  -2.19967
 Alpha  occ. eigenvalues --   -2.19733  -2.19575  -2.19396  -2.19269  -1.14883
 Alpha  occ. eigenvalues --   -1.14871  -1.14822  -1.13683  -1.13670  -1.13656
 Alpha  occ. eigenvalues --   -1.13615  -1.13612  -1.13562  -1.13415  -1.13393
 Alpha  occ. eigenvalues --   -1.13370  -1.13272  -1.13260  -1.13183  -1.13172
 Alpha  occ. eigenvalues --   -1.13057  -1.13024  -1.12929  -1.12909  -1.12852
 Alpha  occ. eigenvalues --   -0.17346  -0.13444  -0.12829  -0.10488
 Alpha virt. eigenvalues --   -0.06567  -0.05421  -0.04802  -0.03481  -0.02726
 Alpha virt. eigenvalues --   -0.02561  -0.01550  -0.01413  -0.00963  -0.00582
 Alpha virt. eigenvalues --   -0.00257  -0.00110   0.00344   0.00528   0.00641

  Beta  occ. eigenvalues --  -38.45376 -38.44160 -38.44074 -38.43909 -38.43717
  Beta  occ. eigenvalues --  -38.43498 -38.43368  -2.21190  -2.19964  -2.19767
  Beta  occ. eigenvalues --   -2.19718  -2.19562  -2.19368  -2.19215  -1.14873
  Beta  occ. eigenvalues --   -1.14863  -1.14812  -1.13646  -1.13628  -1.13619
  Beta  occ. eigenvalues --   -1.13478  -1.13475  -1.13431  -1.13396  -1.13384
  Beta  occ. eigenvalues --   -1.13361  -1.13266  -1.13245  -1.13156  -1.13133
  Beta  occ. eigenvalues --   -1.13042  -1.13000  -1.12894  -1.12878  -1.12796
  Beta  occ. eigenvalues --   -0.17040  -0.12814  -0.12383
  Beta virt. eigenvalues --   -0.07070  -0.06343  -0.05048  -0.04645  -0.03107
  Beta virt. eigenvalues --   -0.02511  -0.02179  -0.01187  -0.01128  -0.00675
  Beta virt. eigenvalues --   -0.00427  -0.00122   0.00152   0.00507   0.00700

 Mulliken charges and spin densities:
               1          2
     1  Na   0.080108  -0.046826
     2  Na   0.117147   0.027283
     3  Na   0.211383   0.172589
     4  Na  -0.171941   0.028546
     5  Na  -0.166619   0.126790
     6  Na  -0.072608   0.116482
     7  Na   0.002530   0.575136
 Sum of Mulliken charges =  -0.00000   1.00000

 Dipole moment (field-independent basis, Debye):
    X=             -1.3831    Y=              0.6775    Z=              0.0020  Tot=              1.5401
 Quadrupole moment (field-independent basis, Debye-Ang):
   XX=            -66.5008   YY=            -68.2833   ZZ=            -67.5938
   XY=             -2.5580   XZ=              2.7157   YZ=             -1.5795

 Normal termination of Gaussian 16 at Sun Dec  3 14:29:57 2023.
