 Gaussian 16, Revision B.01,
 Gaussian 16:  ES64L-G16RevB.01 20-Dec-2017

 -------------------------
 #P B3LYP/6-311+g(d) force
 -------------------------

 -----
 DPGEN
 -----
 Symbolic Z-matrix:
 Charge =  0 Multiplicity = 2

                         Standard orientation:
 ---------------------------------------------------------------------
 Center     Atomic      Atomic             Coordinates (Angstroms)
 Number     Number       Type             X           Y           Z
 ---------------------------------------------------------------------
      1         11           0        3.536058    1.988600    0.234589
      2         11           0        3.443179   -1.836220    0.229729
      3         11           0        1.131683   -3.927376    0.081544
      4         11           0       -2.138148   -2.152457   -0.840894
      5         11           0       -4.614503    0.069478    0.887297
      6         11           0       -2.177490    1.783779   -0.356683
      7         11           0        0.819221    4.074196   -0.235582
 ---------------------------------------------------------------------

 SCF Done:  E(UB3LYP) =  -1136.11279149     A.U. after   22 cycles

 The electronic state is 2-A.
 Alpha  occ. eigenvalues --  -38.45767 -38.45278 -38.44624 -38.44508 -38.44038
 Alpha  occ. eigenvalues --  -38.43845 -38.43444  -2.21520  -2.21068  -2.20379
 Alpha  occ. eigenvalues --   -2.20335  -2.19838  -2.19645  -2.19237  -1.15219
 Alpha  occ. eigenvalues --   -1.15201  -1.15105  -1.14773  -1.14753  -1.14677
 Alpha  occ. eigenvalues --   -1.14067  -1.14053  -1.14005  -1.14001  -1.13981
 Alpha  occ. eigenvalues --   -1.13940  -1.13532  -1.13509  -1.13489  -1.13311
 Alpha  occ. eigenvalues --   -1.13296  -1.13273  -1.12901  -1.12887  -1.12876
 Alpha  occ. eigenvalues --   -0.15909  -0.13871  -0.13200  -0.10510
 Alpha virt. eigenvalues --   -0.07406  -0.05892  -0.03939  -0.03575  -0.02859
 Alpha virt. eigenvalues --   -0.02789  -0.02135  -0.02065  -0.01656  -0.00699
 Alpha virt. eigenvalues --   -0.00230   0.00006   0.00100   0.00367   0.00581

  Beta  occ. eigenvalues --  -38.45731 -38.45258 -38.44613 -38.44456 -38.44014
  Beta  occ. eigenvalues --  -38.43845 -38.43411  -2.21455  -2.21037  -2.20361
  Beta  occ. eigenvalues --   -2.20237  -2.19793  -2.19645  -2.19175  -1.15178
  Beta  occ. eigenvalues --   -1.15160  -1.15039  -1.14751  -1.14736  -1.14624
  Beta  occ. eigenvalues --   -1.14057  -1.14042  -1.13973  -1.13931  -1.13913
  Beta  occ. eigenvalues --   -1.13879  -1.13510  -1.13478  -1.13456  -1.13312
  Beta  occ. eigenvalues --   -1.13294  -1.13258  -1.12859  -1.12846  -1.12834
  Beta  occ. eigenvalues --   -0.15427  -0.13501  -0.12819
  Beta virt. eigenvalues --   -0.07221  -0.07097  -0.05391  -0.03698  -0.03214
  Beta virt. eigenvalues --   -0.02686  -0.02301  -0.01960  -0.01862  -0.01526
  Beta virt. eigenvalues --   -0.00423  -0.00039   0.00239   0.00357   0.00409

 Mulliken charges and spin densities:
               1          2
     1  Na   0.051908   0.098760
     2  Na  -0.155054   0.057250
     3  Na   0.091398   0.086599
     4  Na  -0.232028   0.173903
     5  Na   0.925818   0.272269
     6  Na  -0.686530   0.228657
     7  Na   0.004487   0.082563
 Sum of Mulliken charges =  -0.00000   1.00000

 Dipole moment (field-independent basis, Debye):
    X=             -1.9158    Y=             -0.3463    Z=              0.0936  Tot=              1.9491
 Quadrupole moment (field-independent basis, Debye-Ang):
   XX=            -61.1279   YY=            -66.3279   ZZ=            -71.9846
   XY=              2.5101   XZ=             -0.9413   YZ=             -0.0076

 Normal termination of Gaussian 16 at Sun Dec  3 18:09:23 2023.
