 Gaussian 16, Revision B.01,
 Gaussian 16:  ES64L-G16RevB.01 20-Dec-2017

 -------------------------
 #P B3LYP/6-311+g(d) force
 -------------------------

 -----
 DPGEN
 -----
 Symbolic Z-matrix:
 Charge =  0 Multiplicity = 2

                         Standard orientation:
 ---------------------------------------------------------------------
 Center     Atomic      Atomic             Coordinates (Angstroms)
 Number     Number       Type             X           Y           Z
 ---------------------------------------------------------------------
      1         11           0       -3.158796   -0.172036   -0.038938
      2         11           0        0.185137   -0.402253    2.396557
      3         11           0       -0.938153    2.597831    0.010262
      4         11           0        2.284508    1.907287   -0.039241
      5         11           0       -0.121798    0.223208   -1.657865
      6         11           0        2.600131   -1.708708   -0.359355
      7         11           0       -0.851028   -2.445329   -0.311420
 ---------------------------------------------------------------------

 SCF Done:  E(UB3LYP) =  -1136.13567778     A.U. after   18 cycles

 The electronic state is 2-A.
 Alpha  occ. eigenvalues --  -38.44299 -38.43794 -38.43667 -38.43581 -38.43400
 Alpha  occ. eigenvalues --  -38.43216 -38.43184  -2.20133  -2.19642  -2.19487
 Alpha  occ. eigenvalues --   -2.19433  -2.19428  -2.19111  -2.19101  -1.13779
 Alpha  occ. eigenvalues --   -1.13762  -1.13750  -1.13325  -1.13298  -1.13295
 Alpha  occ. eigenvalues --   -1.13188  -1.13169  -1.13147  -1.13140  -1.13122
 Alpha  occ. eigenvalues --   -1.13106  -1.13097  -1.13064  -1.13014  -1.12801
 Alpha  occ. eigenvalues --   -1.12774  -1.12758  -1.12756  -1.12719  -1.12705
 Alpha  occ. eigenvalues --   -0.18761  -0.12863  -0.12510  -0.11256
 Alpha virt. eigenvalues --   -0.05395  -0.05111  -0.04419  -0.03319  -0.03194
 Alpha virt. eigenvalues --   -0.02937  -0.01431  -0.00972  -0.00115  -0.00087
 Alpha virt. eigenvalues --   -0.00059   0.00352   0.00779   0.00923   0.00943

  Beta  occ. eigenvalues --  -38.44189 -38.43793 -38.43663 -38.43579 -38.43342
  Beta  occ. eigenvalues --  -38.43212 -38.43173  -2.19928  -2.19643  -2.19482
  Beta  occ. eigenvalues --   -2.19431  -2.19323  -2.19106  -2.19086  -1.13643
  Beta  occ. eigenvalues --   -1.13617  -1.13607  -1.13325  -1.13298  -1.13282
  Beta  occ. eigenvalues --   -1.13156  -1.13148  -1.13138  -1.13130  -1.13082
  Beta  occ. eigenvalues --   -1.13072  -1.13063  -1.13061  -1.12946  -1.12782
  Beta  occ. eigenvalues --   -1.12760  -1.12734  -1.12720  -1.12714  -1.12701
  Beta  occ. eigenvalues --   -0.18027  -0.12670  -0.12284
  Beta virt. eigenvalues --   -0.07218  -0.05337  -0.05132  -0.04356  -0.02464
  Beta virt. eigenvalues --   -0.02367  -0.01915  -0.01352  -0.00917  -0.00161
  Beta virt. eigenvalues --   -0.00109   0.00097   0.00380   0.00867   0.00910

 Mulliken charges and spin densities:
               1          2
     1  Na   0.188625   0.028013
     2  Na  -0.823375   0.702973
     3  Na   0.254290   0.080806
     4  Na   0.141227   0.015991
     5  Na  -0.282175   0.139893
     6  Na   0.173448  -0.021250
     7  Na   0.347961   0.053574
 Sum of Mulliken charges =  -0.00000   1.00000

 Dipole moment (field-independent basis, Debye):
    X=              0.0737    Y=             -0.0212    Z=              0.3442  Tot=              0.3527
 Quadrupole moment (field-independent basis, Debye-Ang):
   XX=            -57.4352   YY=            -66.0604   ZZ=            -71.4841
   XY=             -0.3967   XZ=             -0.7051   YZ=              1.1350

 Normal termination of Gaussian 16 at Thu Dec  7 22:45:57 2023.
