 Gaussian 16, Revision B.01,
 Gaussian 16:  ES64L-G16RevB.01 20-Dec-2017

 -------------------------
 #P B3LYP/6-311+g(d) force
 -------------------------

 -----
 DPGEN
 -----
 Symbolic Z-matrix:
 Charge =  0 Multiplicity = 2

                         Standard orientation:
 ---------------------------------------------------------------------
 Center     Atomic      Atomic             Coordinates (Angstroms)
 Number     Number       Type             X           Y           Z
 ---------------------------------------------------------------------
      1         11           0        0.411059   -2.111189   -0.479563
      2         11           0        3.664019   -2.839631   -0.044238
      3         11           0        3.243967    0.483155    0.406142
      4         11           0        1.646599    3.828074   -0.450151
      5         11           0       -0.125597    0.988006    1.072835
      6         11           0       -2.680022    0.396406   -0.917617
      7         11           0       -6.160025   -0.744820    0.412590
 ---------------------------------------------------------------------

 SCF Done:  E(UB3LYP) =  -1136.11916578     A.U. after   20 cycles

 The electronic state is 2-A.
 Alpha  occ. eigenvalues --  -38.44730 -38.44364 -38.44190 -38.44156 -38.44133
 Alpha  occ. eigenvalues --  -38.43916 -38.43781  -2.20509  -2.20183  -2.20016
 Alpha  occ. eigenvalues --   -2.20002  -2.19915  -2.19736  -2.19561  -1.14143
 Alpha  occ. eigenvalues --   -1.14142  -1.14109  -1.13884  -1.13871  -1.13779
 Alpha  occ. eigenvalues --   -1.13744  -1.13711  -1.13693  -1.13676  -1.13611
 Alpha  occ. eigenvalues --   -1.13594  -1.13589  -1.13573  -1.13528  -1.13394
 Alpha  occ. eigenvalues --   -1.13394  -1.13365  -1.13257  -1.13225  -1.13204
 Alpha  occ. eigenvalues --   -0.16856  -0.13458  -0.12359  -0.11038
 Alpha virt. eigenvalues --   -0.06211  -0.05648  -0.04981  -0.03508  -0.02624
 Alpha virt. eigenvalues --   -0.02348  -0.02110  -0.01361  -0.01274  -0.00957
 Alpha virt. eigenvalues --   -0.00510  -0.00130   0.00149   0.00369   0.00525

  Beta  occ. eigenvalues --  -38.44597 -38.44340 -38.44172 -38.44146 -38.44112
  Beta  occ. eigenvalues --  -38.43904 -38.43794  -2.20261  -2.20139  -2.19983
  Beta  occ. eigenvalues --   -2.19965  -2.19898  -2.19715  -2.19592  -1.13974
  Beta  occ. eigenvalues --   -1.13973  -1.13944  -1.13853  -1.13841  -1.13742
  Beta  occ. eigenvalues --   -1.13723  -1.13691  -1.13671  -1.13647  -1.13583
  Beta  occ. eigenvalues --   -1.13578  -1.13571  -1.13549  -1.13516  -1.13379
  Beta  occ. eigenvalues --   -1.13373  -1.13353  -1.13283  -1.13251  -1.13185
  Beta  occ. eigenvalues --   -0.16476  -0.12868  -0.11941
  Beta virt. eigenvalues --   -0.07441  -0.06100  -0.05137  -0.04790  -0.03216
  Beta virt. eigenvalues --   -0.02369  -0.02250  -0.01732  -0.01195  -0.00774
  Beta virt. eigenvalues --   -0.00503  -0.00336   0.00094   0.00334   0.00514

 Mulliken charges and spin densities:
               1          2
     1  Na  -0.275385   0.060553
     2  Na   0.450648   0.066921
     3  Na  -0.191543   0.198059
     4  Na   0.210331   0.043209
     5  Na  -0.313923   0.067635
     6  Na   0.154273  -0.126357
     7  Na  -0.034401   0.689980
 Sum of Mulliken charges =  -0.00000   1.00000

 Dipole moment (field-independent basis, Debye):
    X=              1.0269    Y=             -0.1706    Z=             -0.2382  Tot=              1.0679
 Quadrupole moment (field-independent basis, Debye-Ang):
   XX=            -70.2590   YY=            -62.0884   ZZ=            -68.5543
   XY=             -3.3648   XZ=             -1.0483   YZ=             -2.6763

 Normal termination of Gaussian 16 at Wed Nov 29 01:10:46 2023.
