 Gaussian 16, Revision B.01,
 Gaussian 16:  ES64L-G16RevB.01 20-Dec-2017

 -------------------------
 #P B3LYP/6-311+g(d) force
 -------------------------

 -----
 DPGEN
 -----
 Symbolic Z-matrix:
 Charge =  0 Multiplicity = 2

                         Standard orientation:
 ---------------------------------------------------------------------
 Center     Atomic      Atomic             Coordinates (Angstroms)
 Number     Number       Type             X           Y           Z
 ---------------------------------------------------------------------
      1         11           0       -0.208198   -0.014420   -0.999930
      2         11           0       -2.918944    0.362394   -1.391490
      3         11           0        2.548571   -1.832844   -1.274648
      4         11           0       -2.311304   -1.827957    1.053082
      5         11           0        2.250051    2.522158   -0.077251
      6         11           0       -1.106079    1.947571    1.090615
      7         11           0        1.745903   -1.156902    1.599622
 ---------------------------------------------------------------------

 SCF Done:  E(UB3LYP) =  -1136.11977702     A.U. after   21 cycles

 The electronic state is 2-A.
 Alpha  occ. eigenvalues --  -38.44219 -38.44169 -38.43996 -38.43799 -38.43708
 Alpha  occ. eigenvalues --  -38.43565 -38.43069  -2.20158  -2.19998  -2.19854
 Alpha  occ. eigenvalues --   -2.19572  -2.19564  -2.19450  -2.19187  -1.13985
 Alpha  occ. eigenvalues --   -1.13766  -1.13762  -1.13658  -1.13653  -1.13616
 Alpha  occ. eigenvalues --   -1.13569  -1.13523  -1.13475  -1.13254  -1.13246
 Alpha  occ. eigenvalues --   -1.13229  -1.13222  -1.13208  -1.13197  -1.13183
 Alpha  occ. eigenvalues --   -1.13103  -1.13031  -1.12865  -1.12832  -1.12762
 Alpha  occ. eigenvalues --   -0.18466  -0.13643  -0.11583  -0.10822
 Alpha virt. eigenvalues --   -0.05721  -0.05285  -0.04921  -0.03292  -0.02624
 Alpha virt. eigenvalues --   -0.02292  -0.01736  -0.01160  -0.00655   0.00149
 Alpha virt. eigenvalues --    0.00226   0.00285   0.00485   0.00608   0.00679

  Beta  occ. eigenvalues --  -38.44179 -38.44134 -38.43972 -38.43804 -38.43685
  Beta  occ. eigenvalues --  -38.43545 -38.43026  -2.20086  -2.19934  -2.19812
  Beta  occ. eigenvalues --   -2.19583  -2.19520  -2.19416  -2.19116  -1.13928
  Beta  occ. eigenvalues --   -1.13714  -1.13711  -1.13616  -1.13597  -1.13567
  Beta  occ. eigenvalues --   -1.13539  -1.13483  -1.13445  -1.13255  -1.13234
  Beta  occ. eigenvalues --   -1.13227  -1.13207  -1.13188  -1.13170  -1.13153
  Beta  occ. eigenvalues --   -1.13056  -1.13011  -1.12785  -1.12768  -1.12721
  Beta  occ. eigenvalues --   -0.17761  -0.13447  -0.11403
  Beta virt. eigenvalues --   -0.07058  -0.05635  -0.05105  -0.04206  -0.03089
  Beta virt. eigenvalues --   -0.02114  -0.01793  -0.01395  -0.01039  -0.00274
  Beta virt. eigenvalues --    0.00207   0.00298   0.00392   0.00523   0.00743

 Mulliken charges and spin densities:
               1          2
     1  Na  -0.990096   0.173674
     2  Na   1.105053  -0.126516
     3  Na   0.196469   0.086287
     4  Na  -0.285536   0.328993
     5  Na  -0.073930  -0.019262
     6  Na  -0.043531   0.358640
     7  Na   0.091571   0.198184
 Sum of Mulliken charges =  -0.00000   1.00000

 Dipole moment (field-independent basis, Debye):
    X=             -0.1173    Y=             -0.0721    Z=              0.3027  Tot=              0.3326
 Quadrupole moment (field-independent basis, Debye-Ang):
   XX=            -54.2711   YY=            -70.3001   ZZ=            -67.9805
   XY=              0.8951   XZ=             -0.9527   YZ=             -0.7684

 Normal termination of Gaussian 16 at Tue Dec  5 13:27:54 2023.
