 Gaussian 16, Revision B.01,
 Gaussian 16:  ES64L-G16RevB.01 20-Dec-2017

 -------------------------
 #P B3LYP/6-311+g(d) force
 -------------------------

 -----
 DPGEN
 -----
 Symbolic Z-matrix:
 Charge =  0 Multiplicity = 2

                         Standard orientation:
 ---------------------------------------------------------------------
 Center     Atomic      Atomic             Coordinates (Angstroms)
 Number     Number       Type             X           Y           Z
 ---------------------------------------------------------------------
      1         11           0        0.560940   -0.466498   -1.656997
      2         11           0        0.349105    2.911563   -0.533927
      3         11           0        1.700951    0.211846    1.627162
      4         11           0       -2.794979    1.313498    0.258860
      5         11           0        4.030011   -0.974909   -0.471490
      6         11           0       -0.866519   -1.154824    1.554685
      7         11           0       -2.979509   -1.840676   -0.778293
 ---------------------------------------------------------------------

 SCF Done:  E(UB3LYP) =  -1136.11969774     A.U. after   24 cycles

 The electronic state is 2-A.
 Alpha  occ. eigenvalues --  -38.44924 -38.44748 -38.44747 -38.43857 -38.43835
 Alpha  occ. eigenvalues --  -38.43655 -38.42409  -2.20701  -2.20590  -2.20575
 Alpha  occ. eigenvalues --   -2.19831  -2.19771  -2.19512  -2.18221  -1.14378
 Alpha  occ. eigenvalues --   -1.14358  -1.14334  -1.14298  -1.14277  -1.14245
 Alpha  occ. eigenvalues --   -1.14234  -1.14194  -1.14187  -1.13708  -1.13472
 Alpha  occ. eigenvalues --   -1.13451  -1.13390  -1.13358  -1.13349  -1.13172
 Alpha  occ. eigenvalues --   -1.13159  -1.13150  -1.11899  -1.11880  -1.11859
 Alpha  occ. eigenvalues --   -0.18371  -0.13795  -0.11358  -0.11202
 Alpha virt. eigenvalues --   -0.07055  -0.05090  -0.04126  -0.03428  -0.02918
 Alpha virt. eigenvalues --   -0.02546  -0.02341  -0.01177  -0.00551  -0.00339
 Alpha virt. eigenvalues --    0.00088   0.00236   0.00311   0.00699   0.00767

  Beta  occ. eigenvalues --  -38.44915 -38.44748 -38.44698 -38.43784 -38.43772
  Beta  occ. eigenvalues --  -38.43643 -38.42405  -2.20685  -2.20576  -2.20501
  Beta  occ. eigenvalues --   -2.19702  -2.19660  -2.19489  -2.18215  -1.14365
  Beta  occ. eigenvalues --   -1.14344  -1.14321  -1.14265  -1.14244  -1.14232
  Beta  occ. eigenvalues --   -1.14192  -1.14169  -1.14128  -1.13600  -1.13377
  Beta  occ. eigenvalues --   -1.13366  -1.13317  -1.13283  -1.13247  -1.13155
  Beta  occ. eigenvalues --   -1.13135  -1.13126  -1.11887  -1.11876  -1.11856
  Beta  occ. eigenvalues --   -0.17636  -0.13627  -0.11096
  Beta virt. eigenvalues --   -0.07302  -0.06858  -0.04886  -0.03737  -0.03204
  Beta virt. eigenvalues --   -0.02540  -0.01915  -0.01736  -0.00969  -0.00392
  Beta virt. eigenvalues --   -0.00227   0.00117   0.00322   0.00466   0.00734

 Mulliken charges and spin densities:
               1          2
     1  Na  -0.687378   0.520838
     2  Na  -0.045864  -0.050791
     3  Na   0.164420   0.065526
     4  Na  -0.339398   0.090072
     5  Na   0.143697   0.023429
     6  Na  -0.076954   0.235509
     7  Na   0.841476   0.115415
 Sum of Mulliken charges =  -0.00000   1.00000

 Dipole moment (field-independent basis, Debye):
    X=              0.2000    Y=             -0.2986    Z=             -0.4214  Tot=              0.5539
 Quadrupole moment (field-independent basis, Debye-Ang):
   XX=            -49.9251   YY=            -74.0620   ZZ=            -70.4714
   XY=             -0.3476   XZ=             -0.0626   YZ=              2.9000

 Normal termination of Gaussian 16 at Thu Dec  7 14:34:14 2023.
