 Gaussian 16, Revision B.01,
 Gaussian 16:  ES64L-G16RevB.01 20-Dec-2017

 -------------------------
 #P B3LYP/6-311+g(d) force
 -------------------------

 -----
 DPGEN
 -----
 Symbolic Z-matrix:
 Charge =  0 Multiplicity = 2

                         Standard orientation:
 ---------------------------------------------------------------------
 Center     Atomic      Atomic             Coordinates (Angstroms)
 Number     Number       Type             X           Y           Z
 ---------------------------------------------------------------------
      1         11           0        3.951884   -0.110821   -0.403236
      2         11           0        1.103066   -1.024772    1.667481
      3         11           0        0.942140    2.445244    0.277747
      4         11           0       -2.200934   -2.414341   -0.638007
      5         11           0       -1.838523   -0.008911    1.748292
      6         11           0       -2.832072    1.899194   -0.977157
      7         11           0        0.874440   -0.785593   -1.675121
 ---------------------------------------------------------------------

 SCF Done:  E(UB3LYP) =  -1136.12522589     A.U. after   22 cycles

 The electronic state is 2-A.
 Alpha  occ. eigenvalues --  -38.44971 -38.44198 -38.43993 -38.43931 -38.43766
 Alpha  occ. eigenvalues --  -38.43749 -38.43443  -2.20764  -2.20057  -2.19840
 Alpha  occ. eigenvalues --   -2.19764  -2.19647  -2.19540  -2.19241  -1.14442
 Alpha  occ. eigenvalues --   -1.14420  -1.14392  -1.13759  -1.13712  -1.13662
 Alpha  occ. eigenvalues --   -1.13580  -1.13484  -1.13446  -1.13440  -1.13418
 Alpha  occ. eigenvalues --   -1.13389  -1.13323  -1.13289  -1.13247  -1.13237
 Alpha  occ. eigenvalues --   -1.13229  -1.13142  -1.12913  -1.12897  -1.12878
 Alpha  occ. eigenvalues --   -0.18013  -0.13481  -0.11300  -0.11202
 Alpha virt. eigenvalues --   -0.06477  -0.05284  -0.04630  -0.03269  -0.02713
 Alpha virt. eigenvalues --   -0.02669  -0.02262  -0.00982  -0.00850  -0.00179
 Alpha virt. eigenvalues --    0.00099   0.00212   0.00347   0.00550   0.00728

  Beta  occ. eigenvalues --  -38.44967 -38.44154 -38.43968 -38.43860 -38.43766
  Beta  occ. eigenvalues --  -38.43705 -38.43433  -2.20758  -2.19977  -2.19717
  Beta  occ. eigenvalues --   -2.19713  -2.19571  -2.19542  -2.19223  -1.14427
  Beta  occ. eigenvalues --   -1.14418  -1.14389  -1.13703  -1.13657  -1.13599
  Beta  occ. eigenvalues --   -1.13486  -1.13412  -1.13384  -1.13381  -1.13358
  Beta  occ. eigenvalues --   -1.13356  -1.13257  -1.13240  -1.13226  -1.13213
  Beta  occ. eigenvalues --   -1.13189  -1.13147  -1.12893  -1.12884  -1.12864
  Beta  occ. eigenvalues --   -0.17289  -0.13277  -0.11021
  Beta virt. eigenvalues --   -0.07394  -0.06310  -0.05200  -0.04068  -0.03027
  Beta virt. eigenvalues --   -0.02244  -0.02105  -0.01789  -0.00910  -0.00506
  Beta virt. eigenvalues --   -0.00074   0.00154   0.00250   0.00476   0.00630

 Mulliken charges and spin densities:
               1          2
     1  Na   0.623992   0.063599
     2  Na  -0.013151   0.239690
     3  Na  -0.486140  -0.032451
     4  Na  -0.104909   0.099214
     5  Na   0.405286   0.103999
     6  Na  -0.081488   0.099332
     7  Na  -0.343591   0.426617
 Sum of Mulliken charges =  -0.00000   1.00000

 Dipole moment (field-independent basis, Debye):
    X=              1.1852    Y=             -0.0940    Z=             -0.2858  Tot=              1.2228
 Quadrupole moment (field-independent basis, Debye-Ang):
   XX=            -49.6959   YY=            -74.9462   ZZ=            -69.2214
   XY=              1.4768   XZ=              1.1334   YZ=             -0.6788

 Normal termination of Gaussian 16 at Fri Dec  8 04:20:23 2023.
