 Gaussian 16, Revision B.01,
 Gaussian 16:  ES64L-G16RevB.01 20-Dec-2017

 -------------------------
 #P B3LYP/6-311+g(d) force
 -------------------------

 -----
 DPGEN
 -----
 Symbolic Z-matrix:
 Charge =  0 Multiplicity = 2

                         Standard orientation:
 ---------------------------------------------------------------------
 Center     Atomic      Atomic             Coordinates (Angstroms)
 Number     Number       Type             X           Y           Z
 ---------------------------------------------------------------------
      1         11           0        4.443946    0.085202    0.569122
      2         11           0        1.766088   -1.538862   -0.983687
      3         11           0       -1.239151   -0.487530   -1.685200
      4         11           0        1.417453    1.600755   -0.296448
      5         11           0       -2.043188    1.907277   -0.005385
      6         11           0       -0.379065   -0.794888    1.966551
      7         11           0       -3.966082   -0.771952    0.435048
 ---------------------------------------------------------------------

 SCF Done:  E(UB3LYP) =  -1136.11363563     A.U. after   38 cycles

 The electronic state is 2-A.
 Alpha  occ. eigenvalues --  -38.44813 -38.44570 -38.44192 -38.44149 -38.43872
 Alpha  occ. eigenvalues --  -38.43783 -38.43310  -2.20649  -2.20342  -2.20063
 Alpha  occ. eigenvalues --   -2.19976  -2.19803  -2.19758  -2.19214  -1.14310
 Alpha  occ. eigenvalues --   -1.14286  -1.14254  -1.14021  -1.14016  -1.13995
 Alpha  occ. eigenvalues --   -1.13755  -1.13721  -1.13689  -1.13681  -1.13675
 Alpha  occ. eigenvalues --   -1.13643  -1.13588  -1.13454  -1.13413  -1.13387
 Alpha  occ. eigenvalues --   -1.13356  -1.13339  -1.12918  -1.12904  -1.12805
 Alpha  occ. eigenvalues --   -0.18805  -0.14191  -0.11415  -0.11120
 Alpha virt. eigenvalues --   -0.07599  -0.04849  -0.04418  -0.03351  -0.03147
 Alpha virt. eigenvalues --   -0.02569  -0.02297  -0.01300  -0.01104  -0.00245
 Alpha virt. eigenvalues --   -0.00123   0.00238   0.00295   0.00653   0.00733

  Beta  occ. eigenvalues --  -38.44707 -38.44601 -38.44265 -38.44085 -38.43836
  Beta  occ. eigenvalues --  -38.43706 -38.43306  -2.20455  -2.20401  -2.20117
  Beta  occ. eigenvalues --   -2.19951  -2.19731  -2.19621  -2.19205  -1.14170
  Beta  occ. eigenvalues --   -1.14151  -1.14117  -1.14059  -1.14054  -1.14032
  Beta  occ. eigenvalues --   -1.13771  -1.13766  -1.13724  -1.13691  -1.13624
  Beta  occ. eigenvalues --   -1.13579  -1.13518  -1.13402  -1.13362  -1.13314
  Beta  occ. eigenvalues --   -1.13276  -1.13239  -1.12902  -1.12885  -1.12820
  Beta  occ. eigenvalues --   -0.18007  -0.14390  -0.10805
  Beta virt. eigenvalues --   -0.07551  -0.07051  -0.04682  -0.04329  -0.03000
  Beta virt. eigenvalues --   -0.02605  -0.01667  -0.01526  -0.01243  -0.00822
  Beta virt. eigenvalues --   -0.00279  -0.00139   0.00267   0.00397   0.00734

 Mulliken charges and spin densities:
               1          2
     1  Na   0.587867  -0.266893
     2  Na   0.279897   0.034867
     3  Na  -0.205449   0.380745
     4  Na  -0.683951   0.138758
     5  Na   0.071165   0.450155
     6  Na  -0.520199   0.693130
     7  Na   0.470670  -0.430763
 Sum of Mulliken charges =  -0.00000   1.00000

 Dipole moment (field-independent basis, Debye):
    X=              0.3391    Y=              0.1678    Z=              0.4453  Tot=              0.5844
 Quadrupole moment (field-independent basis, Debye-Ang):
   XX=            -57.9725   YY=            -70.7228   ZZ=            -71.1459
   XY=             -0.7978   XZ=              1.4082   YZ=              2.3613

 Normal termination of Gaussian 16 at Thu Dec  7 17:34:44 2023.
