 Gaussian 16, Revision B.01,
 Gaussian 16:  ES64L-G16RevB.01 20-Dec-2017

 -------------------------
 #P B3LYP/6-311+g(d) force
 -------------------------

 -----
 DPGEN
 -----
 Symbolic Z-matrix:
 Charge =  0 Multiplicity = 2

                         Standard orientation:
 ---------------------------------------------------------------------
 Center     Atomic      Atomic             Coordinates (Angstroms)
 Number     Number       Type             X           Y           Z
 ---------------------------------------------------------------------
      1         11           0        2.987493   -0.225587    1.779600
      2         11           0        2.130665   -1.098284   -1.502448
      3         11           0        1.483220    2.158887   -0.553097
      4         11           0       -3.342359   -0.645299    1.051713
      5         11           0       -1.080858   -2.815940   -0.756139
      6         11           0       -0.002524    0.149633    0.625946
      7         11           0       -2.175638    2.476590   -0.645574
 ---------------------------------------------------------------------

 SCF Done:  E(UB3LYP) =  -1136.12415172     A.U. after   21 cycles

 The electronic state is 2-A.
 Alpha  occ. eigenvalues --  -38.44219 -38.44097 -38.43878 -38.43858 -38.43743
 Alpha  occ. eigenvalues --  -38.43508 -38.43128  -2.20024  -2.19969  -2.19781
 Alpha  occ. eigenvalues --   -2.19759  -2.19537  -2.19306  -2.19230  -1.13706
 Alpha  occ. eigenvalues --   -1.13680  -1.13666  -1.13648  -1.13640  -1.13599
 Alpha  occ. eigenvalues --   -1.13577  -1.13463  -1.13420  -1.13403  -1.13374
 Alpha  occ. eigenvalues --   -1.13331  -1.13213  -1.13202  -1.13171  -1.12994
 Alpha  occ. eigenvalues --   -1.12978  -1.12932  -1.12924  -1.12854  -1.12825
 Alpha  occ. eigenvalues --   -0.18261  -0.13638  -0.12016  -0.10627
 Alpha virt. eigenvalues --   -0.05847  -0.05492  -0.04864  -0.03212  -0.02536
 Alpha virt. eigenvalues --   -0.02277  -0.01755  -0.01020  -0.00715  -0.00218
 Alpha virt. eigenvalues --   -0.00070   0.00277   0.00462   0.00507   0.00779

  Beta  occ. eigenvalues --  -38.44198 -38.44014 -38.43839 -38.43835 -38.43745
  Beta  occ. eigenvalues --  -38.43501 -38.43110  -2.19985  -2.19815  -2.19750
  Beta  occ. eigenvalues --   -2.19681  -2.19542  -2.19296  -2.19203  -1.13676
  Beta  occ. eigenvalues --   -1.13657  -1.13642  -1.13625  -1.13534  -1.13493
  Beta  occ. eigenvalues --   -1.13480  -1.13413  -1.13372  -1.13339  -1.13320
  Beta  occ. eigenvalues --   -1.13298  -1.13216  -1.13207  -1.13166  -1.12988
  Beta  occ. eigenvalues --   -1.12972  -1.12912  -1.12863  -1.12835  -1.12810
  Beta  occ. eigenvalues --   -0.17643  -0.13359  -0.11722
  Beta virt. eigenvalues --   -0.06995  -0.05658  -0.05173  -0.04496  -0.02938
  Beta virt. eigenvalues --   -0.02085  -0.01908  -0.01196  -0.00905  -0.00377
  Beta virt. eigenvalues --   -0.00058   0.00029   0.00360   0.00616   0.00719

 Mulliken charges and spin densities:
               1          2
     1  Na   1.173248   0.121290
     2  Na   0.032504   0.184029
     3  Na   0.720287   0.266752
     4  Na   0.605179  -0.001648
     5  Na  -0.013318  -0.031807
     6  Na  -2.645129   0.657932
     7  Na   0.127228  -0.196548
 Sum of Mulliken charges =  -0.00000   1.00000

 Dipole moment (field-independent basis, Debye):
    X=             -0.0961    Y=             -0.0043    Z=             -0.3317  Tot=              0.3454
 Quadrupole moment (field-independent basis, Debye-Ang):
   XX=            -53.3446   YY=            -67.9801   ZZ=            -70.5684
   XY=             -0.5373   XZ=             -1.4988   YZ=             -1.1262

 Normal termination of Gaussian 16 at Tue Dec  5 10:45:57 2023.
