 Gaussian 16, Revision B.01,
 Gaussian 16:  ES64L-G16RevB.01 20-Dec-2017

 -------------------------
 #P B3LYP/6-311+g(d) force
 -------------------------

 -----
 DPGEN
 -----
 Symbolic Z-matrix:
 Charge =  0 Multiplicity = 2

                         Standard orientation:
 ---------------------------------------------------------------------
 Center     Atomic      Atomic             Coordinates (Angstroms)
 Number     Number       Type             X           Y           Z
 ---------------------------------------------------------------------
      1         11           0        2.604200    0.220748   -1.218868
      2         11           0       -0.366558   -1.226969   -0.426432
      3         11           0        2.325759   -2.876951    0.236358
      4         11           0       -2.803570    1.353172    0.706834
      5         11           0        1.910483    0.929346    1.873632
      6         11           0        0.421746    3.153581   -0.869260
      7         11           0       -4.092060   -1.552926   -0.302263
 ---------------------------------------------------------------------

 SCF Done:  E(UB3LYP) =  -1136.12261523     A.U. after   25 cycles

 The electronic state is 2-A.
 Alpha  occ. eigenvalues --  -38.44908 -38.44843 -38.44111 -38.44097 -38.44010
 Alpha  occ. eigenvalues --  -38.43381 -38.43372  -2.20689  -2.20622  -2.19989
 Alpha  occ. eigenvalues --   -2.19934  -2.19877  -2.19234  -2.19154  -1.14372
 Alpha  occ. eigenvalues --   -1.14366  -1.14337  -1.14287  -1.14279  -1.14231
 Alpha  occ. eigenvalues --   -1.13690  -1.13685  -1.13648  -1.13618  -1.13582
 Alpha  occ. eigenvalues --   -1.13570  -1.13553  -1.13540  -1.13460  -1.12907
 Alpha  occ. eigenvalues --   -1.12882  -1.12827  -1.12820  -1.12812  -1.12792
 Alpha  occ. eigenvalues --   -0.17539  -0.13854  -0.12092  -0.09735
 Alpha virt. eigenvalues --   -0.06658  -0.05858  -0.05033  -0.03043  -0.02669
 Alpha virt. eigenvalues --   -0.02395  -0.01822  -0.01514  -0.01300  -0.00602
 Alpha virt. eigenvalues --   -0.00219   0.00237   0.00246   0.00509   0.00688

  Beta  occ. eigenvalues --  -38.44905 -38.44848 -38.44108 -38.44062 -38.43995
  Beta  occ. eigenvalues --  -38.43354 -38.43289  -2.20682  -2.20632  -2.19932
  Beta  occ. eigenvalues --   -2.19929  -2.19852  -2.19121  -2.19064  -1.14366
  Beta  occ. eigenvalues --   -1.14357  -1.14339  -1.14294  -1.14285  -1.14235
  Beta  occ. eigenvalues --   -1.13660  -1.13642  -1.13612  -1.13602  -1.13556
  Beta  occ. eigenvalues --   -1.13539  -1.13531  -1.13512  -1.13447  -1.12800
  Beta  occ. eigenvalues --   -1.12790  -1.12779  -1.12774  -1.12765  -1.12698
  Beta  occ. eigenvalues --   -0.16950  -0.13723  -0.11873
  Beta virt. eigenvalues --   -0.06573  -0.05983  -0.05680  -0.04844  -0.02752
  Beta virt. eigenvalues --   -0.02290  -0.02082  -0.01531  -0.01229  -0.00858
  Beta virt. eigenvalues --   -0.00487   0.00137   0.00330   0.00404   0.00531

 Mulliken charges and spin densities:
               1          2
     1  Na   0.741822   0.279325
     2  Na  -1.902297   0.064564
     3  Na   1.075263  -0.006292
     4  Na   0.030169  -0.003269
     5  Na  -0.297499   0.525782
     6  Na   0.006037   0.142972
     7  Na   0.346506  -0.003082
 Sum of Mulliken charges =  -0.00000   1.00000

 Dipole moment (field-independent basis, Debye):
    X=             -1.3218    Y=             -0.8658    Z=             -0.1867  Tot=              1.5911
 Quadrupole moment (field-independent basis, Debye-Ang):
   XX=            -52.0998   YY=            -61.8552   ZZ=            -78.1026
   XY=             -1.7430   XZ=             -1.4048   YZ=             -0.3176

 Normal termination of Gaussian 16 at Tue Dec  5 13:21:18 2023.
