 Gaussian 16, Revision B.01,
 Gaussian 16:  ES64L-G16RevB.01 20-Dec-2017

 -------------------------
 #P B3LYP/6-311+g(d) force
 -------------------------

 -----
 DPGEN
 -----
 Symbolic Z-matrix:
 Charge =  0 Multiplicity = 2

                         Standard orientation:
 ---------------------------------------------------------------------
 Center     Atomic      Atomic             Coordinates (Angstroms)
 Number     Number       Type             X           Y           Z
 ---------------------------------------------------------------------
      1         11           0        4.061512   -2.124148    0.110634
      2         11           0       -5.535022   -0.991779   -0.791113
      3         11           0       -0.132390    2.245752   -1.144575
      4         11           0        0.672933   -1.509649   -0.594314
      5         11           0        3.132294    1.257322   -0.934548
      6         11           0       -3.166497    0.138621    1.184492
      7         11           0        0.967171    0.983881    2.169424
 ---------------------------------------------------------------------

 SCF Done:  E(UB3LYP) =  -1136.11291627     A.U. after   23 cycles

 The electronic state is 2-A.
 Alpha  occ. eigenvalues --  -38.46105 -38.44866 -38.44617 -38.43907 -38.43835
 Alpha  occ. eigenvalues --  -38.43805 -38.43425  -2.21886  -2.20673  -2.20464
 Alpha  occ. eigenvalues --   -2.19725  -2.19610  -2.19584  -2.19213  -1.15585
 Alpha  occ. eigenvalues --   -1.15547  -1.15492  -1.14331  -1.14325  -1.14286
 Alpha  occ. eigenvalues --   -1.14157  -1.14119  -1.14057  -1.13412  -1.13366
 Alpha  occ. eigenvalues --   -1.13352  -1.13303  -1.13301  -1.13274  -1.13237
 Alpha  occ. eigenvalues --   -1.13236  -1.13173  -1.12887  -1.12878  -1.12850
 Alpha  occ. eigenvalues --   -0.17453  -0.13285  -0.11613  -0.10818
 Alpha virt. eigenvalues --   -0.07440  -0.05495  -0.04733  -0.03173  -0.02786
 Alpha virt. eigenvalues --   -0.02626  -0.02207  -0.01962  -0.01430  -0.00776
 Alpha virt. eigenvalues --   -0.00529  -0.00102   0.00140   0.00429   0.00592

  Beta  occ. eigenvalues --  -38.46094 -38.44800 -38.44565 -38.43881 -38.43837
  Beta  occ. eigenvalues --  -38.43774 -38.43428  -2.21868  -2.20551  -2.20368
  Beta  occ. eigenvalues --   -2.19680  -2.19616  -2.19527  -2.19219  -1.15549
  Beta  occ. eigenvalues --   -1.15541  -1.15481  -1.14242  -1.14235  -1.14206
  Beta  occ. eigenvalues --   -1.14086  -1.14060  -1.13981  -1.13383  -1.13333
  Beta  occ. eigenvalues --   -1.13308  -1.13307  -1.13302  -1.13254  -1.13198
  Beta  occ. eigenvalues --   -1.13197  -1.13143  -1.12892  -1.12876  -1.12855
  Beta  occ. eigenvalues --   -0.16839  -0.13019  -0.11291
  Beta virt. eigenvalues --   -0.07372  -0.07034  -0.05356  -0.04343  -0.02856
  Beta virt. eigenvalues --   -0.02663  -0.02223  -0.01804  -0.01584  -0.00952
  Beta virt. eigenvalues --   -0.00633  -0.00411   0.00034   0.00232   0.00501

 Mulliken charges and spin densities:
               1          2
     1  Na   0.557023  -0.066024
     2  Na   0.192628   0.159541
     3  Na  -0.081142   0.155971
     4  Na  -0.684241   0.098840
     5  Na   0.371479   0.268544
     6  Na  -0.329342   0.034176
     7  Na  -0.026405   0.348953
 Sum of Mulliken charges =  -0.00000   1.00000

 Dipole moment (field-independent basis, Debye):
    X=              1.2534    Y=              0.3812    Z=              0.0733  Tot=              1.3122
 Quadrupole moment (field-independent basis, Debye-Ang):
   XX=            -65.1192   YY=            -71.8417   ZZ=            -67.8885
   XY=              2.5358   XZ=              7.5512   YZ=              3.4850

 Normal termination of Gaussian 16 at Thu Dec  7 01:41:54 2023.
