 Gaussian 16, Revision B.01,
 Gaussian 16:  ES64L-G16RevB.01 20-Dec-2017

 -------------------------
 #P B3LYP/6-311+g(d) force
 -------------------------

 -----
 DPGEN
 -----
 Symbolic Z-matrix:
 Charge =  0 Multiplicity = 2

                         Standard orientation:
 ---------------------------------------------------------------------
 Center     Atomic      Atomic             Coordinates (Angstroms)
 Number     Number       Type             X           Y           Z
 ---------------------------------------------------------------------
      1         11           0        0.189604    2.987000    0.090714
      2         11           0        1.710089   -2.284410    0.532965
      3         11           0       -0.184029    0.224900    1.935260
      4         11           0       -2.789113    1.020468   -0.201867
      5         11           0        3.157526    0.521098   -0.420438
      6         11           0       -2.165193   -2.129133   -0.155425
      7         11           0        0.081116   -0.339924   -1.781208
 ---------------------------------------------------------------------

 SCF Done:  E(UB3LYP) =  -1136.13880184     A.U. after   19 cycles

 The electronic state is 2-A.
 Alpha  occ. eigenvalues --  -38.44129 -38.43852 -38.43490 -38.43484 -38.43475
 Alpha  occ. eigenvalues --  -38.43455 -38.43148  -2.19954  -2.19728  -2.19428
 Alpha  occ. eigenvalues --   -2.19398  -2.19350  -2.19321  -2.18976  -1.13630
 Alpha  occ. eigenvalues --   -1.13619  -1.13589  -1.13417  -1.13401  -1.13363
 Alpha  occ. eigenvalues --   -1.13132  -1.13081  -1.13072  -1.13067  -1.13050
 Alpha  occ. eigenvalues --   -1.13029  -1.12995  -1.12995  -1.12979  -1.12975
 Alpha  occ. eigenvalues --   -1.12971  -1.12951  -1.12656  -1.12638  -1.12609
 Alpha  occ. eigenvalues --   -0.18698  -0.13237  -0.12245  -0.10909
 Alpha virt. eigenvalues --   -0.05653  -0.05053  -0.04613  -0.03379  -0.02893
 Alpha virt. eigenvalues --   -0.02614  -0.01545  -0.01037  -0.00358  -0.00200
 Alpha virt. eigenvalues --   -0.00009   0.00369   0.00797   0.00894   0.00907

  Beta  occ. eigenvalues --  -38.44121 -38.43846 -38.43469 -38.43451 -38.43423
  Beta  occ. eigenvalues --  -38.43389 -38.43147  -2.19941  -2.19720  -2.19326
  Beta  occ. eigenvalues --   -2.19317  -2.19305  -2.19239  -2.18976  -1.13616
  Beta  occ. eigenvalues --   -1.13599  -1.13582  -1.13415  -1.13380  -1.13350
  Beta  occ. eigenvalues --   -1.13066  -1.13022  -1.13001  -1.12993  -1.12975
  Beta  occ. eigenvalues --   -1.12969  -1.12955  -1.12947  -1.12940  -1.12924
  Beta  occ. eigenvalues --   -1.12913  -1.12896  -1.12647  -1.12631  -1.12607
  Beta  occ. eigenvalues --   -0.17963  -0.12988  -0.12006
  Beta virt. eigenvalues --   -0.07010  -0.05589  -0.05045  -0.04544  -0.02606
  Beta virt. eigenvalues --   -0.02151  -0.01582  -0.01438  -0.00964  -0.00380
  Beta virt. eigenvalues --   -0.00233   0.00114   0.00393   0.00858   0.00886

 Mulliken charges and spin densities:
               1          2
     1  Na  -0.031437  -0.103913
     2  Na   0.114005   0.028832
     3  Na  -0.231778   0.646193
     4  Na   0.108965  -0.059305
     5  Na   0.018552  -0.030906
     6  Na   0.231859  -0.029875
     7  Na  -0.210167   0.548975
 Sum of Mulliken charges =  -0.00000   1.00000

 Dipole moment (field-independent basis, Debye):
    X=              0.1111    Y=             -0.0174    Z=             -0.0398  Tot=              0.1193
 Quadrupole moment (field-independent basis, Debye-Ang):
   XX=            -56.7053   YY=            -63.9761   ZZ=            -73.3594
   XY=              0.6163   XZ=              0.1331   YZ=             -1.6120

 Normal termination of Gaussian 16 at Tue Dec  5 20:07:19 2023.
