 Gaussian 16, Revision B.01,
 Gaussian 16:  ES64L-G16RevB.01 20-Dec-2017

 -------------------------
 #P B3LYP/6-311+g(d) force
 -------------------------

 -----
 DPGEN
 -----
 Symbolic Z-matrix:
 Charge =  0 Multiplicity = 2

                         Standard orientation:
 ---------------------------------------------------------------------
 Center     Atomic      Atomic             Coordinates (Angstroms)
 Number     Number       Type             X           Y           Z
 ---------------------------------------------------------------------
      1         11           0        0.015726    1.761375   -0.767000
      2         11           0        2.730106    2.974334    0.418473
      3         11           0        3.189321   -0.439941    1.107962
      4         11           0        2.878933   -2.949734   -0.544101
      5         11           0       -0.294302   -1.479673   -0.406450
      6         11           0       -3.080675    0.864411   -0.923386
      7         11           0       -5.439109   -0.730773    1.114502
 ---------------------------------------------------------------------

 SCF Done:  E(UB3LYP) =  -1136.12187921     A.U. after   21 cycles

 The electronic state is 2-A.
 Alpha  occ. eigenvalues --  -38.44929 -38.44730 -38.44409 -38.44007 -38.43797
 Alpha  occ. eigenvalues --  -38.43426 -38.43014  -2.20727  -2.20561  -2.20262
 Alpha  occ. eigenvalues --   -2.19839  -2.19639  -2.19331  -2.18843  -1.14359
 Alpha  occ. eigenvalues --   -1.14358  -1.14336  -1.14273  -1.14255  -1.14131
 Alpha  occ. eigenvalues --   -1.13969  -1.13925  -1.13891  -1.13533  -1.13505
 Alpha  occ. eigenvalues --   -1.13495  -1.13316  -1.13285  -1.13264  -1.13023
 Alpha  occ. eigenvalues --   -1.12999  -1.12958  -1.12500  -1.12495  -1.12486
 Alpha  occ. eigenvalues --   -0.17080  -0.14260  -0.12284  -0.11405
 Alpha virt. eigenvalues --   -0.06031  -0.05429  -0.04434  -0.03941  -0.02825
 Alpha virt. eigenvalues --   -0.02534  -0.01866  -0.01644  -0.00834  -0.00595
 Alpha virt. eigenvalues --   -0.00234  -0.00008   0.00204   0.00266   0.00669

  Beta  occ. eigenvalues --  -38.44807 -38.44697 -38.44383 -38.44006 -38.43795
  Beta  occ. eigenvalues --  -38.43401 -38.43000  -2.20503  -2.20500  -2.20215
  Beta  occ. eigenvalues --   -2.19846  -2.19637  -2.19288  -2.18818  -1.14230
  Beta  occ. eigenvalues --   -1.14213  -1.14204  -1.14203  -1.14186  -1.14090
  Beta  occ. eigenvalues --   -1.13938  -1.13892  -1.13856  -1.13539  -1.13512
  Beta  occ. eigenvalues --   -1.13451  -1.13309  -1.13284  -1.13262  -1.12994
  Beta  occ. eigenvalues --   -1.12974  -1.12914  -1.12485  -1.12478  -1.12463
  Beta  occ. eigenvalues --   -0.16584  -0.13491  -0.12021
  Beta virt. eigenvalues --   -0.07823  -0.05742  -0.05183  -0.04018  -0.03736
  Beta virt. eigenvalues --   -0.02457  -0.02235  -0.01504  -0.01337  -0.00577
  Beta virt. eigenvalues --   -0.00338   0.00028   0.00118   0.00309   0.00421

 Mulliken charges and spin densities:
               1          2
     1  Na  -0.789605  -0.061232
     2  Na   1.460203   0.312990
     3  Na  -0.468853   0.206888
     4  Na   0.847703   0.040413
     5  Na  -1.168795  -0.022623
     6  Na  -0.121153  -0.078588
     7  Na   0.240499   0.602151
 Sum of Mulliken charges =  -0.00000   1.00000

 Dipole moment (field-independent basis, Debye):
    X=              0.0302    Y=             -0.8671    Z=             -0.0160  Tot=              0.8678
 Quadrupole moment (field-independent basis, Debye-Ang):
   XX=            -63.5693   YY=            -66.7485   ZZ=            -68.5938
   XY=             -1.8599   XZ=             -0.4049   YZ=             -0.6350

 Normal termination of Gaussian 16 at Wed Nov 29 03:06:10 2023.
