 Gaussian 16, Revision B.01,
 Gaussian 16:  ES64L-G16RevB.01 20-Dec-2017

 -------------------------
 #P B3LYP/6-311+g(d) force
 -------------------------

 -----
 DPGEN
 -----
 Symbolic Z-matrix:
 Charge =  0 Multiplicity = 2

                         Standard orientation:
 ---------------------------------------------------------------------
 Center     Atomic      Atomic             Coordinates (Angstroms)
 Number     Number       Type             X           Y           Z
 ---------------------------------------------------------------------
      1         11           0        1.843904    2.375436   -0.329414
      2         11           0        1.025033   -2.726952   -0.211939
      3         11           0       -0.452002   -0.154816   -1.507847
      4         11           0        3.221233   -0.434762    0.094777
      5         11           0       -2.032975    2.562581    0.027806
      6         11           0       -3.311425   -1.484248   -0.152540
      7         11           0       -0.293769   -0.137239    2.079158
 ---------------------------------------------------------------------

 SCF Done:  E(UB3LYP) =  -1136.12908392     A.U. after   20 cycles

 The electronic state is 2-A.
 Alpha  occ. eigenvalues --  -38.45021 -38.44325 -38.44089 -38.43643 -38.43545
 Alpha  occ. eigenvalues --  -38.43522 -38.43217  -2.20778  -2.20101  -2.19945
 Alpha  occ. eigenvalues --   -2.19500  -2.19377  -2.19371  -2.19158  -1.14456
 Alpha  occ. eigenvalues --   -1.14424  -1.14422  -1.13782  -1.13763  -1.13734
 Alpha  occ. eigenvalues --   -1.13643  -1.13608  -1.13594  -1.13204  -1.13153
 Alpha  occ. eigenvalues --   -1.13129  -1.13052  -1.13045  -1.13037  -1.13003
 Alpha  occ. eigenvalues --   -1.12995  -1.12989  -1.12849  -1.12799  -1.12775
 Alpha  occ. eigenvalues --   -0.18162  -0.13154  -0.12138  -0.10344
 Alpha virt. eigenvalues --   -0.06456  -0.05643  -0.04348  -0.03176  -0.02609
 Alpha virt. eigenvalues --   -0.02400  -0.02072  -0.01470  -0.00707  -0.00385
 Alpha virt. eigenvalues --   -0.00045   0.00275   0.00679   0.00727   0.00783

  Beta  occ. eigenvalues --  -38.45019 -38.44323 -38.44088 -38.43637 -38.43539
  Beta  occ. eigenvalues --  -38.43420 -38.43166  -2.20775  -2.20100  -2.19945
  Beta  occ. eigenvalues --   -2.19492  -2.19363  -2.19186  -2.19065  -1.14438
  Beta  occ. eigenvalues --   -1.14425  -1.14420  -1.13771  -1.13755  -1.13737
  Beta  occ. eigenvalues --   -1.13647  -1.13610  -1.13575  -1.13195  -1.13129
  Beta  occ. eigenvalues --   -1.13122  -1.13045  -1.13017  -1.12996  -1.12920
  Beta  occ. eigenvalues --   -1.12866  -1.12854  -1.12778  -1.12732  -1.12706
  Beta  occ. eigenvalues --   -0.17472  -0.12962  -0.11921
  Beta virt. eigenvalues --   -0.06508  -0.06379  -0.05572  -0.04330  -0.02448
  Beta virt. eigenvalues --   -0.02012  -0.01916  -0.01392  -0.01295  -0.00756
  Beta virt. eigenvalues --   -0.00411   0.00121   0.00325   0.00704   0.00778

 Mulliken charges and spin densities:
               1          2
     1  Na   0.130000   0.030185
     2  Na   0.432029   0.015252
     3  Na  -0.251389   0.315397
     4  Na   0.016413   0.039737
     5  Na   0.036673  -0.047969
     6  Na   0.114693  -0.090007
     7  Na  -0.478418   0.737404
 Sum of Mulliken charges =  -0.00000   1.00000

 Dipole moment (field-independent basis, Debye):
    X=             -0.8060    Y=             -0.1214    Z=              0.1269  Tot=              0.8249
 Quadrupole moment (field-independent basis, Debye-Ang):
   XX=            -52.1123   YY=            -63.0710   ZZ=            -77.0598
   XY=             -0.1044   XZ=             -0.1815   YZ=             -0.0710

 Normal termination of Gaussian 16 at Thu Dec  7 23:34:51 2023.
