 Gaussian 16, Revision B.01,
 Gaussian 16:  ES64L-G16RevB.01 20-Dec-2017

 -------------------------
 #P B3LYP/6-311+g(d) force
 -------------------------

 -----
 DPGEN
 -----
 Symbolic Z-matrix:
 Charge =  0 Multiplicity = 2

                         Standard orientation:
 ---------------------------------------------------------------------
 Center     Atomic      Atomic             Coordinates (Angstroms)
 Number     Number       Type             X           Y           Z
 ---------------------------------------------------------------------
      1         11           0       -4.325455   -1.709994   -0.198257
      2         11           0       -2.818672    2.089416    0.295044
      3         11           0       -6.169206    0.357552   -1.455777
      4         11           0       -0.610027    0.598091    2.065976
      5         11           0        2.075864   -1.684437    0.957931
      6         11           0        6.747527    1.686380   -0.755129
      7         11           0        5.099968   -1.337008   -0.909788
 ---------------------------------------------------------------------

 SCF Done:  E(UB3LYP) =  -1136.10596048     A.U. after   18 cycles

 The electronic state is 2-A.
 Alpha  occ. eigenvalues --  -38.45629 -38.44765 -38.44529 -38.44433 -38.44014
 Alpha  occ. eigenvalues --  -38.43785 -38.43281  -2.21426  -2.20577  -2.20337
 Alpha  occ. eigenvalues --   -2.20212  -2.19804  -2.19546  -2.19075  -1.15097
 Alpha  occ. eigenvalues --   -1.15087  -1.15055  -1.14237  -1.14233  -1.14185
 Alpha  occ. eigenvalues --   -1.14004  -1.13990  -1.13976  -1.13857  -1.13855
 Alpha  occ. eigenvalues --   -1.13826  -1.13464  -1.13455  -1.13413  -1.13233
 Alpha  occ. eigenvalues --   -1.13221  -1.13196  -1.12755  -1.12751  -1.12731
 Alpha  occ. eigenvalues --   -0.15586  -0.13964  -0.12379  -0.10852
 Alpha virt. eigenvalues --   -0.06925  -0.05708  -0.04222  -0.03544  -0.03016
 Alpha virt. eigenvalues --   -0.02475  -0.02455  -0.01665  -0.01354  -0.01216
 Alpha virt. eigenvalues --   -0.00448  -0.00339   0.00028   0.00252   0.00428

  Beta  occ. eigenvalues --  -38.45613 -38.44700 -38.44527 -38.44350 -38.43934
  Beta  occ. eigenvalues --  -38.43805 -38.43293  -2.21395  -2.20458  -2.20335
  Beta  occ. eigenvalues --   -2.20056  -2.19653  -2.19589  -2.19103  -1.15077
  Beta  occ. eigenvalues --   -1.15066  -1.15029  -1.14157  -1.14155  -1.14102
  Beta  occ. eigenvalues --   -1.13995  -1.13990  -1.13976  -1.13751  -1.13748
  Beta  occ. eigenvalues --   -1.13726  -1.13360  -1.13354  -1.13324  -1.13267
  Beta  occ. eigenvalues --   -1.13253  -1.13185  -1.12776  -1.12772  -1.12718
  Beta  occ. eigenvalues --   -0.15225  -0.13332  -0.11815
  Beta virt. eigenvalues --   -0.07657  -0.06509  -0.05507  -0.03915  -0.03307
  Beta virt. eigenvalues --   -0.02735  -0.02310  -0.02156  -0.01358  -0.01247
  Beta virt. eigenvalues --   -0.00937  -0.00222  -0.00042   0.00206   0.00349

 Mulliken charges and spin densities:
               1          2
     1  Na  -0.146413   0.083803
     2  Na   0.103829   0.273412
     3  Na   0.375514   0.011091
     4  Na  -0.229292  -0.062687
     5  Na  -0.258844   0.389281
     6  Na   0.042421   0.415416
     7  Na   0.112785  -0.110317
 Sum of Mulliken charges =  -0.00000   1.00000

 Dipole moment (field-independent basis, Debye):
    X=             -2.6264    Y=              0.3829    Z=             -0.5838  Tot=              2.7176
 Quadrupole moment (field-independent basis, Debye-Ang):
   XX=            -63.5642   YY=            -60.9477   ZZ=            -72.5478
   XY=             -0.3239   XZ=              3.4848   YZ=             -3.2930

 Normal termination of Gaussian 16 at Sun Dec  3 22:26:21 2023.
