 Gaussian 16, Revision B.01,
 Gaussian 16:  ES64L-G16RevB.01 20-Dec-2017

 -------------------------
 #P B3LYP/6-311+g(d) force
 -------------------------

 -----
 DPGEN
 -----
 Symbolic Z-matrix:
 Charge =  0 Multiplicity = 2

                         Standard orientation:
 ---------------------------------------------------------------------
 Center     Atomic      Atomic             Coordinates (Angstroms)
 Number     Number       Type             X           Y           Z
 ---------------------------------------------------------------------
      1         11           0        1.726623    2.538933    0.055352
      2         11           0       -2.861562   -1.124292   -0.435247
      3         11           0       -2.403605    1.935385    0.108141
      4         11           0        0.331640    0.231186   -1.673660
      5         11           0       -0.440272   -0.397643    1.962822
      6         11           0        0.557651   -2.620536   -0.154777
      7         11           0        3.089526   -0.563034    0.137370
 ---------------------------------------------------------------------

 SCF Done:  E(UB3LYP) =  -1136.13500858     A.U. after   19 cycles

 The electronic state is 2-A.
 Alpha  occ. eigenvalues --  -38.44313 -38.44112 -38.43934 -38.43505 -38.43422
 Alpha  occ. eigenvalues --  -38.43244 -38.42806  -2.20174  -2.19977  -2.19775
 Alpha  occ. eigenvalues --   -2.19416  -2.19256  -2.19218  -2.18722  -1.13853
 Alpha  occ. eigenvalues --   -1.13834  -1.13817  -1.13684  -1.13636  -1.13619
 Alpha  occ. eigenvalues --   -1.13439  -1.13429  -1.13405  -1.13096  -1.13050
 Alpha  occ. eigenvalues --   -1.13030  -1.12991  -1.12920  -1.12900  -1.12889
 Alpha  occ. eigenvalues --   -1.12845  -1.12820  -1.12409  -1.12384  -1.12347
 Alpha  occ. eigenvalues --   -0.18802  -0.13560  -0.12127  -0.10685
 Alpha virt. eigenvalues --   -0.05905  -0.05394  -0.04263  -0.03473  -0.02727
 Alpha virt. eigenvalues --   -0.02420  -0.01717  -0.01049  -0.00416  -0.00208
 Alpha virt. eigenvalues --   -0.00016   0.00359   0.00759   0.00870   0.00909

  Beta  occ. eigenvalues --  -38.44310 -38.44101 -38.43930 -38.43421 -38.43419
  Beta  occ. eigenvalues --  -38.43179 -38.42796  -2.20172  -2.19961  -2.19770
  Beta  occ. eigenvalues --   -2.19260  -2.19254  -2.19100  -2.18709  -1.13849
  Beta  occ. eigenvalues --   -1.13826  -1.13809  -1.13678  -1.13612  -1.13598
  Beta  occ. eigenvalues --   -1.13428  -1.13410  -1.13405  -1.12991  -1.12971
  Beta  occ. eigenvalues --   -1.12936  -1.12916  -1.12906  -1.12888  -1.12827
  Beta  occ. eigenvalues --   -1.12765  -1.12739  -1.12403  -1.12347  -1.12331
  Beta  occ. eigenvalues --   -0.18069  -0.13342  -0.11895
  Beta virt. eigenvalues --   -0.06779  -0.05833  -0.05375  -0.04240  -0.02678
  Beta virt. eigenvalues --   -0.01980  -0.01614  -0.01394  -0.00969  -0.00452
  Beta virt. eigenvalues --   -0.00251   0.00138   0.00390   0.00834   0.00868

 Mulliken charges and spin densities:
               1          2
     1  Na   0.032349  -0.094122
     2  Na   0.253716   0.019279
     3  Na   0.020846  -0.069264
     4  Na  -0.250993   0.483016
     5  Na  -0.484675   0.683430
     6  Na   0.296296  -0.001767
     7  Na   0.132461  -0.020572
 Sum of Mulliken charges =  -0.00000   1.00000

 Dipole moment (field-independent basis, Debye):
    X=             -0.0614    Y=              0.0842    Z=              0.1224  Tot=              0.1608
 Quadrupole moment (field-independent basis, Debye-Ang):
   XX=            -54.0881   YY=            -65.2896   ZZ=            -74.3580
   XY=             -0.3394   XZ=              1.7860   YZ=              1.6201

 Normal termination of Gaussian 16 at Tue Dec  5 15:33:40 2023.
