 Gaussian 16, Revision B.01,
 Gaussian 16:  ES64L-G16RevB.01 20-Dec-2017

 -------------------------
 #P B3LYP/6-311+g(d) force
 -------------------------

 -----
 DPGEN
 -----
 Symbolic Z-matrix:
 Charge =  0 Multiplicity = 2

                         Standard orientation:
 ---------------------------------------------------------------------
 Center     Atomic      Atomic             Coordinates (Angstroms)
 Number     Number       Type             X           Y           Z
 ---------------------------------------------------------------------
      1         11           0       -0.494359   -2.805879   -0.332664
      2         11           0        2.124877    2.035776    0.056299
      3         11           0        0.511800   -0.022053    2.175290
      4         11           0       -0.101410   -0.052840   -1.449837
      5         11           0       -3.158198   -0.532312    0.428908
      6         11           0       -1.684430    2.507035   -0.506013
      7         11           0        2.801721   -1.129727   -0.371983
 ---------------------------------------------------------------------

 SCF Done:  E(UB3LYP) =  -1136.13473642     A.U. after   19 cycles

 The electronic state is 2-A.
 Alpha  occ. eigenvalues --  -38.44262 -38.43916 -38.43910 -38.43575 -38.43397
 Alpha  occ. eigenvalues --  -38.43180 -38.42966  -2.20071  -2.19793  -2.19783
 Alpha  occ. eigenvalues --   -2.19449  -2.19234  -2.19054  -2.19020  -1.13742
 Alpha  occ. eigenvalues --   -1.13727  -1.13714  -1.13493  -1.13464  -1.13438
 Alpha  occ. eigenvalues --   -1.13430  -1.13409  -1.13395  -1.13125  -1.13117
 Alpha  occ. eigenvalues --   -1.13075  -1.12968  -1.12884  -1.12874  -1.12855
 Alpha  occ. eigenvalues --   -1.12709  -1.12674  -1.12667  -1.12626  -1.12598
 Alpha  occ. eigenvalues --   -0.18731  -0.13222  -0.12264  -0.10880
 Alpha virt. eigenvalues --   -0.05724  -0.05175  -0.04446  -0.03356  -0.02751
 Alpha virt. eigenvalues --   -0.02662  -0.01590  -0.01035  -0.00356  -0.00220
 Alpha virt. eigenvalues --   -0.00004   0.00349   0.00799   0.00891   0.00893

  Beta  occ. eigenvalues --  -38.44258 -38.43905 -38.43811 -38.43569 -38.43389
  Beta  occ. eigenvalues --  -38.43175 -38.42910  -2.20063  -2.19778  -2.19599
  Beta  occ. eigenvalues --   -2.19442  -2.19221  -2.19045  -2.18921  -1.13725
  Beta  occ. eigenvalues --   -1.13723  -1.13710  -1.13480  -1.13429  -1.13412
  Beta  occ. eigenvalues --   -1.13324  -1.13283  -1.13267  -1.13121  -1.13089
  Beta  occ. eigenvalues --   -1.13064  -1.12945  -1.12867  -1.12852  -1.12843
  Beta  occ. eigenvalues --   -1.12684  -1.12655  -1.12613  -1.12556  -1.12542
  Beta  occ. eigenvalues --   -0.18016  -0.13015  -0.11991
  Beta virt. eigenvalues --   -0.06961  -0.05613  -0.05158  -0.04408  -0.02612
  Beta virt. eigenvalues --   -0.02027  -0.01582  -0.01483  -0.00960  -0.00358
  Beta virt. eigenvalues --   -0.00259   0.00141   0.00384   0.00872   0.00883

 Mulliken charges and spin densities:
               1          2
     1  Na   0.157499   0.001770
     2  Na   0.293551   0.053937
     3  Na  -0.600406   0.701848
     4  Na  -0.222458   0.166046
     5  Na  -0.006574   0.090678
     6  Na   0.123817  -0.004931
     7  Na   0.254572  -0.009348
 Sum of Mulliken charges =  -0.00000   1.00000

 Dipole moment (field-independent basis, Debye):
    X=             -0.0219    Y=             -0.0429    Z=              0.3677  Tot=              0.3708
 Quadrupole moment (field-independent basis, Debye-Ang):
   XX=            -55.3847   YY=            -64.2245   ZZ=            -73.7690
   XY=              0.1935   XZ=             -1.9367   YZ=             -0.3283

 Normal termination of Gaussian 16 at Thu Dec  7 17:25:36 2023.
