 Gaussian 16, Revision B.01,
 Gaussian 16:  ES64L-G16RevB.01 20-Dec-2017

 -------------------------
 #P B3LYP/6-311+g(d) force
 -------------------------

 -----
 DPGEN
 -----
 Symbolic Z-matrix:
 Charge =  0 Multiplicity = 2

                         Standard orientation:
 ---------------------------------------------------------------------
 Center     Atomic      Atomic             Coordinates (Angstroms)
 Number     Number       Type             X           Y           Z
 ---------------------------------------------------------------------
      1         11           0        2.109891   -2.891424    0.703807
      2         11           0        1.868043    3.375750    0.688337
      3         11           0       -0.970237    1.860523    0.421698
      4         11           0       -1.037131   -1.395824    2.089443
      5         11           0       -0.613922   -1.625376   -1.586654
      6         11           0        2.652740    0.280082   -1.569615
      7         11           0       -4.009385    0.396270   -0.747016
 ---------------------------------------------------------------------

 SCF Done:  E(UB3LYP) =  -1136.12345506     A.U. after   19 cycles

 The electronic state is 2-A.
 Alpha  occ. eigenvalues --  -38.44640 -38.44588 -38.44489 -38.44488 -38.44453
 Alpha  occ. eigenvalues --  -38.43311 -38.43304  -2.20434  -2.20391  -2.20251
 Alpha  occ. eigenvalues --   -2.20245  -2.20217  -2.19152  -2.19096  -1.14132
 Alpha  occ. eigenvalues --   -1.14111  -1.14063  -1.14033  -1.14028  -1.13992
 Alpha  occ. eigenvalues --   -1.13937  -1.13929  -1.13909  -1.13900  -1.13889
 Alpha  occ. eigenvalues --   -1.13884  -1.13878  -1.13852  -1.13836  -1.12856
 Alpha  occ. eigenvalues --   -1.12838  -1.12834  -1.12756  -1.12730  -1.12697
 Alpha  occ. eigenvalues --   -0.17011  -0.12677  -0.12347  -0.10945
 Alpha virt. eigenvalues --   -0.06215  -0.05554  -0.05002  -0.03335  -0.03051
 Alpha virt. eigenvalues --   -0.02501  -0.02075  -0.01266  -0.00642  -0.00416
 Alpha virt. eigenvalues --   -0.00151   0.00145   0.00165   0.00305   0.00662

  Beta  occ. eigenvalues --  -38.44603 -38.44509 -38.44489 -38.44452 -38.44433
  Beta  occ. eigenvalues --  -38.43301 -38.43300  -2.20367  -2.20251  -2.20244
  Beta  occ. eigenvalues --   -2.20183  -2.20179  -2.19132  -2.19089  -1.14088
  Beta  occ. eigenvalues --   -1.14051  -1.13981  -1.13962  -1.13937  -1.13933
  Beta  occ. eigenvalues --   -1.13901  -1.13889  -1.13883  -1.13873  -1.13864
  Beta  occ. eigenvalues --   -1.13864  -1.13847  -1.13813  -1.13806  -1.12837
  Beta  occ. eigenvalues --   -1.12826  -1.12813  -1.12751  -1.12725  -1.12689
  Beta  occ. eigenvalues --   -0.16377  -0.12412  -0.12097
  Beta virt. eigenvalues --   -0.07418  -0.05970  -0.05060  -0.04837  -0.02907
  Beta virt. eigenvalues --   -0.02625  -0.01981  -0.01775  -0.01178  -0.00418
  Beta virt. eigenvalues --   -0.00305   0.00021   0.00260   0.00356   0.00404

 Mulliken charges and spin densities:
               1          2
     1  Na   0.097724  -0.029181
     2  Na   0.454996  -0.045227
     3  Na  -1.094850   0.144569
     4  Na   0.142669   0.355025
     5  Na  -0.119742   0.379325
     6  Na   0.013899   0.109050
     7  Na   0.505304   0.086439
 Sum of Mulliken charges =  -0.00000   1.00000

 Dipole moment (field-independent basis, Debye):
    X=             -0.1095    Y=             -0.9291    Z=             -0.0208  Tot=              0.9358
 Quadrupole moment (field-independent basis, Debye-Ang):
   XX=            -56.0715   YY=            -68.4358   ZZ=            -70.1278
   XY=             -1.4377   XZ=              1.3819   YZ=             -0.0623

 Normal termination of Gaussian 16 at Mon Dec  4 04:05:17 2023.
