 Gaussian 16, Revision B.01,
 Gaussian 16:  ES64L-G16RevB.01 20-Dec-2017

 -------------------------
 #P B3LYP/6-311+g(d) force
 -------------------------

 -----
 DPGEN
 -----
 Symbolic Z-matrix:
 Charge =  0 Multiplicity = 2

                         Standard orientation:
 ---------------------------------------------------------------------
 Center     Atomic      Atomic             Coordinates (Angstroms)
 Number     Number       Type             X           Y           Z
 ---------------------------------------------------------------------
      1         11           0       -1.200345   -2.240693   -0.015671
      2         11           0        3.155521   -2.450208    0.161029
      3         11           0        4.920295   -0.149749   -0.227936
      4         11           0        2.963137    2.927160    0.387106
      5         11           0       -0.253838    1.314501   -0.902617
      6         11           0       -3.520790    0.421217    1.118751
      7         11           0       -6.063982    0.177772   -0.520663
 ---------------------------------------------------------------------

 SCF Done:  E(UB3LYP) =  -1136.10212299     A.U. after   24 cycles

 The electronic state is 2-A.
 Alpha  occ. eigenvalues --  -38.46054 -38.44944 -38.44397 -38.44326 -38.44047
 Alpha  occ. eigenvalues --  -38.43810 -38.43575  -2.21830  -2.20711  -2.20230
 Alpha  occ. eigenvalues --   -2.20140  -2.19787  -2.19631  -2.19404  -1.15494
 Alpha  occ. eigenvalues --   -1.15461  -1.15434  -1.14373  -1.14349  -1.14328
 Alpha  occ. eigenvalues --   -1.13990  -1.13905  -1.13867  -1.13776  -1.13771
 Alpha  occ. eigenvalues --   -1.13727  -1.13490  -1.13473  -1.13415  -1.13407
 Alpha  occ. eigenvalues --   -1.13280  -1.13263  -1.13056  -1.13039  -1.13020
 Alpha  occ. eigenvalues --   -0.16100  -0.14230  -0.12157  -0.11202
 Alpha virt. eigenvalues --   -0.06523  -0.05970  -0.04947  -0.03240  -0.03070
 Alpha virt. eigenvalues --   -0.02698  -0.02031  -0.01489  -0.01384  -0.01073
 Alpha virt. eigenvalues --   -0.00446  -0.00342   0.00033   0.00172   0.00521

  Beta  occ. eigenvalues --  -38.45967 -38.44876 -38.44395 -38.44278 -38.44074
  Beta  occ. eigenvalues --  -38.43784 -38.43578  -2.21667  -2.20584  -2.20228
  Beta  occ. eigenvalues --   -2.20052  -2.19838  -2.19581  -2.19410  -1.15384
  Beta  occ. eigenvalues --   -1.15349  -1.15321  -1.14286  -1.14262  -1.14247
  Beta  occ. eigenvalues --   -1.13962  -1.13908  -1.13858  -1.13717  -1.13712
  Beta  occ. eigenvalues --   -1.13679  -1.13525  -1.13509  -1.13439  -1.13382
  Beta  occ. eigenvalues --   -1.13246  -1.13226  -1.13061  -1.13041  -1.13004
  Beta  occ. eigenvalues --   -0.15490  -0.13716  -0.10900
  Beta virt. eigenvalues --   -0.08760  -0.05926  -0.05528  -0.04586  -0.02988
  Beta virt. eigenvalues --   -0.02921  -0.02246  -0.01797  -0.01290  -0.00942
  Beta virt. eigenvalues --   -0.00853  -0.00326  -0.00257   0.00192   0.00254

 Mulliken charges and spin densities:
               1          2
     1  Na   0.095368   0.453044
     2  Na   0.124622   0.147612
     3  Na  -0.113700  -0.035776
     4  Na   0.253455   0.368152
     5  Na  -0.667295  -0.195109
     6  Na   0.193162   0.082233
     7  Na   0.114387   0.179843
 Sum of Mulliken charges =  -0.00000   1.00000

 Dipole moment (field-independent basis, Debye):
    X=             -1.1004    Y=             -0.1618    Z=             -0.1000  Tot=              1.1167
 Quadrupole moment (field-independent basis, Debye-Ang):
   XX=            -70.4560   YY=            -65.9684   ZZ=            -69.6599
   XY=              9.9234   XZ=              4.0744   YZ=              1.6813

 Normal termination of Gaussian 16 at Mon Dec  4 03:37:48 2023.
