 Gaussian 16, Revision B.01,
 Gaussian 16:  ES64L-G16RevB.01 20-Dec-2017

 -------------------------
 #P B3LYP/6-311+g(d) force
 -------------------------

 -----
 DPGEN
 -----
 Symbolic Z-matrix:
 Charge =  0 Multiplicity = 2

                         Standard orientation:
 ---------------------------------------------------------------------
 Center     Atomic      Atomic             Coordinates (Angstroms)
 Number     Number       Type             X           Y           Z
 ---------------------------------------------------------------------
      1         11           0        2.209017    2.524660    0.104695
      2         11           0       -0.042721   -0.129295   -1.798813
      3         11           0        2.657373   -1.436550   -0.046091
      4         11           0       -3.358373   -0.128325    0.267610
      5         11           0       -0.322399   -2.886999   -0.121865
      6         11           0       -1.354849    2.273870   -0.214359
      7         11           0        0.211952   -0.217361    1.808824
 ---------------------------------------------------------------------

 SCF Done:  E(UB3LYP) =  -1136.13557401     A.U. after   19 cycles

 The electronic state is 2-A.
 Alpha  occ. eigenvalues --  -38.44076 -38.43987 -38.43655 -38.43573 -38.43386
 Alpha  occ. eigenvalues --  -38.43336 -38.43328  -2.19939  -2.19803  -2.19456
 Alpha  occ. eigenvalues --   -2.19441  -2.19321  -2.19288  -2.19243  -1.13628
 Alpha  occ. eigenvalues --   -1.13611  -1.13565  -1.13496  -1.13460  -1.13438
 Alpha  occ. eigenvalues --   -1.13168  -1.13135  -1.13114  -1.13101  -1.13089
 Alpha  occ. eigenvalues --   -1.13074  -1.13038  -1.12995  -1.12956  -1.12939
 Alpha  occ. eigenvalues --   -1.12928  -1.12898  -1.12891  -1.12866  -1.12846
 Alpha  occ. eigenvalues --   -0.18716  -0.13125  -0.12371  -0.10633
 Alpha virt. eigenvalues --   -0.05639  -0.05268  -0.04718  -0.03212  -0.02761
 Alpha virt. eigenvalues --   -0.02419  -0.01607  -0.01313  -0.00388  -0.00188
 Alpha virt. eigenvalues --   -0.00004   0.00340   0.00771   0.00851   0.00909

  Beta  occ. eigenvalues --  -38.44069 -38.43985 -38.43657 -38.43564 -38.43327
  Beta  occ. eigenvalues --  -38.43309 -38.43245  -2.19931  -2.19801  -2.19447
  Beta  occ. eigenvalues --   -2.19444  -2.19231  -2.19179  -2.19135  -1.13623
  Beta  occ. eigenvalues --   -1.13579  -1.13562  -1.13497  -1.13442  -1.13438
  Beta  occ. eigenvalues --   -1.13154  -1.13113  -1.13098  -1.13093  -1.13091
  Beta  occ. eigenvalues --   -1.13069  -1.12985  -1.12909  -1.12882  -1.12850
  Beta  occ. eigenvalues --   -1.12842  -1.12840  -1.12825  -1.12783  -1.12781
  Beta  occ. eigenvalues --   -0.17973  -0.12873  -0.12160
  Beta virt. eigenvalues --   -0.06727  -0.05591  -0.05239  -0.04695  -0.02386
  Beta virt. eigenvalues --   -0.02060  -0.01509  -0.01412  -0.01219  -0.00456
  Beta virt. eigenvalues --   -0.00205   0.00127   0.00358   0.00794   0.00873

 Mulliken charges and spin densities:
               1          2
     1  Na  -0.084319  -0.130799
     2  Na  -0.100507   0.602980
     3  Na   0.179066  -0.114732
     4  Na  -0.012741  -0.060905
     5  Na   0.221872  -0.082383
     6  Na   0.155217  -0.039065
     7  Na  -0.358588   0.824904
 Sum of Mulliken charges =  -0.00000   1.00000

 Dipole moment (field-independent basis, Debye):
    X=              0.1306    Y=             -0.3140    Z=              0.0605  Tot=              0.3454
 Quadrupole moment (field-independent basis, Debye-Ang):
   XX=            -55.8026   YY=            -61.9132   ZZ=            -75.1481
   XY=              1.0423   XZ=             -0.8012   YZ=              0.1601

 Normal termination of Gaussian 16 at Sat Dec  9 06:18:33 2023.
