 Gaussian 16, Revision B.01,
 Gaussian 16:  ES64L-G16RevB.01 20-Dec-2017

 -------------------------
 #P B3LYP/6-311+g(d) force
 -------------------------

 -----
 DPGEN
 -----
 Symbolic Z-matrix:
 Charge =  0 Multiplicity = 2

                         Standard orientation:
 ---------------------------------------------------------------------
 Center     Atomic      Atomic             Coordinates (Angstroms)
 Number     Number       Type             X           Y           Z
 ---------------------------------------------------------------------
      1         11           0        3.264388   -0.017227    0.150959
      2         11           0       -0.223975   -0.113053    1.861909
      3         11           0        0.620720    0.079719   -1.785213
      4         11           0        0.658653    2.846070    0.242752
      5         11           0       -2.515975   -1.746097    0.029549
      6         11           0       -2.713866    1.471130   -0.386817
      7         11           0        0.910054   -2.520542   -0.113140
 ---------------------------------------------------------------------

 SCF Done:  E(UB3LYP) =  -1136.13708206     A.U. after   19 cycles

 The electronic state is 2-A.
 Alpha  occ. eigenvalues --  -38.44479 -38.43930 -38.43597 -38.43400 -38.43309
 Alpha  occ. eigenvalues --  -38.43292 -38.43143  -2.20309  -2.19759  -2.19458
 Alpha  occ. eigenvalues --   -2.19356  -2.19249  -2.19124  -2.19059  -1.13992
 Alpha  occ. eigenvalues --   -1.13966  -1.13944  -1.13443  -1.13424  -1.13397
 Alpha  occ. eigenvalues --   -1.13140  -1.13114  -1.13103  -1.13070  -1.13007
 Alpha  occ. eigenvalues --   -1.12971  -1.12931  -1.12892  -1.12866  -1.12795
 Alpha  occ. eigenvalues --   -1.12791  -1.12749  -1.12738  -1.12717  -1.12662
 Alpha  occ. eigenvalues --   -0.18772  -0.13250  -0.12344  -0.10686
 Alpha virt. eigenvalues --   -0.05956  -0.05036  -0.04517  -0.03318  -0.02843
 Alpha virt. eigenvalues --   -0.02433  -0.01735  -0.00983  -0.00361  -0.00219
 Alpha virt. eigenvalues --   -0.00012   0.00356   0.00801   0.00877   0.00912

  Beta  occ. eigenvalues --  -38.44476 -38.43923 -38.43595 -38.43330 -38.43286
  Beta  occ. eigenvalues --  -38.43225 -38.43132  -2.20307  -2.19747  -2.19456
  Beta  occ. eigenvalues --   -2.19227  -2.19116  -2.19096  -2.19045  -1.13981
  Beta  occ. eigenvalues --   -1.13960  -1.13938  -1.13438  -1.13398  -1.13392
  Beta  occ. eigenvalues --   -1.13132  -1.13105  -1.13094  -1.12990  -1.12919
  Beta  occ. eigenvalues --   -1.12877  -1.12836  -1.12810  -1.12775  -1.12763
  Beta  occ. eigenvalues --   -1.12748  -1.12741  -1.12714  -1.12674  -1.12649
  Beta  occ. eigenvalues --   -0.18041  -0.13024  -0.12088
  Beta virt. eigenvalues --   -0.06808  -0.05881  -0.05032  -0.04480  -0.02548
  Beta virt. eigenvalues --   -0.02060  -0.01645  -0.01406  -0.00922  -0.00396
  Beta virt. eigenvalues --   -0.00262   0.00124   0.00382   0.00851   0.00874

 Mulliken charges and spin densities:
               1          2
     1  Na   0.221033  -0.095150
     2  Na  -0.311660   0.712365
     3  Na  -0.296122   0.647274
     4  Na  -0.029163  -0.100888
     5  Na   0.148490  -0.038509
     6  Na  -0.001110  -0.026193
     7  Na   0.268532  -0.098899
 Sum of Mulliken charges =  -0.00000   1.00000

 Dipole moment (field-independent basis, Debye):
    X=              0.2929    Y=              0.1158    Z=              0.0440  Tot=              0.3180
 Quadrupole moment (field-independent basis, Debye-Ang):
   XX=            -54.1525   YY=            -64.8109   ZZ=            -74.2976
   XY=              0.3282   XZ=              1.9624   YZ=              0.1916

 Normal termination of Gaussian 16 at Thu Dec  7 03:37:59 2023.
