 Gaussian 16, Revision B.01,
 Gaussian 16:  ES64L-G16RevB.01 20-Dec-2017

 -------------------------
 #P B3LYP/6-311+g(d) force
 -------------------------

 -----
 DPGEN
 -----
 Symbolic Z-matrix:
 Charge =  0 Multiplicity = 2

                         Standard orientation:
 ---------------------------------------------------------------------
 Center     Atomic      Atomic             Coordinates (Angstroms)
 Number     Number       Type             X           Y           Z
 ---------------------------------------------------------------------
      1         11           0        1.898000   -2.362507    0.216103
      2         11           0        3.239511    0.819934   -0.292000
      3         11           0        0.191904    2.954231    0.170438
      4         11           0       -2.813470    1.393544   -0.440500
      5         11           0       -2.202318   -2.350780   -0.252446
      6         11           0       -0.472051   -0.121248    2.199984
      7         11           0        0.158424   -0.333175   -1.601581
 ---------------------------------------------------------------------

 SCF Done:  E(UB3LYP) =  -1136.13683623     A.U. after   19 cycles

 The electronic state is 2-A.
 Alpha  occ. eigenvalues --  -38.44031 -38.44020 -38.43936 -38.43863 -38.43755
 Alpha  occ. eigenvalues --  -38.43340 -38.43319  -2.19846  -2.19821  -2.19765
 Alpha  occ. eigenvalues --   -2.19668  -2.19601  -2.19278  -2.19136  -1.13524
 Alpha  occ. eigenvalues --   -1.13506  -1.13498  -1.13491  -1.13482  -1.13469
 Alpha  occ. eigenvalues --   -1.13457  -1.13429  -1.13376  -1.13351  -1.13329
 Alpha  occ. eigenvalues --   -1.13304  -1.13257  -1.13228  -1.13216  -1.12967
 Alpha  occ. eigenvalues --   -1.12923  -1.12897  -1.12808  -1.12805  -1.12773
 Alpha  occ. eigenvalues --   -0.18137  -0.12925  -0.12282  -0.10691
 Alpha virt. eigenvalues --   -0.05652  -0.05500  -0.04752  -0.03171  -0.02877
 Alpha virt. eigenvalues --   -0.02641  -0.01578  -0.01291  -0.00604  -0.00439
 Alpha virt. eigenvalues --   -0.00046   0.00339   0.00742   0.00804   0.00862

  Beta  occ. eigenvalues --  -38.44023 -38.44019 -38.43931 -38.43858 -38.43651
  Beta  occ. eigenvalues --  -38.43317 -38.43289  -2.19833  -2.19819  -2.19758
  Beta  occ. eigenvalues --   -2.19662  -2.19409  -2.19185  -2.19133  -1.13508
  Beta  occ. eigenvalues --   -1.13491  -1.13490  -1.13485  -1.13472  -1.13468
  Beta  occ. eigenvalues --   -1.13451  -1.13409  -1.13373  -1.13338  -1.13318
  Beta  occ. eigenvalues --   -1.13296  -1.13129  -1.13097  -1.13077  -1.12901
  Beta  occ. eigenvalues --   -1.12859  -1.12826  -1.12803  -1.12788  -1.12773
  Beta  occ. eigenvalues --   -0.17437  -0.12717  -0.12088
  Beta virt. eigenvalues --   -0.06770  -0.05657  -0.05431  -0.04658  -0.02455
  Beta virt. eigenvalues --   -0.02143  -0.01585  -0.01487  -0.01229  -0.00636
  Beta virt. eigenvalues --   -0.00467   0.00119   0.00383   0.00800   0.00838

 Mulliken charges and spin densities:
               1          2
     1  Na   0.138320  -0.006387
     2  Na   0.049391  -0.026777
     3  Na  -0.005766  -0.012282
     4  Na   0.106115  -0.006912
     5  Na   0.159861  -0.045346
     6  Na  -0.435629   0.757410
     7  Na  -0.012293   0.340295
 Sum of Mulliken charges =  -0.00000   1.00000

 Dipole moment (field-independent basis, Debye):
    X=             -0.0092    Y=             -0.2252    Z=              0.0498  Tot=              0.2309
 Quadrupole moment (field-independent basis, Debye-Ang):
   XX=            -56.2186   YY=            -62.6330   ZZ=            -74.7226
   XY=              0.5145   XZ=              1.1861   YZ=             -0.6471

 Normal termination of Gaussian 16 at Fri Dec  8 07:05:30 2023.
