 Gaussian 16, Revision B.01,
 Gaussian 16:  ES64L-G16RevB.01 20-Dec-2017

 -------------------------
 #P B3LYP/6-311+g(d) force
 -------------------------

 -----
 DPGEN
 -----
 Symbolic Z-matrix:
 Charge =  0 Multiplicity = 2

                         Standard orientation:
 ---------------------------------------------------------------------
 Center     Atomic      Atomic             Coordinates (Angstroms)
 Number     Number       Type             X           Y           Z
 ---------------------------------------------------------------------
      1         11           0       -1.470187    0.698976    1.356984
      2         11           0        2.175239    0.659326    0.784838
      3         11           0        0.677703   -2.414591    0.794971
      4         11           0       -3.695388    0.730207   -0.897295
      5         11           0       -2.389500   -2.237463   -0.666763
      6         11           0        4.637292   -0.346517   -1.109037
      7         11           0        0.064841    2.910062   -0.263698
 ---------------------------------------------------------------------

 SCF Done:  E(UB3LYP) =  -1136.12352164     A.U. after   19 cycles

 The electronic state is 2-A.
 Alpha  occ. eigenvalues --  -38.44591 -38.44171 -38.44100 -38.43852 -38.43831
 Alpha  occ. eigenvalues --  -38.43470 -38.43256  -2.20402  -2.20033  -2.20024
 Alpha  occ. eigenvalues --   -2.19686  -2.19669  -2.19294  -2.19147  -1.14043
 Alpha  occ. eigenvalues --   -1.14033  -1.14015  -1.13785  -1.13726  -1.13690
 Alpha  occ. eigenvalues --   -1.13666  -1.13646  -1.13615  -1.13363  -1.13345
 Alpha  occ. eigenvalues --   -1.13343  -1.13332  -1.13321  -1.13302  -1.12970
 Alpha  occ. eigenvalues --   -1.12960  -1.12918  -1.12838  -1.12821  -1.12782
 Alpha  occ. eigenvalues --   -0.17531  -0.14068  -0.12157  -0.11110
 Alpha virt. eigenvalues --   -0.06032  -0.05003  -0.04898  -0.03848  -0.02579
 Alpha virt. eigenvalues --   -0.02085  -0.01946  -0.01256  -0.00644  -0.00570
 Alpha virt. eigenvalues --   -0.00433   0.00169   0.00392   0.00548   0.00612

  Beta  occ. eigenvalues --  -38.44485 -38.44117 -38.44084 -38.43847 -38.43830
  Beta  occ. eigenvalues --  -38.43439 -38.43251  -2.20203  -2.20000  -2.19933
  Beta  occ. eigenvalues --   -2.19682  -2.19668  -2.19238  -2.19146  -1.13908
  Beta  occ. eigenvalues --   -1.13898  -1.13883  -1.13747  -1.13696  -1.13646
  Beta  occ. eigenvalues --   -1.13618  -1.13589  -1.13558  -1.13364  -1.13344
  Beta  occ. eigenvalues --   -1.13342  -1.13313  -1.13307  -1.13299  -1.12931
  Beta  occ. eigenvalues --   -1.12923  -1.12880  -1.12842  -1.12804  -1.12745
  Beta  occ. eigenvalues --   -0.17032  -0.13202  -0.11925
  Beta virt. eigenvalues --   -0.07615  -0.05934  -0.04770  -0.04296  -0.03699
  Beta virt. eigenvalues --   -0.02256  -0.01702  -0.01349  -0.00926  -0.00606
  Beta virt. eigenvalues --   -0.00442  -0.00219   0.00349   0.00463   0.00638

 Mulliken charges and spin densities:
               1          2
     1  Na   0.936126   0.142693
     2  Na  -0.681445   0.025256
     3  Na  -0.139177   0.053463
     4  Na  -0.080533   0.311036
     5  Na  -0.160878   0.043618
     6  Na   0.297803   0.489809
     7  Na  -0.171895  -0.065875
 Sum of Mulliken charges =  -0.00000   1.00000

 Dipole moment (field-independent basis, Debye):
    X=             -0.5165    Y=              0.2077    Z=             -0.7005  Tot=              0.8947
 Quadrupole moment (field-independent basis, Debye-Ang):
   XX=            -64.8772   YY=            -67.7021   ZZ=            -66.0943
   XY=             -1.3447   XZ=             -0.6408   YZ=             -0.8040

 Normal termination of Gaussian 16 at Tue Nov 28 20:18:48 2023.
