 Gaussian 16, Revision B.01,
 Gaussian 16:  ES64L-G16RevB.01 20-Dec-2017

 -------------------------
 #P B3LYP/6-311+g(d) force
 -------------------------

 -----
 DPGEN
 -----
 Symbolic Z-matrix:
 Charge =  0 Multiplicity = 2

                         Standard orientation:
 ---------------------------------------------------------------------
 Center     Atomic      Atomic             Coordinates (Angstroms)
 Number     Number       Type             X           Y           Z
 ---------------------------------------------------------------------
      1         11           0       -2.768817   -0.893230   -0.169910
      2         11           0       -0.173579   -2.799188    0.056047
      3         11           0        0.007084   -0.099150    2.146431
      4         11           0       -1.998329    2.467663   -0.073447
      5         11           0        2.883492   -1.195300   -0.404021
      6         11           0       -0.246246    0.143793   -1.617773
      7         11           0        2.296394    2.375411    0.062673
 ---------------------------------------------------------------------

 SCF Done:  E(UB3LYP) =  -1136.13561502     A.U. after   19 cycles

 The electronic state is 2-A.
 Alpha  occ. eigenvalues --  -38.44117 -38.43944 -38.43813 -38.43762 -38.43692
 Alpha  occ. eigenvalues --  -38.43283 -38.43011  -2.19884  -2.19757  -2.19635
 Alpha  occ. eigenvalues --   -2.19630  -2.19605  -2.19264  -2.18915  -1.13562
 Alpha  occ. eigenvalues --   -1.13541  -1.13529  -1.13435  -1.13417  -1.13391
 Alpha  occ. eigenvalues --   -1.13356  -1.13319  -1.13303  -1.13296  -1.13275
 Alpha  occ. eigenvalues --   -1.13260  -1.13254  -1.13238  -1.13217  -1.12946
 Alpha  occ. eigenvalues --   -1.12893  -1.12884  -1.12591  -1.12572  -1.12555
 Alpha  occ. eigenvalues --   -0.18591  -0.12968  -0.12362  -0.10814
 Alpha virt. eigenvalues --   -0.05734  -0.05243  -0.04654  -0.03161  -0.02893
 Alpha virt. eigenvalues --   -0.02668  -0.01434  -0.01247  -0.00546  -0.00285
 Alpha virt. eigenvalues --   -0.00018   0.00349   0.00791   0.00836   0.00897

  Beta  occ. eigenvalues --  -38.44118 -38.43936 -38.43812 -38.43683 -38.43659
  Beta  occ. eigenvalues --  -38.43224 -38.43004  -2.19888  -2.19745  -2.19633
  Beta  occ. eigenvalues --   -2.19593  -2.19442  -2.19158  -2.18906  -1.13553
  Beta  occ. eigenvalues --   -1.13545  -1.13534  -1.13417  -1.13403  -1.13385
  Beta  occ. eigenvalues --   -1.13344  -1.13310  -1.13294  -1.13269  -1.13221
  Beta  occ. eigenvalues --   -1.13215  -1.13167  -1.13122  -1.13110  -1.12877
  Beta  occ. eigenvalues --   -1.12814  -1.12805  -1.12588  -1.12555  -1.12527
  Beta  occ. eigenvalues --   -0.17847  -0.12741  -0.12148
  Beta virt. eigenvalues --   -0.06861  -0.05741  -0.05157  -0.04629  -0.02400
  Beta virt. eigenvalues --   -0.02129  -0.01609  -0.01348  -0.01157  -0.00588
  Beta virt. eigenvalues --   -0.00332   0.00131   0.00381   0.00812   0.00882

 Mulliken charges and spin densities:
               1          2
     1  Na   0.439207   0.043704
     2  Na   0.315234   0.072336
     3  Na  -0.574193   0.749701
     4  Na   0.036490  -0.089325
     5  Na   0.062283  -0.020811
     6  Na  -0.206774   0.332681
     7  Na  -0.072245  -0.088286
 Sum of Mulliken charges =  -0.00000   1.00000

 Dipole moment (field-independent basis, Debye):
    X=              0.1410    Y=              0.3395    Z=              0.1503  Tot=              0.3971
 Quadrupole moment (field-independent basis, Debye-Ang):
   XX=            -58.0362   YY=            -61.4647   ZZ=            -74.2270
   XY=             -0.2881   XZ=             -0.5923   YZ=              0.8180

 Normal termination of Gaussian 16 at Fri Dec  8 05:05:04 2023.
