 Gaussian 16, Revision B.01,
 Gaussian 16:  ES64L-G16RevB.01 20-Dec-2017

 -------------------------
 #P B3LYP/6-311+g(d) force
 -------------------------

 -----
 DPGEN
 -----
 Symbolic Z-matrix:
 Charge =  0 Multiplicity = 2

                         Standard orientation:
 ---------------------------------------------------------------------
 Center     Atomic      Atomic             Coordinates (Angstroms)
 Number     Number       Type             X           Y           Z
 ---------------------------------------------------------------------
      1         11           0       -2.946557   -0.830292   -0.451182
      2         11           0       -0.508374   -0.134142    2.175164
      3         11           0        0.102170    0.174370   -1.444819
      4         11           0       -1.920681    2.902968    0.045768
      5         11           0        2.832683    1.968170   -0.260014
      6         11           0        2.781916   -1.256560    0.232552
      7         11           0       -0.341158   -2.824514   -0.297469
 ---------------------------------------------------------------------

 SCF Done:  E(UB3LYP) =  -1136.13238841     A.U. after   21 cycles

 The electronic state is 2-A.
 Alpha  occ. eigenvalues --  -38.44227 -38.44223 -38.44014 -38.43869 -38.43753
 Alpha  occ. eigenvalues --  -38.43242 -38.43017  -2.20082  -2.20025  -2.19769
 Alpha  occ. eigenvalues --   -2.19719  -2.19604  -2.19205  -2.18911  -1.13769
 Alpha  occ. eigenvalues --   -1.13748  -1.13703  -1.13696  -1.13693  -1.13667
 Alpha  occ. eigenvalues --   -1.13444  -1.13429  -1.13413  -1.13394  -1.13382
 Alpha  occ. eigenvalues --   -1.13353  -1.13265  -1.13240  -1.13207  -1.12911
 Alpha  occ. eigenvalues --   -1.12857  -1.12831  -1.12589  -1.12561  -1.12552
 Alpha  occ. eigenvalues --   -0.18316  -0.13221  -0.12063  -0.10596
 Alpha virt. eigenvalues --   -0.06051  -0.05424  -0.04614  -0.03174  -0.02664
 Alpha virt. eigenvalues --   -0.02538  -0.01699  -0.01351  -0.00763  -0.00372
 Alpha virt. eigenvalues --   -0.00040   0.00318   0.00718   0.00767   0.00856

  Beta  occ. eigenvalues --  -38.44221 -38.44212 -38.44016 -38.43865 -38.43649
  Beta  occ. eigenvalues --  -38.43195 -38.43008  -2.20058  -2.20023  -2.19776
  Beta  occ. eigenvalues --   -2.19713  -2.19412  -2.19120  -2.18899  -1.13749
  Beta  occ. eigenvalues --   -1.13716  -1.13697  -1.13683  -1.13683  -1.13666
  Beta  occ. eigenvalues --   -1.13436  -1.13435  -1.13418  -1.13389  -1.13370
  Beta  occ. eigenvalues --   -1.13341  -1.13137  -1.13109  -1.13068  -1.12852
  Beta  occ. eigenvalues --   -1.12789  -1.12769  -1.12578  -1.12555  -1.12513
  Beta  occ. eigenvalues --   -0.17604  -0.13011  -0.11870
  Beta virt. eigenvalues --   -0.06664  -0.06010  -0.05307  -0.04591  -0.02479
  Beta virt. eigenvalues --   -0.01983  -0.01619  -0.01512  -0.01192  -0.00785
  Beta virt. eigenvalues --   -0.00413   0.00140   0.00363   0.00746   0.00836

 Mulliken charges and spin densities:
               1          2
     1  Na   0.342850   0.044354
     2  Na  -0.560167   0.734111
     3  Na  -0.122575   0.083783
     4  Na  -0.111261  -0.055383
     5  Na   0.102759  -0.021603
     6  Na   0.131884   0.090141
     7  Na   0.216511   0.124597
 Sum of Mulliken charges =  -0.00000   1.00000

 Dipole moment (field-independent basis, Debye):
    X=              0.0290    Y=              0.2801    Z=              0.1382  Tot=              0.3136
 Quadrupole moment (field-independent basis, Debye-Ang):
   XX=            -56.2719   YY=            -61.3892   ZZ=            -75.5329
   XY=              0.5863   XZ=              1.2805   YZ=              0.3121

 Normal termination of Gaussian 16 at Thu Dec  7 23:30:47 2023.
