 Gaussian 16, Revision B.01,
 Gaussian 16:  ES64L-G16RevB.01 20-Dec-2017

 -------------------------
 #P B3LYP/6-311+g(d) force
 -------------------------

 -----
 DPGEN
 -----
 Symbolic Z-matrix:
 Charge =  0 Multiplicity = 2

                         Standard orientation:
 ---------------------------------------------------------------------
 Center     Atomic      Atomic             Coordinates (Angstroms)
 Number     Number       Type             X           Y           Z
 ---------------------------------------------------------------------
      1         11           0        1.388018    2.809801   -0.066322
      2         11           0        0.283248   -2.666737   -0.616175
      3         11           0        3.579005   -2.525591   -0.678213
      4         11           0       -3.924019    0.302878   -0.048135
      5         11           0       -1.988682    3.380213   -0.636376
      6         11           0       -3.172389   -2.681880    0.942397
      7         11           0        3.834820    1.381316    1.102825
 ---------------------------------------------------------------------

 SCF Done:  E(UB3LYP) =  -1136.11085804     A.U. after   21 cycles

 The electronic state is 2-A.
 Alpha  occ. eigenvalues --  -38.45095 -38.44840 -38.44692 -38.44482 -38.44174
 Alpha  occ. eigenvalues --  -38.44159 -38.43808  -2.20866  -2.20603  -2.20511
 Alpha  occ. eigenvalues --   -2.20264  -2.19982  -2.19971  -2.19608  -1.14553
 Alpha  occ. eigenvalues --   -1.14536  -1.14515  -1.14290  -1.14281  -1.14234
 Alpha  occ. eigenvalues --   -1.14209  -1.14149  -1.14118  -1.13922  -1.13907
 Alpha  occ. eigenvalues --   -1.13897  -1.13657  -1.13647  -1.13633  -1.13624
 Alpha  occ. eigenvalues --   -1.13619  -1.13603  -1.13261  -1.13251  -1.13241
 Alpha  occ. eigenvalues --   -0.15625  -0.13963  -0.13349  -0.11099
 Alpha virt. eigenvalues --   -0.07173  -0.04910  -0.04379  -0.03634  -0.03401
 Alpha virt. eigenvalues --   -0.02371  -0.02121  -0.01705  -0.01455  -0.01129
 Alpha virt. eigenvalues --   -0.00628  -0.00135   0.00083   0.00530   0.00705

  Beta  occ. eigenvalues --  -38.45090 -38.44824 -38.44622 -38.44444 -38.44166
  Beta  occ. eigenvalues --  -38.44115 -38.43749  -2.20863  -2.20578  -2.20383
  Beta  occ. eigenvalues --   -2.20196  -2.19976  -2.19890  -2.19498  -1.14555
  Beta  occ. eigenvalues --   -1.14539  -1.14475  -1.14276  -1.14268  -1.14190
  Beta  occ. eigenvalues --   -1.14116  -1.14063  -1.14031  -1.13878  -1.13859
  Beta  occ. eigenvalues --   -1.13845  -1.13656  -1.13651  -1.13583  -1.13568
  Beta  occ. eigenvalues --   -1.13562  -1.13551  -1.13186  -1.13180  -1.13167
  Beta  occ. eigenvalues --   -0.15112  -0.13152  -0.12542
  Beta virt. eigenvalues --   -0.08033  -0.07281  -0.04514  -0.03944  -0.03425
  Beta virt. eigenvalues --   -0.03042  -0.02174  -0.01896  -0.01456  -0.01195
  Beta virt. eigenvalues --   -0.00768  -0.00345   0.00010   0.00244   0.00537

 Mulliken charges and spin densities:
               1          2
     1  Na  -1.105257   0.078791
     2  Na  -0.606952   0.121199
     3  Na   0.184120   0.056655
     4  Na  -0.314098   0.075927
     5  Na   0.323549   0.342276
     6  Na   0.505486   0.208496
     7  Na   1.013153   0.116655
 Sum of Mulliken charges =  -0.00000   1.00000

 Dipole moment (field-independent basis, Debye):
    X=              0.2830    Y=             -0.6794    Z=              0.2589  Tot=              0.7802
 Quadrupole moment (field-independent basis, Debye-Ang):
   XX=            -55.2447   YY=            -71.0684   ZZ=            -71.9258
   XY=             -1.9425   XZ=              1.0435   YZ=             -2.1276

 Normal termination of Gaussian 16 at Mon Dec  4 05:44:33 2023.
