 Gaussian 16, Revision B.01,
 Gaussian 16:  ES64L-G16RevB.01 20-Dec-2017

 -------------------------
 #P B3LYP/6-311+g(d) force
 -------------------------

 -----
 DPGEN
 -----
 Symbolic Z-matrix:
 Charge =  0 Multiplicity = 2

                         Standard orientation:
 ---------------------------------------------------------------------
 Center     Atomic      Atomic             Coordinates (Angstroms)
 Number     Number       Type             X           Y           Z
 ---------------------------------------------------------------------
      1         11           0        2.601547    1.308663    0.199048
      2         11           0       -0.491794    2.807243   -0.404922
      3         11           0        0.051070   -0.621105   -1.585218
      4         11           0       -3.366595    0.649957    0.022677
      5         11           0        0.077605   -0.337941    2.133263
      6         11           0       -1.959379   -2.372900   -0.079507
      7         11           0        3.087546   -1.433918   -0.285342
 ---------------------------------------------------------------------

 SCF Done:  E(UB3LYP) =  -1136.12479235     A.U. after   21 cycles

 The electronic state is 2-A.
 Alpha  occ. eigenvalues --  -38.45209 -38.44590 -38.44078 -38.43973 -38.43708
 Alpha  occ. eigenvalues --  -38.43528 -38.42606  -2.20998  -2.20463  -2.19994
 Alpha  occ. eigenvalues --   -2.19825  -2.19642  -2.19398  -2.18425  -1.14674
 Alpha  occ. eigenvalues --   -1.14651  -1.14643  -1.14278  -1.14101  -1.14078
 Alpha  occ. eigenvalues --   -1.13643  -1.13634  -1.13622  -1.13489  -1.13449
 Alpha  occ. eigenvalues --   -1.13441  -1.13367  -1.13307  -1.13259  -1.13059
 Alpha  occ. eigenvalues --   -1.13039  -1.13032  -1.12105  -1.12084  -1.12071
 Alpha  occ. eigenvalues --   -0.18487  -0.13909  -0.11722  -0.10766
 Alpha virt. eigenvalues --   -0.06713  -0.05362  -0.04031  -0.03705  -0.02669
 Alpha virt. eigenvalues --   -0.02442  -0.02269  -0.01127  -0.00538  -0.00182
 Alpha virt. eigenvalues --   -0.00066   0.00273   0.00627   0.00665   0.00789

  Beta  occ. eigenvalues --  -38.45209 -38.44584 -38.44072 -38.43869 -38.43652
  Beta  occ. eigenvalues --  -38.43524 -38.42602  -2.21001  -2.20456  -2.19986
  Beta  occ. eigenvalues --   -2.19632  -2.19541  -2.19394  -2.18420  -1.14663
  Beta  occ. eigenvalues --   -1.14656  -1.14646  -1.14278  -1.14087  -1.14060
  Beta  occ. eigenvalues --   -1.13637  -1.13624  -1.13595  -1.13363  -1.13315
  Beta  occ. eigenvalues --   -1.13307  -1.13298  -1.13236  -1.13184  -1.13042
  Beta  occ. eigenvalues --   -1.13034  -1.13012  -1.12099  -1.12072  -1.12068
  Beta  occ. eigenvalues --   -0.17767  -0.13718  -0.11513
  Beta virt. eigenvalues --   -0.06839  -0.06634  -0.05321  -0.03979  -0.02909
  Beta virt. eigenvalues --   -0.02188  -0.01813  -0.01540  -0.01061  -0.00585
  Beta virt. eigenvalues --   -0.00167   0.00104   0.00311   0.00735   0.00793

 Mulliken charges and spin densities:
               1          2
     1  Na   0.034072   0.139736
     2  Na  -0.182321   0.013319
     3  Na  -0.076762   0.163419
     4  Na  -0.046856  -0.015152
     5  Na  -0.367857   0.509094
     6  Na   0.240948   0.097188
     7  Na   0.398775   0.092396
 Sum of Mulliken charges =  -0.00000   1.00000

 Dipole moment (field-independent basis, Debye):
    X=             -0.3136    Y=             -0.4217    Z=              0.2039  Tot=              0.5637
 Quadrupole moment (field-independent basis, Debye-Ang):
   XX=            -50.2479   YY=            -69.6678   ZZ=            -74.7678
   XY=             -1.0004   XZ=             -0.4780   YZ=             -0.0423

 Normal termination of Gaussian 16 at Tue Dec  5 21:42:14 2023.
