 Gaussian 16, Revision B.01,
 Gaussian 16:  ES64L-G16RevB.01 20-Dec-2017

 -------------------------
 #P B3LYP/6-311+g(d) force
 -------------------------

 -----
 DPGEN
 -----
 Symbolic Z-matrix:
 Charge =  0 Multiplicity = 2

                         Standard orientation:
 ---------------------------------------------------------------------
 Center     Atomic      Atomic             Coordinates (Angstroms)
 Number     Number       Type             X           Y           Z
 ---------------------------------------------------------------------
      1         11           0        0.251492   -0.309047    2.047910
      2         11           0       -0.292635    0.546879   -1.568800
      3         11           0        3.416941   -0.216947   -0.034658
      4         11           0        1.405255    2.898614   -0.113247
      5         11           0       -3.378713    1.382358    0.300492
      6         11           0       -2.246162   -1.684914   -0.275654
      7         11           0        0.843823   -2.616942   -0.356043
 ---------------------------------------------------------------------

 SCF Done:  E(UB3LYP) =  -1136.12983540     A.U. after   21 cycles

 The electronic state is 2-A.
 Alpha  occ. eigenvalues --  -38.45069 -38.44674 -38.43804 -38.43649 -38.43503
 Alpha  occ. eigenvalues --  -38.43248 -38.42784  -2.20848  -2.20456  -2.19667
 Alpha  occ. eigenvalues --   -2.19450  -2.19416  -2.19181  -2.18678  -1.14528
 Alpha  occ. eigenvalues --   -1.14503  -1.14483  -1.14126  -1.14116  -1.14094
 Alpha  occ. eigenvalues --   -1.13343  -1.13299  -1.13281  -1.13157  -1.13128
 Alpha  occ. eigenvalues --   -1.13109  -1.13079  -1.13069  -1.13054  -1.12865
 Alpha  occ. eigenvalues --   -1.12819  -1.12792  -1.12355  -1.12334  -1.12321
 Alpha  occ. eigenvalues --   -0.18316  -0.13292  -0.12044  -0.10458
 Alpha virt. eigenvalues --   -0.06661  -0.05150  -0.04417  -0.03268  -0.02690
 Alpha virt. eigenvalues --   -0.02353  -0.02167  -0.01162  -0.00750  -0.00233
 Alpha virt. eigenvalues --   -0.00075   0.00278   0.00635   0.00739   0.00774

  Beta  occ. eigenvalues --  -38.45070 -38.44669 -38.43716 -38.43647 -38.43491
  Beta  occ. eigenvalues --  -38.43190 -38.42772  -2.20851  -2.20447  -2.19504
  Beta  occ. eigenvalues --   -2.19449  -2.19399  -2.19076  -2.18661  -1.14519
  Beta  occ. eigenvalues --   -1.14503  -1.14487  -1.14122  -1.14098  -1.14089
  Beta  occ. eigenvalues --   -1.13233  -1.13186  -1.13163  -1.13147  -1.13110
  Beta  occ. eigenvalues --   -1.13096  -1.13081  -1.13052  -1.13024  -1.12795
  Beta  occ. eigenvalues --   -1.12738  -1.12718  -1.12347  -1.12321  -1.12281
  Beta  occ. eigenvalues --   -0.17595  -0.13105  -0.11815
  Beta virt. eigenvalues --   -0.06719  -0.06446  -0.05114  -0.04356  -0.02586
  Beta virt. eigenvalues --   -0.02107  -0.01910  -0.01356  -0.01084  -0.00752
  Beta virt. eigenvalues --   -0.00267   0.00099   0.00308   0.00739   0.00779

 Mulliken charges and spin densities:
               1          2
     1  Na  -0.432789   0.701514
     2  Na  -0.005921   0.264548
     3  Na   0.112212  -0.025324
     4  Na  -0.047149  -0.113072
     5  Na   0.041120   0.026163
     6  Na   0.336900   0.109287
     7  Na  -0.004373   0.036883
 Sum of Mulliken charges =  -0.00000   1.00000

 Dipole moment (field-independent basis, Debye):
    X=              0.2128    Y=              0.3611    Z=              0.1953  Tot=              0.4624
 Quadrupole moment (field-independent basis, Debye-Ang):
   XX=            -51.0135   YY=            -65.7625   ZZ=            -75.7014
   XY=             -2.0311   XZ=             -1.1955   YZ=              2.2252

 Normal termination of Gaussian 16 at Fri Dec  8 00:53:11 2023.
