 Gaussian 16, Revision B.01,
 Gaussian 16:  ES64L-G16RevB.01 20-Dec-2017

 -------------------------
 #P B3LYP/6-311+g(d) force
 -------------------------

 -----
 DPGEN
 -----
 Symbolic Z-matrix:
 Charge =  0 Multiplicity = 2

                         Standard orientation:
 ---------------------------------------------------------------------
 Center     Atomic      Atomic             Coordinates (Angstroms)
 Number     Number       Type             X           Y           Z
 ---------------------------------------------------------------------
      1         11           0       -2.955403   -0.056505   -0.712440
      2         11           0       -0.727744    3.162333    0.239158
      3         11           0        3.530820    0.626120   -0.172319
      4         11           0        0.771124    0.412503   -2.266241
      5         11           0        1.569056   -1.999525    1.206708
      6         11           0       -0.961592    0.425796    2.350207
      7         11           0       -1.226260   -2.570723   -0.645073
 ---------------------------------------------------------------------

 SCF Done:  E(UB3LYP) =  -1136.12489224     A.U. after   20 cycles

 The electronic state is 2-A.
 Alpha  occ. eigenvalues --  -38.44882 -38.44708 -38.44307 -38.44169 -38.43795
 Alpha  occ. eigenvalues --  -38.43591 -38.43152  -2.20679  -2.20531  -2.20142
 Alpha  occ. eigenvalues --   -2.19939  -2.19619  -2.19360  -2.19011  -1.14335
 Alpha  occ. eigenvalues --   -1.14320  -1.14307  -1.14193  -1.14170  -1.14146
 Alpha  occ. eigenvalues --   -1.13843  -1.13807  -1.13761  -1.13612  -1.13594
 Alpha  occ. eigenvalues --   -1.13592  -1.13296  -1.13281  -1.13239  -1.13042
 Alpha  occ. eigenvalues --   -1.13018  -1.13003  -1.12695  -1.12665  -1.12652
 Alpha  occ. eigenvalues --   -0.17616  -0.12694  -0.11929  -0.11895
 Alpha virt. eigenvalues --   -0.05960  -0.05157  -0.04463  -0.03570  -0.03479
 Alpha virt. eigenvalues --   -0.03390  -0.01488  -0.00866  -0.00389  -0.00254
 Alpha virt. eigenvalues --   -0.00060   0.00292   0.00449   0.00619   0.00803

  Beta  occ. eigenvalues --  -38.44814 -38.44628 -38.44290 -38.44174 -38.43760
  Beta  occ. eigenvalues --  -38.43594 -38.43145  -2.20552  -2.20383  -2.20114
  Beta  occ. eigenvalues --   -2.19952  -2.19555  -2.19366  -2.19001  -1.14253
  Beta  occ. eigenvalues --   -1.14234  -1.14212  -1.14092  -1.14073  -1.14034
  Beta  occ. eigenvalues --   -1.13826  -1.13773  -1.13740  -1.13611  -1.13604
  Beta  occ. eigenvalues --   -1.13599  -1.13246  -1.13236  -1.13195  -1.13038
  Beta  occ. eigenvalues --   -1.13021  -1.13006  -1.12684  -1.12661  -1.12627
  Beta  occ. eigenvalues --   -0.16831  -0.12520  -0.11714
  Beta virt. eigenvalues --   -0.08058  -0.05866  -0.04652  -0.04215  -0.03189
  Beta virt. eigenvalues --   -0.02843  -0.02596  -0.01376  -0.00793  -0.00280
  Beta virt. eigenvalues --   -0.00094  -0.00026   0.00442   0.00563   0.00793

 Mulliken charges and spin densities:
               1          2
     1  Na   0.159569   0.108942
     2  Na  -0.022132  -0.128164
     3  Na   0.197124  -0.112207
     4  Na  -0.199551   0.452457
     5  Na  -0.152291   0.260193
     6  Na   0.025898   0.384651
     7  Na  -0.008617   0.034129
 Sum of Mulliken charges =  -0.00000   1.00000

 Dipole moment (field-independent basis, Debye):
    X=              0.1179    Y=              0.3491    Z=             -0.0560  Tot=              0.3727
 Quadrupole moment (field-independent basis, Debye-Ang):
   XX=            -62.7241   YY=            -69.6226   ZZ=            -66.1662
   XY=              0.6720   XZ=              2.0386   YZ=             -0.9969

 Normal termination of Gaussian 16 at Mon Dec  4 03:44:33 2023.
