 Gaussian 16, Revision B.01,
 Gaussian 16:  ES64L-G16RevB.01 20-Dec-2017

 -------------------------
 #P B3LYP/6-311+g(d) force
 -------------------------

 -----
 DPGEN
 -----
 Symbolic Z-matrix:
 Charge =  0 Multiplicity = 2

                         Standard orientation:
 ---------------------------------------------------------------------
 Center     Atomic      Atomic             Coordinates (Angstroms)
 Number     Number       Type             X           Y           Z
 ---------------------------------------------------------------------
      1         11           0       -4.199093    0.127348   -0.062455
      2         11           0       -2.286634    2.400968    1.622400
      3         11           0        1.044404    3.142459   -0.780482
      4         11           0        0.722241   -2.850856    0.361310
      5         11           0        3.826216   -1.917837    1.053485
      6         11           0       -2.639333   -2.483383   -1.251142
      7         11           0        3.532199    1.581302   -0.943117
 ---------------------------------------------------------------------

 SCF Done:  E(UB3LYP) =  -1136.10721802     A.U. after   20 cycles

 The electronic state is 2-A.
 Alpha  occ. eigenvalues --  -38.44882 -38.44702 -38.44675 -38.44497 -38.44347
 Alpha  occ. eigenvalues --  -38.44180 -38.44147  -2.20670  -2.20489  -2.20430
 Alpha  occ. eigenvalues --   -2.20317  -2.20139  -2.19989  -2.19960  -1.14351
 Alpha  occ. eigenvalues --   -1.14343  -1.14336  -1.14138  -1.14121  -1.14119
 Alpha  occ. eigenvalues --   -1.14112  -1.14110  -1.14077  -1.14076  -1.13966
 Alpha  occ. eigenvalues --   -1.13936  -1.13793  -1.13775  -1.13772  -1.13640
 Alpha  occ. eigenvalues --   -1.13635  -1.13611  -1.13606  -1.13601  -1.13591
 Alpha  occ. eigenvalues --   -0.15620  -0.14005  -0.13141  -0.11093
 Alpha virt. eigenvalues --   -0.07280  -0.04817  -0.04525  -0.03665  -0.03575
 Alpha virt. eigenvalues --   -0.02321  -0.01974  -0.01598  -0.01266  -0.01053
 Alpha virt. eigenvalues --   -0.00897  -0.00237  -0.00097   0.00501   0.00709

  Beta  occ. eigenvalues --  -38.44884 -38.44678 -38.44622 -38.44466 -38.44302
  Beta  occ. eigenvalues --  -38.44164 -38.44082  -2.20680  -2.20441  -2.20341
  Beta  occ. eigenvalues --   -2.20263  -2.20055  -2.19965  -2.19839  -1.14360
  Beta  occ. eigenvalues --   -1.14353  -1.14298  -1.14129  -1.14121  -1.14052
  Beta  occ. eigenvalues --   -1.14037  -1.14030  -1.14025  -1.14010  -1.13931
  Beta  occ. eigenvalues --   -1.13895  -1.13737  -1.13720  -1.13715  -1.13626
  Beta  occ. eigenvalues --   -1.13622  -1.13572  -1.13525  -1.13524  -1.13511
  Beta  occ. eigenvalues --   -0.15083  -0.13315  -0.12359
  Beta virt. eigenvalues --   -0.08002  -0.07340  -0.04392  -0.03982  -0.03493
  Beta virt. eigenvalues --   -0.03312  -0.02178  -0.01736  -0.01247  -0.00979
  Beta virt. eigenvalues --   -0.00838  -0.00711  -0.00049   0.00124   0.00527

 Mulliken charges and spin densities:
               1          2
     1  Na  -0.027930   0.018550
     2  Na   0.001288   0.381051
     3  Na  -0.314568   0.022229
     4  Na  -0.452836   0.001181
     5  Na   0.159358   0.174986
     6  Na   0.355796   0.309734
     7  Na   0.278891   0.092269
 Sum of Mulliken charges =  -0.00000   1.00000

 Dipole moment (field-independent basis, Debye):
    X=              0.0568    Y=              0.0373    Z=              0.1357  Tot=              0.1518
 Quadrupole moment (field-independent basis, Debye-Ang):
   XX=            -57.3430   YY=            -73.2922   ZZ=            -70.5938
   XY=             -1.1305   XZ=              2.0611   YZ=              1.6999

 Normal termination of Gaussian 16 at Mon Dec  4 04:30:16 2023.
