 Gaussian 16, Revision B.01,
 Gaussian 16:  ES64L-G16RevB.01 20-Dec-2017

 -------------------------
 #P B3LYP/6-311+g(d) force
 -------------------------

 -----
 DPGEN
 -----
 Symbolic Z-matrix:
 Charge =  0 Multiplicity = 2

                         Standard orientation:
 ---------------------------------------------------------------------
 Center     Atomic      Atomic             Coordinates (Angstroms)
 Number     Number       Type             X           Y           Z
 ---------------------------------------------------------------------
      1         11           0        2.563832    1.545841   -0.426743
      2         11           0       -1.523469    1.120452   -0.154984
      3         11           0       -1.925549   -2.903171    0.118505
      4         11           0        0.902796   -1.489848    0.459328
      5         11           0        4.195048   -2.061874   -0.150733
      6         11           0       -4.667522   -0.082948   -0.240804
      7         11           0        0.454864    3.871547    0.395431
 ---------------------------------------------------------------------

 SCF Done:  E(UB3LYP) =  -1136.12550589     A.U. after   19 cycles

 The electronic state is 2-A.
 Alpha  occ. eigenvalues --  -38.44705 -38.44360 -38.44278 -38.44038 -38.43864
 Alpha  occ. eigenvalues --  -38.43717 -38.43257  -2.20518  -2.20180  -2.20109
 Alpha  occ. eigenvalues --   -2.19859  -2.19682  -2.19515  -2.19149  -1.14222
 Alpha  occ. eigenvalues --   -1.14212  -1.14117  -1.13866  -1.13841  -1.13823
 Alpha  occ. eigenvalues --   -1.13818  -1.13783  -1.13712  -1.13527  -1.13514
 Alpha  occ. eigenvalues --   -1.13490  -1.13331  -1.13325  -1.13286  -1.13174
 Alpha  occ. eigenvalues --   -1.13171  -1.13130  -1.12842  -1.12830  -1.12765
 Alpha  occ. eigenvalues --   -0.16951  -0.13769  -0.12984  -0.10496
 Alpha virt. eigenvalues --   -0.06315  -0.05762  -0.04306  -0.03569  -0.02417
 Alpha virt. eigenvalues --   -0.02320  -0.01972  -0.01888  -0.01330  -0.00770
 Alpha virt. eigenvalues --   -0.00077   0.00012   0.00519   0.00576   0.00608

  Beta  occ. eigenvalues --  -38.44703 -38.44312 -38.44272 -38.44040 -38.43775
  Beta  occ. eigenvalues --  -38.43669 -38.43231  -2.20515  -2.20102  -2.20095
  Beta  occ. eigenvalues --   -2.19864  -2.19517  -2.19425  -2.19107  -1.14221
  Beta  occ. eigenvalues --   -1.14212  -1.14104  -1.13822  -1.13792  -1.13787
  Beta  occ. eigenvalues --   -1.13782  -1.13726  -1.13702  -1.13532  -1.13517
  Beta  occ. eigenvalues --   -1.13491  -1.13214  -1.13212  -1.13181  -1.13115
  Beta  occ. eigenvalues --   -1.13109  -1.13070  -1.12818  -1.12805  -1.12696
  Beta  occ. eigenvalues --   -0.16592  -0.13147  -0.12448
  Beta virt. eigenvalues --   -0.06982  -0.06187  -0.05621  -0.04108  -0.03033
  Beta virt. eigenvalues --   -0.02196  -0.02067  -0.01792  -0.01477  -0.01120
  Beta virt. eigenvalues --   -0.00391   0.00165   0.00313   0.00602   0.00664

 Mulliken charges and spin densities:
               1          2
     1  Na   0.237887   0.097154
     2  Na  -2.106084   0.051527
     3  Na   0.359836   0.024231
     4  Na  -0.975557   0.219518
     5  Na   1.026092   0.230932
     6  Na   0.260375   0.337167
     7  Na   1.197451   0.039471
 Sum of Mulliken charges =  -0.00000   1.00000

 Dipole moment (field-independent basis, Debye):
    X=              0.2024    Y=              0.2361    Z=              0.0426  Tot=              0.3139
 Quadrupole moment (field-independent basis, Debye-Ang):
   XX=            -65.1530   YY=            -57.5231   ZZ=            -72.5870
   XY=              5.5483   XZ=             -1.4147   YZ=              1.5438

 Normal termination of Gaussian 16 at Tue Nov 28 21:45:31 2023.
