 Gaussian 16, Revision B.01,
 Gaussian 16:  ES64L-G16RevB.01 20-Dec-2017

 -------------------------
 #P B3LYP/6-311+g(d) force
 -------------------------

 -----
 DPGEN
 -----
 Symbolic Z-matrix:
 Charge =  0 Multiplicity = 2

                         Standard orientation:
 ---------------------------------------------------------------------
 Center     Atomic      Atomic             Coordinates (Angstroms)
 Number     Number       Type             X           Y           Z
 ---------------------------------------------------------------------
      1         11           0       -3.205588   -0.615879   -0.062194
      2         11           0        2.033972   -2.594898   -0.533944
      3         11           0       -0.894068   -0.879816   -1.926109
      4         11           0        1.231946    2.275660   -1.556243
      5         11           0       -0.538639   -0.996604    2.058123
      6         11           0       -1.052547    2.197282    0.778974
      7         11           0        2.424924    0.614255    1.241394
 ---------------------------------------------------------------------

 SCF Done:  E(UB3LYP) =  -1136.13004887     A.U. after   21 cycles

 The electronic state is 2-A.
 Alpha  occ. eigenvalues --  -38.44412 -38.44251 -38.43988 -38.43668 -38.43637
 Alpha  occ. eigenvalues --  -38.43554 -38.43497  -2.20281  -2.20132  -2.19816
 Alpha  occ. eigenvalues --   -2.19540  -2.19476  -2.19411  -2.19271  -1.13969
 Alpha  occ. eigenvalues --   -1.13921  -1.13891  -1.13847  -1.13772  -1.13746
 Alpha  occ. eigenvalues --   -1.13514  -1.13484  -1.13423  -1.13224  -1.13182
 Alpha  occ. eigenvalues --   -1.13170  -1.13165  -1.13127  -1.13116  -1.13100
 Alpha  occ. eigenvalues --   -1.13062  -1.13009  -1.12946  -1.12932  -1.12910
 Alpha  occ. eigenvalues --   -0.18257  -0.12805  -0.12046  -0.11876
 Alpha virt. eigenvalues --   -0.05401  -0.05006  -0.04670  -0.03592  -0.03434
 Alpha virt. eigenvalues --   -0.03260  -0.01165  -0.00868  -0.00582   0.00177
 Alpha virt. eigenvalues --    0.00287   0.00396   0.00426   0.00644   0.00794

  Beta  occ. eigenvalues --  -38.44341 -38.44184 -38.43974 -38.43667 -38.43605
  Beta  occ. eigenvalues --  -38.43540 -38.43495  -2.20152  -2.20007  -2.19791
  Beta  occ. eigenvalues --   -2.19540  -2.19417  -2.19391  -2.19268  -1.13879
  Beta  occ. eigenvalues --   -1.13829  -1.13796  -1.13763  -1.13689  -1.13655
  Beta  occ. eigenvalues --   -1.13479  -1.13465  -1.13413  -1.13211  -1.13177
  Beta  occ. eigenvalues --   -1.13162  -1.13137  -1.13085  -1.13075  -1.13069
  Beta  occ. eigenvalues --   -1.13038  -1.12991  -1.12935  -1.12930  -1.12908
  Beta  occ. eigenvalues --   -0.17433  -0.12642  -0.11696
  Beta virt. eigenvalues --   -0.08113  -0.05251  -0.04731  -0.04121  -0.03272
  Beta virt. eigenvalues --   -0.02861  -0.02428  -0.01121  -0.00786  -0.00262
  Beta virt. eigenvalues --    0.00252   0.00356   0.00451   0.00541   0.00759

 Mulliken charges and spin densities:
               1          2
     1  Na   0.574226   0.004244
     2  Na  -0.091011  -0.051595
     3  Na  -0.522335   0.411217
     4  Na   0.300605   0.083244
     5  Na   0.018769   0.419313
     6  Na  -0.378534   0.098682
     7  Na   0.098281   0.034895
 Sum of Mulliken charges =  -0.00000   1.00000

 Dipole moment (field-independent basis, Debye):
    X=             -0.1340    Y=              0.0106    Z=              0.1438  Tot=              0.1968
 Quadrupole moment (field-independent basis, Debye-Ang):
   XX=            -62.2328   YY=            -70.8061   ZZ=            -64.3678
   XY=              0.5152   XZ=             -1.4967   YZ=              0.1633

 Normal termination of Gaussian 16 at Sun Dec  3 21:30:02 2023.
