 Gaussian 16, Revision B.01,
 Gaussian 16:  ES64L-G16RevB.01 20-Dec-2017

 -------------------------
 #P B3LYP/6-311+g(d) force
 -------------------------

 -----
 DPGEN
 -----
 Symbolic Z-matrix:
 Charge =  0 Multiplicity = 2

                         Standard orientation:
 ---------------------------------------------------------------------
 Center     Atomic      Atomic             Coordinates (Angstroms)
 Number     Number       Type             X           Y           Z
 ---------------------------------------------------------------------
      1         11           0        2.721694   -1.195226   -0.511518
      2         11           0        0.204111   -0.713148    2.112271
      3         11           0        2.054945    1.991260    0.174017
      4         11           0        0.006715    0.085836   -1.552962
      5         11           0       -3.033766   -0.152073   -0.217586
      6         11           0       -0.763644   -2.755729   -0.120158
      7         11           0       -1.190055    2.739080    0.115936
 ---------------------------------------------------------------------

 SCF Done:  E(UB3LYP) =  -1136.13787416     A.U. after   19 cycles

 The electronic state is 2-A.
 Alpha  occ. eigenvalues --  -38.43774 -38.43710 -38.43696 -38.43485 -38.43474
 Alpha  occ. eigenvalues --  -38.43357 -38.43028  -2.19624  -2.19601  -2.19571
 Alpha  occ. eigenvalues --   -2.19376  -2.19358  -2.19211  -2.19069  -1.13314
 Alpha  occ. eigenvalues --   -1.13296  -1.13285  -1.13277  -1.13261  -1.13242
 Alpha  occ. eigenvalues --   -1.13232  -1.13214  -1.13192  -1.13065  -1.13055
 Alpha  occ. eigenvalues --   -1.13038  -1.13017  -1.12997  -1.12988  -1.12893
 Alpha  occ. eigenvalues --   -1.12867  -1.12844  -1.12740  -1.12695  -1.12691
 Alpha  occ. eigenvalues --   -0.18913  -0.13012  -0.12727  -0.10892
 Alpha virt. eigenvalues --   -0.05377  -0.05037  -0.04812  -0.03180  -0.03051
 Alpha virt. eigenvalues --   -0.02582  -0.01339  -0.01055  -0.00266  -0.00192
 Alpha virt. eigenvalues --   -0.00011   0.00361   0.00855   0.00898   0.00928

  Beta  occ. eigenvalues --  -38.43770 -38.43681 -38.43615 -38.43477 -38.43469
  Beta  occ. eigenvalues --  -38.43355 -38.42968  -2.19618  -2.19548  -2.19424
  Beta  occ. eigenvalues --   -2.19367  -2.19351  -2.19210  -2.18960  -1.13304
  Beta  occ. eigenvalues --   -1.13272  -1.13262  -1.13258  -1.13204  -1.13192
  Beta  occ. eigenvalues --   -1.13172  -1.13115  -1.13090  -1.13055  -1.13044
  Beta  occ. eigenvalues --   -1.12997  -1.12990  -1.12986  -1.12985  -1.12888
  Beta  occ. eigenvalues --   -1.12858  -1.12842  -1.12667  -1.12619  -1.12608
  Beta  occ. eigenvalues --   -0.18197  -0.12762  -0.12488
  Beta virt. eigenvalues --   -0.06947  -0.05358  -0.05029  -0.04717  -0.02365
  Beta virt. eigenvalues --   -0.02311  -0.01522  -0.01251  -0.00986  -0.00307
  Beta virt. eigenvalues --   -0.00227   0.00147   0.00399   0.00893   0.00907

 Mulliken charges and spin densities:
               1          2
     1  Na   0.383476   0.016792
     2  Na  -0.670704   0.694901
     3  Na   0.108570   0.063782
     4  Na  -0.368816   0.279551
     5  Na   0.138301  -0.025483
     6  Na   0.417666  -0.027997
     7  Na  -0.008492  -0.001546
 Sum of Mulliken charges =  -0.00000   1.00000

 Dipole moment (field-independent basis, Debye):
    X=             -0.0229    Y=             -0.1492    Z=              0.2110  Tot=              0.2595
 Quadrupole moment (field-independent basis, Debye-Ang):
   XX=            -58.5685   YY=            -62.1592   ZZ=            -73.4534
   XY=             -0.2066   XZ=             -0.3153   YZ=              1.8434

 Normal termination of Gaussian 16 at Thu Dec  7 06:29:46 2023.
