 Gaussian 16, Revision B.01,
 Gaussian 16:  ES64L-G16RevB.01 20-Dec-2017

 -------------------------
 #P B3LYP/6-311+g(d) force
 -------------------------

 -----
 DPGEN
 -----
 Symbolic Z-matrix:
 Charge =  0 Multiplicity = 2

                         Standard orientation:
 ---------------------------------------------------------------------
 Center     Atomic      Atomic             Coordinates (Angstroms)
 Number     Number       Type             X           Y           Z
 ---------------------------------------------------------------------
      1         11           0       -4.240562    1.062364   -0.893805
      2         11           0        3.220020    2.433357    0.172727
      3         11           0        2.797626   -1.466320   -1.051381
      4         11           0        1.348271   -0.227245    1.859703
      5         11           0       -0.127282    0.734449   -1.295843
      6         11           0       -2.753175   -0.219447    1.507563
      7         11           0       -0.244899   -2.317159   -0.298964
 ---------------------------------------------------------------------

 SCF Done:  E(UB3LYP) =  -1136.12002021     A.U. after   23 cycles

 The electronic state is 2-A.
 Alpha  occ. eigenvalues --  -38.45257 -38.44943 -38.44531 -38.44323 -38.43996
 Alpha  occ. eigenvalues --  -38.42826 -38.42702  -2.21091  -2.20792  -2.20333
 Alpha  occ. eigenvalues --   -2.20162  -2.19880  -2.18622  -2.18597  -1.14804
 Alpha  occ. eigenvalues --   -1.14764  -1.14684  -1.14475  -1.14446  -1.14399
 Alpha  occ. eigenvalues --   -1.14048  -1.13984  -1.13967  -1.13833  -1.13811
 Alpha  occ. eigenvalues --   -1.13774  -1.13573  -1.13541  -1.13464  -1.12326
 Alpha  occ. eigenvalues --   -1.12275  -1.12271  -1.12269  -1.12251  -1.12236
 Alpha  occ. eigenvalues --   -0.18159  -0.13912  -0.11158  -0.10939
 Alpha virt. eigenvalues --   -0.07001  -0.05367  -0.04649  -0.03057  -0.02738
 Alpha virt. eigenvalues --   -0.02523  -0.02323  -0.01332  -0.01026  -0.00339
 Alpha virt. eigenvalues --   -0.00015   0.00062   0.00255   0.00454   0.00704

  Beta  occ. eigenvalues --  -38.45224 -38.44914 -38.44514 -38.44300 -38.43929
  Beta  occ. eigenvalues --  -38.42831 -38.42692  -2.21031  -2.20740  -2.20301
  Beta  occ. eigenvalues --   -2.20121  -2.19757  -2.18610  -2.18608  -1.14760
  Beta  occ. eigenvalues --   -1.14707  -1.14642  -1.14435  -1.14408  -1.14363
  Beta  occ. eigenvalues --   -1.14027  -1.13962  -1.13941  -1.13807  -1.13786
  Beta  occ. eigenvalues --   -1.13726  -1.13490  -1.13458  -1.13364  -1.12321
  Beta  occ. eigenvalues --   -1.12280  -1.12270  -1.12268  -1.12244  -1.12204
  Beta  occ. eigenvalues --   -0.17449  -0.13721  -0.10976
  Beta virt. eigenvalues --   -0.07189  -0.06781  -0.04997  -0.04298  -0.02887
  Beta virt. eigenvalues --   -0.02584  -0.01917  -0.01711  -0.01044  -0.00671
  Beta virt. eigenvalues --   -0.00318   0.00091   0.00132   0.00393   0.00538

 Mulliken charges and spin densities:
               1          2
     1  Na   0.040073   0.108519
     2  Na   0.059166  -0.112951
     3  Na   0.409654   0.117537
     4  Na  -0.301969   0.442150
     5  Na  -0.778060   0.301524
     6  Na   0.183830   0.077896
     7  Na   0.387306   0.065325
 Sum of Mulliken charges =  -0.00000   1.00000

 Dipole moment (field-independent basis, Debye):
    X=             -0.4664    Y=             -0.7070    Z=             -0.4212  Tot=              0.9460
 Quadrupole moment (field-independent basis, Debye-Ang):
   XX=            -54.4801   YY=            -72.7636   ZZ=            -69.2119
   XY=             -4.7980   XZ=             -1.0629   YZ=             -1.9988

 Normal termination of Gaussian 16 at Thu Dec  7 08:01:19 2023.
