 Gaussian 16, Revision B.01,
 Gaussian 16:  ES64L-G16RevB.01 20-Dec-2017

 -------------------------
 #P B3LYP/6-311+g(d) force
 -------------------------

 -----
 DPGEN
 -----
 Symbolic Z-matrix:
 Charge =  0 Multiplicity = 2

                         Standard orientation:
 ---------------------------------------------------------------------
 Center     Atomic      Atomic             Coordinates (Angstroms)
 Number     Number       Type             X           Y           Z
 ---------------------------------------------------------------------
      1         11           0       -3.051479   -0.721681    0.222656
      2         11           0        2.569481   -1.204152   -0.385455
      3         11           0       -0.468190   -2.759610   -0.786404
      4         11           0        0.387778    0.770878   -0.814853
      5         11           0       -0.034953   -0.994710    1.722230
      6         11           0       -2.493267    2.848659   -0.277328
      7         11           0        3.090630    2.060616    0.319154
 ---------------------------------------------------------------------

 SCF Done:  E(UB3LYP) =  -1136.12182484     A.U. after   22 cycles

 The electronic state is 2-A.
 Alpha  occ. eigenvalues --  -38.44544 -38.44376 -38.43902 -38.43857 -38.43452
 Alpha  occ. eigenvalues --  -38.43290 -38.43266  -2.20364  -2.20209  -2.19851
 Alpha  occ. eigenvalues --   -2.19627  -2.19430  -2.19283  -2.19207  -1.14041
 Alpha  occ. eigenvalues --   -1.14017  -1.14003  -1.13896  -1.13884  -1.13827
 Alpha  occ. eigenvalues --   -1.13616  -1.13515  -1.13443  -1.13293  -1.13289
 Alpha  occ. eigenvalues --   -1.13262  -1.13184  -1.13091  -1.13038  -1.12965
 Alpha  occ. eigenvalues --   -1.12925  -1.12889  -1.12861  -1.12848  -1.12832
 Alpha  occ. eigenvalues --   -0.18704  -0.13640  -0.12340  -0.09849
 Alpha virt. eigenvalues --   -0.06517  -0.05645  -0.04730  -0.03056  -0.02346
 Alpha virt. eigenvalues --   -0.02062  -0.01719  -0.01338  -0.01045  -0.00421
 Alpha virt. eigenvalues --   -0.00013   0.00261   0.00599   0.00629   0.00796

  Beta  occ. eigenvalues --  -38.44536 -38.44366 -38.43878 -38.43847 -38.43384
  Beta  occ. eigenvalues --  -38.43265 -38.43242  -2.20349  -2.20194  -2.19814
  Beta  occ. eigenvalues --   -2.19609  -2.19304  -2.19242  -2.19164  -1.14031
  Beta  occ. eigenvalues --   -1.14007  -1.13986  -1.13880  -1.13869  -1.13809
  Beta  occ. eigenvalues --   -1.13592  -1.13479  -1.13391  -1.13277  -1.13275
  Beta  occ. eigenvalues --   -1.13251  -1.13113  -1.13015  -1.12946  -1.12909
  Beta  occ. eigenvalues --   -1.12874  -1.12865  -1.12835  -1.12814  -1.12764
  Beta  occ. eigenvalues --   -0.18061  -0.13409  -0.12049
  Beta virt. eigenvalues --   -0.06477  -0.06023  -0.05500  -0.04595  -0.02430
  Beta virt. eigenvalues --   -0.01980  -0.01800  -0.01485  -0.01037  -0.00642
  Beta virt. eigenvalues --   -0.00385   0.00190   0.00345   0.00657   0.00727

 Mulliken charges and spin densities:
               1          2
     1  Na   0.484825   0.073318
     2  Na   1.174424   0.272317
     3  Na  -0.020596   0.192906
     4  Na  -1.146929   0.081546
     5  Na  -0.455819   0.316920
     6  Na  -0.077010  -0.012884
     7  Na   0.041104   0.075877
 Sum of Mulliken charges =  -0.00000   1.00000

 Dipole moment (field-independent basis, Debye):
    X=              0.3586    Y=              0.1259    Z=              0.2230  Tot=              0.4407
 Quadrupole moment (field-independent basis, Debye-Ang):
   XX=            -53.2036   YY=            -61.1219   ZZ=            -77.0620
   XY=              3.8150   XZ=              1.4284   YZ=              2.5184

 Normal termination of Gaussian 16 at Thu Nov 30 08:53:24 2023.
