 Gaussian 16, Revision B.01,
 Gaussian 16:  ES64L-G16RevB.01 20-Dec-2017

 -------------------------
 #P B3LYP/6-311+g(d) force
 -------------------------

 -----
 DPGEN
 -----
 Symbolic Z-matrix:
 Charge =  0 Multiplicity = 2

                         Standard orientation:
 ---------------------------------------------------------------------
 Center     Atomic      Atomic             Coordinates (Angstroms)
 Number     Number       Type             X           Y           Z
 ---------------------------------------------------------------------
      1         11           0       -3.298080   -1.596224   -0.748975
      2         11           0        1.728951    0.838307   -1.994033
      3         11           0        1.367527    1.655634    1.405710
      4         11           0       -0.074628   -1.155192   -0.118133
      5         11           0        3.340535   -1.672347    0.074015
      6         11           0       -1.259049    0.011279    2.366875
      7         11           0       -1.805256    1.918545   -0.985458
 ---------------------------------------------------------------------

 SCF Done:  E(UB3LYP) =  -1136.12425641     A.U. after   26 cycles

 The electronic state is 2-A.
 Alpha  occ. eigenvalues --  -38.45039 -38.44531 -38.44261 -38.43689 -38.43318
 Alpha  occ. eigenvalues --  -38.42970 -38.42715  -2.20849  -2.20385  -2.20056
 Alpha  occ. eigenvalues --   -2.19589  -2.19116  -2.18991  -2.18587  -1.14530
 Alpha  occ. eigenvalues --   -1.14485  -1.14458  -1.14086  -1.14037  -1.13979
 Alpha  occ. eigenvalues --   -1.13732  -1.13708  -1.13673  -1.13353  -1.13207
 Alpha  occ. eigenvalues --   -1.13182  -1.12802  -1.12776  -1.12760  -1.12723
 Alpha  occ. eigenvalues --   -1.12652  -1.12570  -1.12273  -1.12258  -1.12209
 Alpha  occ. eigenvalues --   -0.18458  -0.13234  -0.12005  -0.10957
 Alpha virt. eigenvalues --   -0.05880  -0.05296  -0.04542  -0.03329  -0.02764
 Alpha virt. eigenvalues --   -0.02491  -0.01879  -0.01260  -0.00654  -0.00042
 Alpha virt. eigenvalues --    0.00251   0.00298   0.00511   0.00609   0.00690

  Beta  occ. eigenvalues --  -38.44977 -38.44484 -38.44242 -38.43643 -38.43321
  Beta  occ. eigenvalues --  -38.42942 -38.42711  -2.20735  -2.20300  -2.20020
  Beta  occ. eigenvalues --   -2.19505  -2.19123  -2.18946  -2.18583  -1.14445
  Beta  occ. eigenvalues --   -1.14405  -1.14378  -1.14031  -1.13983  -1.13900
  Beta  occ. eigenvalues --   -1.13701  -1.13682  -1.13653  -1.13289  -1.13151
  Beta  occ. eigenvalues --   -1.13122  -1.12804  -1.12774  -1.12766  -1.12648
  Beta  occ. eigenvalues --   -1.12628  -1.12543  -1.12271  -1.12230  -1.12211
  Beta  occ. eigenvalues --   -0.17641  -0.13070  -0.10790
  Beta virt. eigenvalues --   -0.08011  -0.05483  -0.05047  -0.04186  -0.02785
  Beta virt. eigenvalues --   -0.02190  -0.02115  -0.01728  -0.00968  -0.00417
  Beta virt. eigenvalues --    0.00099   0.00288   0.00385   0.00607   0.00736

 Mulliken charges and spin densities:
               1          2
     1  Na   0.368811  -0.050196
     2  Na   0.141872   0.237114
     3  Na   0.207911   0.095591
     4  Na  -1.118658   0.687445
     5  Na   0.452779  -0.202944
     6  Na   0.018051  -0.093374
     7  Na  -0.070766   0.326362
 Sum of Mulliken charges =  -0.00000   1.00000

 Dipole moment (field-independent basis, Debye):
    X=              0.2188    Y=              0.6472    Z=             -0.0886  Tot=              0.6889
 Quadrupole moment (field-independent basis, Debye-Ang):
   XX=            -55.4815   YY=            -68.8205   ZZ=            -69.1627
   XY=             -2.1937   XZ=              0.6213   YZ=             -7.4629

 Normal termination of Gaussian 16 at Tue Dec  5 12:54:10 2023.
