 Gaussian 16, Revision B.01,
 Gaussian 16:  ES64L-G16RevB.01 20-Dec-2017

 -------------------------
 #P B3LYP/6-311+g(d) force
 -------------------------

 -----
 DPGEN
 -----
 Symbolic Z-matrix:
 Charge =  0 Multiplicity = 2

                         Standard orientation:
 ---------------------------------------------------------------------
 Center     Atomic      Atomic             Coordinates (Angstroms)
 Number     Number       Type             X           Y           Z
 ---------------------------------------------------------------------
      1         11           0       -0.392157    0.415410   -1.620460
      2         11           0       -3.275628   -0.061669    0.049046
      3         11           0       -0.203942    2.996406    0.021869
      4         11           0       -0.954696   -2.356780   -0.373313
      5         11           0        2.406007   -2.087394   -0.084519
      6         11           0       -0.203177   -0.167678    2.083631
      7         11           0        2.623593    1.261705   -0.076254
 ---------------------------------------------------------------------

 SCF Done:  E(UB3LYP) =  -1136.13548799     A.U. after   19 cycles

 The electronic state is 2-A.
 Alpha  occ. eigenvalues --  -38.44214 -38.43798 -38.43701 -38.43452 -38.43421
 Alpha  occ. eigenvalues --  -38.43306 -38.43250  -2.20052  -2.19658  -2.19588
 Alpha  occ. eigenvalues --   -2.19321  -2.19259  -2.19250  -2.19241  -1.13725
 Alpha  occ. eigenvalues --   -1.13711  -1.13698  -1.13342  -1.13327  -1.13306
 Alpha  occ. eigenvalues --   -1.13262  -1.13220  -1.13197  -1.13105  -1.13031
 Alpha  occ. eigenvalues --   -1.12968  -1.12944  -1.12934  -1.12910  -1.12909
 Alpha  occ. eigenvalues --   -1.12898  -1.12882  -1.12860  -1.12832  -1.12819
 Alpha  occ. eigenvalues --   -0.18835  -0.13119  -0.12521  -0.10839
 Alpha virt. eigenvalues --   -0.05731  -0.04939  -0.04712  -0.03226  -0.02896
 Alpha virt. eigenvalues --   -0.02635  -0.01630  -0.01048  -0.00276  -0.00125
 Alpha virt. eigenvalues --   -0.00016   0.00342   0.00820   0.00872   0.00930

  Beta  occ. eigenvalues --  -38.44210 -38.43796 -38.43602 -38.43448 -38.43421
  Beta  occ. eigenvalues --  -38.43291 -38.43187  -2.20049  -2.19655  -2.19406
  Beta  occ. eigenvalues --   -2.19317  -2.19253  -2.19220  -2.19142  -1.13722
  Beta  occ. eigenvalues --   -1.13704  -1.13682  -1.13338  -1.13313  -1.13301
  Beta  occ. eigenvalues --   -1.13144  -1.13094  -1.13072  -1.13067  -1.12995
  Beta  occ. eigenvalues --   -1.12952  -1.12938  -1.12933  -1.12910  -1.12893
  Beta  occ. eigenvalues --   -1.12855  -1.12823  -1.12819  -1.12780  -1.12757
  Beta  occ. eigenvalues --   -0.18090  -0.12890  -0.12308
  Beta virt. eigenvalues --   -0.06872  -0.05697  -0.04926  -0.04672  -0.02419
  Beta virt. eigenvalues --   -0.02144  -0.01555  -0.01536  -0.00993  -0.00331
  Beta virt. eigenvalues --   -0.00148   0.00132   0.00370   0.00850   0.00872

 Mulliken charges and spin densities:
               1          2
     1  Na  -0.191500   0.349916
     2  Na   0.306838  -0.050183
     3  Na   0.232990  -0.074259
     4  Na   0.263342   0.085773
     5  Na  -0.080650  -0.049188
     6  Na  -0.602371   0.743424
     7  Na   0.071351  -0.005482
 Sum of Mulliken charges =  -0.00000   1.00000

 Dipole moment (field-independent basis, Debye):
    X=             -0.3316    Y=              0.2177    Z=              0.2364  Tot=              0.4618
 Quadrupole moment (field-independent basis, Debye-Ang):
   XX=            -56.0675   YY=            -63.7884   ZZ=            -74.0126
   XY=             -0.8004   XZ=             -0.4623   YZ=              1.1333

 Normal termination of Gaussian 16 at Thu Dec  7 18:42:56 2023.
