 Gaussian 16, Revision B.01,
 Gaussian 16:  ES64L-G16RevB.01 20-Dec-2017

 -------------------------
 #P B3LYP/6-311+g(d) force
 -------------------------

 -----
 DPGEN
 -----
 Symbolic Z-matrix:
 Charge =  0 Multiplicity = 2

                         Standard orientation:
 ---------------------------------------------------------------------
 Center     Atomic      Atomic             Coordinates (Angstroms)
 Number     Number       Type             X           Y           Z
 ---------------------------------------------------------------------
      1         11           0       -0.437183   -0.270279   -1.538253
      2         11           0       -3.341135   -0.879610   -0.141768
      3         11           0        2.042329    1.986216   -0.272968
      4         11           0        2.744037   -1.013495   -0.564828
      5         11           0       -1.545687    2.671656   -0.014315
      6         11           0        0.420514    0.294064    2.117843
      7         11           0        0.117125   -2.788551    0.414290
 ---------------------------------------------------------------------

 SCF Done:  E(UB3LYP) =  -1136.13541944     A.U. after   19 cycles

 The electronic state is 2-A.
 Alpha  occ. eigenvalues --  -38.44390 -38.43828 -38.43671 -38.43551 -38.43421
 Alpha  occ. eigenvalues --  -38.43376 -38.43158  -2.20172  -2.19629  -2.19561
 Alpha  occ. eigenvalues --   -2.19460  -2.19316  -2.19246  -2.19136  -1.13860
 Alpha  occ. eigenvalues --   -1.13825  -1.13806  -1.13315  -1.13300  -1.13257
 Alpha  occ. eigenvalues --   -1.13231  -1.13206  -1.13187  -1.13171  -1.13130
 Alpha  occ. eigenvalues --   -1.13100  -1.12974  -1.12970  -1.12956  -1.12930
 Alpha  occ. eigenvalues --   -1.12908  -1.12864  -1.12813  -1.12763  -1.12760
 Alpha  occ. eigenvalues --   -0.18667  -0.12960  -0.12445  -0.10869
 Alpha virt. eigenvalues --   -0.05872  -0.05092  -0.04507  -0.03107  -0.03026
 Alpha virt. eigenvalues --   -0.02605  -0.01638  -0.01121  -0.00308  -0.00292
 Alpha virt. eigenvalues --   -0.00022   0.00334   0.00778   0.00844   0.00927

  Beta  occ. eigenvalues --  -38.44391 -38.43827 -38.43572 -38.43534 -38.43410
  Beta  occ. eigenvalues --  -38.43363 -38.43110  -2.20175  -2.19630  -2.19431
  Beta  occ. eigenvalues --   -2.19378  -2.19300  -2.19226  -2.19049  -1.13853
  Beta  occ. eigenvalues --   -1.13825  -1.13810  -1.13308  -1.13292  -1.13258
  Beta  occ. eigenvalues --   -1.13182  -1.13120  -1.13101  -1.13078  -1.13057
  Beta  occ. eigenvalues --   -1.13036  -1.12958  -1.12943  -1.12937  -1.12908
  Beta  occ. eigenvalues --   -1.12866  -1.12854  -1.12755  -1.12705  -1.12692
  Beta  occ. eigenvalues --   -0.17935  -0.12722  -0.12230
  Beta virt. eigenvalues --   -0.06913  -0.05823  -0.05045  -0.04457  -0.02425
  Beta virt. eigenvalues --   -0.02242  -0.01651  -0.01431  -0.01059  -0.00335
  Beta virt. eigenvalues --   -0.00289   0.00126   0.00380   0.00812   0.00883

 Mulliken charges and spin densities:
               1          2
     1  Na  -0.147943   0.297075
     2  Na   0.040784  -0.089125
     3  Na   0.218019   0.042618
     4  Na   0.309906   0.098728
     5  Na  -0.046153  -0.095870
     6  Na  -0.475530   0.666300
     7  Na   0.100918   0.080274
 Sum of Mulliken charges =  -0.00000   1.00000

 Dipole moment (field-independent basis, Debye):
    X=             -0.5444    Y=              0.0413    Z=              0.2072  Tot=              0.5840
 Quadrupole moment (field-independent basis, Debye-Ang):
   XX=            -56.7596   YY=            -63.1847   ZZ=            -73.5933
   XY=             -0.1766   XZ=             -1.8691   YZ=             -1.0113

 Normal termination of Gaussian 16 at Thu Dec  7 08:49:21 2023.
