 Gaussian 16, Revision B.01,
 Gaussian 16:  ES64L-G16RevB.01 20-Dec-2017

 -------------------------
 #P B3LYP/6-311+g(d) force
 -------------------------

 -----
 DPGEN
 -----
 Symbolic Z-matrix:
 Charge =  0 Multiplicity = 2

                         Standard orientation:
 ---------------------------------------------------------------------
 Center     Atomic      Atomic             Coordinates (Angstroms)
 Number     Number       Type             X           Y           Z
 ---------------------------------------------------------------------
      1         11           0        0.332601    0.146490   -1.740947
      2         11           0       -0.277131   -0.345766    1.971204
      3         11           0        1.623705    2.539111    0.197341
      4         11           0       -1.873653    2.210699   -0.086950
      5         11           0       -2.899564   -0.919186   -0.207422
      6         11           0        2.883538   -0.757961    0.025662
      7         11           0        0.210504   -2.873386   -0.158889
 ---------------------------------------------------------------------

 SCF Done:  E(UB3LYP) =  -1136.14128960     A.U. after   19 cycles

 The electronic state is 2-A.
 Alpha  occ. eigenvalues --  -38.43741 -38.43702 -38.43487 -38.43477 -38.43448
 Alpha  occ. eigenvalues --  -38.43383 -38.43197  -2.19610  -2.19553  -2.19363
 Alpha  occ. eigenvalues --   -2.19342  -2.19332  -2.19257  -2.19172  -1.13312
 Alpha  occ. eigenvalues --   -1.13271  -1.13245  -1.13239  -1.13220  -1.13201
 Alpha  occ. eigenvalues --   -1.13048  -1.13037  -1.13020  -1.13011  -1.12994
 Alpha  occ. eigenvalues --   -1.12992  -1.12982  -1.12975  -1.12948  -1.12941
 Alpha  occ. eigenvalues --   -1.12911  -1.12881  -1.12840  -1.12797  -1.12785
 Alpha  occ. eigenvalues --   -0.18863  -0.13003  -0.12650  -0.10778
 Alpha virt. eigenvalues --   -0.05344  -0.05128  -0.04850  -0.03184  -0.03018
 Alpha virt. eigenvalues --   -0.02518  -0.01307  -0.01108  -0.00282  -0.00267
 Alpha virt. eigenvalues --   -0.00010   0.00382   0.00858   0.00912   0.00921

  Beta  occ. eigenvalues --  -38.43736 -38.43697 -38.43482 -38.43472 -38.43375
  Beta  occ. eigenvalues --  -38.43361 -38.43127  -2.19604  -2.19548  -2.19337
  Beta  occ. eigenvalues --   -2.19327  -2.19248  -2.19202  -2.19044  -1.13303
  Beta  occ. eigenvalues --   -1.13247  -1.13244  -1.13236  -1.13201  -1.13190
  Beta  occ. eigenvalues --   -1.13034  -1.13002  -1.12988  -1.12982  -1.12970
  Beta  occ. eigenvalues --   -1.12968  -1.12949  -1.12910  -1.12901  -1.12883
  Beta  occ. eigenvalues --   -1.12863  -1.12848  -1.12758  -1.12705  -1.12695
  Beta  occ. eigenvalues --   -0.18120  -0.12764  -0.12416
  Beta virt. eigenvalues --   -0.06864  -0.05326  -0.05138  -0.04775  -0.02382
  Beta virt. eigenvalues --   -0.02223  -0.01469  -0.01225  -0.01036  -0.00344
  Beta virt. eigenvalues --   -0.00320   0.00130   0.00400   0.00894   0.00907

 Mulliken charges and spin densities:
               1          2
     1  Na  -0.271968   0.586429
     2  Na  -0.503941   0.767688
     3  Na   0.054153  -0.057030
     4  Na   0.102895  -0.071216
     5  Na   0.155423  -0.070910
     6  Na   0.225616  -0.060151
     7  Na   0.237822  -0.094811
 Sum of Mulliken charges =  -0.00000   1.00000

 Dipole moment (field-independent basis, Debye):
    X=              0.0317    Y=             -0.0496    Z=              0.0904  Tot=              0.1079
 Quadrupole moment (field-independent basis, Debye-Ang):
   XX=            -58.5064   YY=            -61.4840   ZZ=            -73.8251
   XY=              0.3642   XZ=              1.3748   YZ=              1.1595

 Normal termination of Gaussian 16 at Thu Dec  7 09:34:48 2023.
