 Gaussian 16, Revision B.01,
 Gaussian 16:  ES64L-G16RevB.01 20-Dec-2017

 -------------------------
 #P B3LYP/6-311+g(d) force
 -------------------------

 -----
 DPGEN
 -----
 Symbolic Z-matrix:
 Charge =  0 Multiplicity = 2

                         Standard orientation:
 ---------------------------------------------------------------------
 Center     Atomic      Atomic             Coordinates (Angstroms)
 Number     Number       Type             X           Y           Z
 ---------------------------------------------------------------------
      1         11           0       -1.840315    2.641690   -0.142123
      2         11           0        0.110473   -0.394116    2.120477
      3         11           0        2.262333    2.245362   -0.138556
      4         11           0        3.357712   -1.109176   -0.093478
      5         11           0       -0.115297    0.203200   -1.257989
      6         11           0       -3.255858   -0.625267    0.097553
      7         11           0       -0.519049   -2.961693   -0.585882
 ---------------------------------------------------------------------

 SCF Done:  E(UB3LYP) =  -1136.13100716     A.U. after   20 cycles

 The electronic state is 2-A.
 Alpha  occ. eigenvalues --  -38.44830 -38.44627 -38.44069 -38.43590 -38.43426
 Alpha  occ. eigenvalues --  -38.43350 -38.42926  -2.20592  -2.20432  -2.19874
 Alpha  occ. eigenvalues --   -2.19409  -2.19278  -2.19176  -2.18928  -1.14267
 Alpha  occ. eigenvalues --   -1.14245  -1.14235  -1.14107  -1.14092  -1.14068
 Alpha  occ. eigenvalues --   -1.13566  -1.13537  -1.13498  -1.13115  -1.13064
 Alpha  occ. eigenvalues --   -1.13039  -1.12957  -1.12900  -1.12885  -1.12882
 Alpha  occ. eigenvalues --   -1.12824  -1.12801  -1.12631  -1.12565  -1.12549
 Alpha  occ. eigenvalues --   -0.18086  -0.13140  -0.12108  -0.10147
 Alpha virt. eigenvalues --   -0.06282  -0.05579  -0.04646  -0.03025  -0.02536
 Alpha virt. eigenvalues --   -0.02163  -0.02045  -0.01409  -0.00744  -0.00709
 Alpha virt. eigenvalues --   -0.00029   0.00283   0.00682   0.00769   0.00789

  Beta  occ. eigenvalues --  -38.44830 -38.44625 -38.44065 -38.43589 -38.43333
  Beta  occ. eigenvalues --  -38.43320 -38.42885  -2.20595  -2.20430  -2.19870
  Beta  occ. eigenvalues --   -2.19408  -2.19148  -2.19082  -2.18856  -1.14254
  Beta  occ. eigenvalues --   -1.14250  -1.14239  -1.14097  -1.14081  -1.14071
  Beta  occ. eigenvalues --   -1.13559  -1.13523  -1.13498  -1.13111  -1.13051
  Beta  occ. eigenvalues --   -1.13041  -1.12861  -1.12824  -1.12794  -1.12784
  Beta  occ. eigenvalues --   -1.12758  -1.12746  -1.12563  -1.12512  -1.12500
  Beta  occ. eigenvalues --   -0.17414  -0.12978  -0.11873
  Beta virt. eigenvalues --   -0.06291  -0.06170  -0.05583  -0.04573  -0.02341
  Beta virt. eigenvalues --   -0.01950  -0.01856  -0.01359  -0.01122  -0.00768
  Beta virt. eigenvalues --   -0.00708   0.00154   0.00338   0.00727   0.00793

 Mulliken charges and spin densities:
               1          2
     1  Na   0.125280  -0.010153
     2  Na  -0.460530   0.766036
     3  Na   0.108419  -0.010426
     4  Na   0.127546  -0.023068
     5  Na  -0.283213   0.171491
     6  Na   0.314130   0.064628
     7  Na   0.068368   0.041491
 Sum of Mulliken charges =  -0.00000   1.00000

 Dipole moment (field-independent basis, Debye):
    X=              0.1922    Y=             -0.0641    Z=              0.1534  Tot=              0.2541
 Quadrupole moment (field-independent basis, Debye-Ang):
   XX=            -50.3735   YY=            -62.2589   ZZ=            -78.1771
   XY=             -0.6280   XZ=             -0.7964   YZ=              1.1394

 Normal termination of Gaussian 16 at Thu Dec  7 02:46:11 2023.
