 Gaussian 16, Revision B.01,
 Gaussian 16:  ES64L-G16RevB.01 20-Dec-2017

 -------------------------
 #P B3LYP/6-311+g(d) force
 -------------------------

 -----
 DPGEN
 -----
 Symbolic Z-matrix:
 Charge =  0 Multiplicity = 2

                         Standard orientation:
 ---------------------------------------------------------------------
 Center     Atomic      Atomic             Coordinates (Angstroms)
 Number     Number       Type             X           Y           Z
 ---------------------------------------------------------------------
      1         11           0       -3.122435    0.528207    0.234070
      2         11           0        1.431044    3.164411    0.825240
      3         11           0        4.045137    0.569089   -0.250880
      4         11           0       -0.435338   -2.224591   -0.624000
      5         11           0        3.496678   -3.073623    0.138609
      6         11           0       -3.787089   -2.911082    0.332302
      7         11           0       -1.627997    3.947589   -0.655341
 ---------------------------------------------------------------------

 SCF Done:  E(UB3LYP) =  -1136.11329300     A.U. after   21 cycles

 The electronic state is 2-A.
 Alpha  occ. eigenvalues --  -38.45892 -38.45408 -38.44577 -38.44429 -38.44236
 Alpha  occ. eigenvalues --  -38.43782 -38.43573  -2.21626  -2.21174  -2.20383
 Alpha  occ. eigenvalues --   -2.20180  -2.20003  -2.19546  -2.19355  -1.15333
 Alpha  occ. eigenvalues --   -1.15331  -1.15202  -1.14876  -1.14870  -1.14760
 Alpha  occ. eigenvalues --   -1.14049  -1.14040  -1.13993  -1.13867  -1.13849
 Alpha  occ. eigenvalues --   -1.13794  -1.13689  -1.13677  -1.13614  -1.13215
 Alpha  occ. eigenvalues --   -1.13194  -1.13177  -1.13024  -1.13004  -1.12997
 Alpha  occ. eigenvalues --   -0.15757  -0.13650  -0.12940  -0.10325
 Alpha virt. eigenvalues --   -0.06909  -0.06027  -0.04719  -0.03246  -0.02701
 Alpha virt. eigenvalues --   -0.02597  -0.02346  -0.02151  -0.01882  -0.00459
 Alpha virt. eigenvalues --   -0.00294  -0.00079   0.00309   0.00429   0.00488

  Beta  occ. eigenvalues --  -38.45881 -38.45388 -38.44543 -38.44399 -38.44204
  Beta  occ. eigenvalues --  -38.43745 -38.43552  -2.21607  -2.21141  -2.20318
  Beta  occ. eigenvalues --   -2.20128  -2.19946  -2.19477  -2.19316  -1.15321
  Beta  occ. eigenvalues --   -1.15320  -1.15175  -1.14857  -1.14852  -1.14713
  Beta  occ. eigenvalues --   -1.14003  -1.13996  -1.13953  -1.13835  -1.13815
  Beta  occ. eigenvalues --   -1.13737  -1.13654  -1.13641  -1.13555  -1.13167
  Beta  occ. eigenvalues --   -1.13145  -1.13133  -1.12998  -1.12981  -1.12963
  Beta  occ. eigenvalues --   -0.15424  -0.13055  -0.12517
  Beta virt. eigenvalues --   -0.06997  -0.06832  -0.05643  -0.04380  -0.03000
  Beta virt. eigenvalues --   -0.02504  -0.02223  -0.02120  -0.01918  -0.01610
  Beta virt. eigenvalues --   -0.00276   0.00019   0.00219   0.00364   0.00462

 Mulliken charges and spin densities:
               1          2
     1  Na  -0.344648   0.226971
     2  Na  -0.022383   0.152722
     3  Na  -0.176311   0.130952
     4  Na  -0.559828   0.097630
     5  Na   0.243304   0.163751
     6  Na   0.725809   0.199640
     7  Na   0.134057   0.028333
 Sum of Mulliken charges =  -0.00000   1.00000

 Dipole moment (field-independent basis, Debye):
    X=             -1.7519    Y=             -1.1982    Z=              0.0202  Tot=              2.1226
 Quadrupole moment (field-independent basis, Debye-Ang):
   XX=            -60.9634   YY=            -65.6295   ZZ=            -72.0169
   XY=              3.1285   XZ=             -1.2391   YZ=             -1.6062

 Normal termination of Gaussian 16 at Mon Dec  4 02:55:09 2023.
