 Gaussian 16, Revision B.01,
 Gaussian 16:  ES64L-G16RevB.01 20-Dec-2017

 -------------------------
 #P B3LYP/6-311+g(d) force
 -------------------------

 -----
 DPGEN
 -----
 Symbolic Z-matrix:
 Charge =  0 Multiplicity = 2

                         Standard orientation:
 ---------------------------------------------------------------------
 Center     Atomic      Atomic             Coordinates (Angstroms)
 Number     Number       Type             X           Y           Z
 ---------------------------------------------------------------------
      1         11           0       -3.558892    0.646912    0.199457
      2         11           0       -1.645843    3.488675    0.425525
      3         11           0        5.175144    0.575250   -0.623009
      4         11           0       -3.292942   -2.307700   -0.546829
      5         11           0       -0.065946   -2.762104    0.127363
      6         11           0        2.952397   -1.140839    1.057109
      7         11           0        0.436081    1.499807   -0.639617
 ---------------------------------------------------------------------

 SCF Done:  E(UB3LYP) =  -1136.11962150     A.U. after   19 cycles

 The electronic state is 2-A.
 Alpha  occ. eigenvalues --  -38.45133 -38.44510 -38.44303 -38.44111 -38.43846
 Alpha  occ. eigenvalues --  -38.43836 -38.43432  -2.20928  -2.20355  -2.20115
 Alpha  occ. eigenvalues --   -2.19921  -2.19679  -2.19660  -2.19283  -1.14626
 Alpha  occ. eigenvalues --   -1.14592  -1.14546  -1.14045  -1.14020  -1.13976
 Alpha  occ. eigenvalues --   -1.13769  -1.13751  -1.13739  -1.13601  -1.13582
 Alpha  occ. eigenvalues --   -1.13566  -1.13357  -1.13331  -1.13327  -1.13316
 Alpha  occ. eigenvalues --   -1.13315  -1.13289  -1.12968  -1.12931  -1.12914
 Alpha  occ. eigenvalues --   -0.16548  -0.14129  -0.12865  -0.10880
 Alpha virt. eigenvalues --   -0.06433  -0.05557  -0.04333  -0.03811  -0.02995
 Alpha virt. eigenvalues --   -0.02366  -0.01915  -0.01420  -0.01190  -0.00696
 Alpha virt. eigenvalues --   -0.00365  -0.00266   0.00391   0.00578   0.00625

  Beta  occ. eigenvalues --  -38.45114 -38.44465 -38.44209 -38.44106 -38.43835
  Beta  occ. eigenvalues --  -38.43801 -38.43419  -2.20894  -2.20275  -2.19938
  Beta  occ. eigenvalues --   -2.19921  -2.19677  -2.19577  -2.19262  -1.14601
  Beta  occ. eigenvalues --   -1.14566  -1.14528  -1.13990  -1.13968  -1.13908
  Beta  occ. eigenvalues --   -1.13662  -1.13631  -1.13625  -1.13606  -1.13581
  Beta  occ. eigenvalues --   -1.13503  -1.13346  -1.13326  -1.13317  -1.13275
  Beta  occ. eigenvalues --   -1.13261  -1.13233  -1.12941  -1.12919  -1.12893
  Beta  occ. eigenvalues --   -0.16100  -0.13330  -0.12628
  Beta virt. eigenvalues --   -0.07428  -0.06203  -0.05206  -0.04011  -0.03513
  Beta virt. eigenvalues --   -0.02708  -0.02126  -0.01584  -0.01221  -0.00983
  Beta virt. eigenvalues --   -0.00351  -0.00179   0.00043   0.00562   0.00676

 Mulliken charges and spin densities:
               1          2
     1  Na  -0.315422   0.343829
     2  Na   1.116577   0.059274
     3  Na   0.088192   0.427743
     4  Na   0.559285   0.061606
     5  Na  -0.648478   0.086126
     6  Na   0.561882   0.038761
     7  Na  -1.362035  -0.017339
 Sum of Mulliken charges =  -0.00000   1.00000

 Dipole moment (field-independent basis, Debye):
    X=             -0.1417    Y=              0.8584    Z=             -0.0055  Tot=              0.8700
 Quadrupole moment (field-independent basis, Debye-Ang):
   XX=            -68.4211   YY=            -63.9635   ZZ=            -68.8767
   XY=             -2.2641   XZ=             -1.8989   YZ=              0.3912

 Normal termination of Gaussian 16 at Sun Dec  3 13:23:14 2023.
