 Gaussian 16, Revision B.01,
 Gaussian 16:  ES64L-G16RevB.01 20-Dec-2017

 -------------------------
 #P B3LYP/6-311+g(d) force
 -------------------------

 -----
 DPGEN
 -----
 Symbolic Z-matrix:
 Charge =  0 Multiplicity = 2

                         Standard orientation:
 ---------------------------------------------------------------------
 Center     Atomic      Atomic             Coordinates (Angstroms)
 Number     Number       Type             X           Y           Z
 ---------------------------------------------------------------------
      1         11           0        2.601671   -2.175914   -0.077172
      2         11           0       -2.143396   -2.690641   -0.029185
      3         11           0        0.126737    0.110737   -1.796898
      4         11           0       -3.263743    0.724206   -0.167361
      5         11           0       -0.294914   -0.157729    1.875825
      6         11           0       -0.604401    3.058661    0.077473
      7         11           0        3.578046    1.130681    0.117317
 ---------------------------------------------------------------------

 SCF Done:  E(UB3LYP) =  -1136.12668683     A.U. after   21 cycles

 The electronic state is 2-A.
 Alpha  occ. eigenvalues --  -38.45232 -38.44808 -38.44517 -38.43716 -38.43593
 Alpha  occ. eigenvalues --  -38.43578 -38.43094  -2.20978  -2.20611  -2.20289
 Alpha  occ. eigenvalues --   -2.19563  -2.19428  -2.19372  -2.18902  -1.14653
 Alpha  occ. eigenvalues --   -1.14632  -1.14621  -1.14291  -1.14271  -1.14243
 Alpha  occ. eigenvalues --   -1.13964  -1.13949  -1.13928  -1.13257  -1.13195
 Alpha  occ. eigenvalues --   -1.13178  -1.13111  -1.13057  -1.13056  -1.13036
 Alpha  occ. eigenvalues --   -1.13031  -1.13016  -1.12571  -1.12567  -1.12549
 Alpha  occ. eigenvalues --   -0.17613  -0.13297  -0.11678  -0.10080
 Alpha virt. eigenvalues --   -0.06544  -0.05863  -0.04658  -0.03254  -0.02478
 Alpha virt. eigenvalues --   -0.02252  -0.02197  -0.01555  -0.00974  -0.00756
 Alpha virt. eigenvalues --   -0.00104   0.00279   0.00609   0.00679   0.00691

  Beta  occ. eigenvalues --  -38.45234 -38.44804 -38.44515 -38.43642 -38.43593
  Beta  occ. eigenvalues --  -38.43496 -38.43090  -2.20983  -2.20607  -2.20287
  Beta  occ. eigenvalues --   -2.19428  -2.19375  -2.19277  -2.18899  -1.14646
  Beta  occ. eigenvalues --   -1.14637  -1.14625  -1.14271  -1.14264  -1.14245
  Beta  occ. eigenvalues --   -1.13950  -1.13945  -1.13930  -1.13162  -1.13099
  Beta  occ. eigenvalues --   -1.13080  -1.13036  -1.13033  -1.13024  -1.13004
  Beta  occ. eigenvalues --   -1.12948  -1.12932  -1.12571  -1.12551  -1.12541
  Beta  occ. eigenvalues --   -0.16906  -0.13166  -0.11490
  Beta virt. eigenvalues --   -0.06421  -0.06255  -0.05870  -0.04614  -0.02564
  Beta virt. eigenvalues --   -0.02081  -0.01788  -0.01528  -0.01229  -0.01015
  Beta virt. eigenvalues --   -0.00770   0.00085   0.00317   0.00671   0.00710

 Mulliken charges and spin densities:
               1          2
     1  Na   0.015860  -0.118224
     2  Na  -0.088663  -0.144320
     3  Na   0.035057   0.678051
     4  Na   0.254993   0.015072
     5  Na  -0.079296   0.778158
     6  Na  -0.142636  -0.140336
     7  Na   0.004684  -0.068401
 Sum of Mulliken charges =  -0.00000   1.00000

 Dipole moment (field-independent basis, Debye):
    X=              0.5500    Y=              0.0517    Z=             -0.0430  Tot=              0.5541
 Quadrupole moment (field-independent basis, Debye-Ang):
   XX=            -50.3480   YY=            -63.2928   ZZ=            -78.3999
   XY=              0.5555   XZ=              1.1160   YZ=              0.7797

 Normal termination of Gaussian 16 at Fri Dec  8 01:05:43 2023.
