 Gaussian 16, Revision B.01,
 Gaussian 16:  ES64L-G16RevB.01 20-Dec-2017

 -------------------------
 #P B3LYP/6-311+g(d) force
 -------------------------

 -----
 DPGEN
 -----
 Symbolic Z-matrix:
 Charge =  0 Multiplicity = 2

                         Standard orientation:
 ---------------------------------------------------------------------
 Center     Atomic      Atomic             Coordinates (Angstroms)
 Number     Number       Type             X           Y           Z
 ---------------------------------------------------------------------
      1         11           0        1.671558   -0.449167   -1.510961
      2         11           0       -0.133216    0.181543    1.918027
      3         11           0        3.188226   -1.516053    0.733040
      4         11           0       -3.974434   -0.128421    0.408369
      5         11           0       -1.185179    1.361105   -1.085679
      6         11           0        1.507268    2.829046    0.109718
      7         11           0       -1.074223   -2.278053   -0.572515
 ---------------------------------------------------------------------

 SCF Done:  E(UB3LYP) =  -1136.12650905     A.U. after   21 cycles

 The electronic state is 2-A.
 Alpha  occ. eigenvalues --  -38.45009 -38.44355 -38.44217 -38.44098 -38.43201
 Alpha  occ. eigenvalues --  -38.42981 -38.42974  -2.20780  -2.20180  -2.20077
 Alpha  occ. eigenvalues --   -2.19919  -2.19161  -2.18916  -2.18805  -1.14459
 Alpha  occ. eigenvalues --   -1.14441  -1.14402  -1.13930  -1.13808  -1.13799
 Alpha  occ. eigenvalues --   -1.13773  -1.13712  -1.13685  -1.13620  -1.13600
 Alpha  occ. eigenvalues --   -1.13512  -1.12863  -1.12818  -1.12756  -1.12624
 Alpha  occ. eigenvalues --   -1.12584  -1.12543  -1.12466  -1.12457  -1.12431
 Alpha  occ. eigenvalues --   -0.18382  -0.13295  -0.11703  -0.10858
 Alpha virt. eigenvalues --   -0.06808  -0.04929  -0.04085  -0.03350  -0.02674
 Alpha virt. eigenvalues --   -0.02564  -0.02348  -0.01111  -0.00704  -0.00045
 Alpha virt. eigenvalues --    0.00092   0.00182   0.00410   0.00722   0.00789

  Beta  occ. eigenvalues --  -38.45007 -38.44346 -38.44145 -38.44076 -38.43158
  Beta  occ. eigenvalues --  -38.42974 -38.42950  -2.20777  -2.20162  -2.19944
  Beta  occ. eigenvalues --   -2.19883  -2.19084  -2.18863  -2.18808  -1.14456
  Beta  occ. eigenvalues --   -1.14433  -1.14401  -1.13919  -1.13789  -1.13784
  Beta  occ. eigenvalues --   -1.13683  -1.13620  -1.13594  -1.13585  -1.13549
  Beta  occ. eigenvalues --   -1.13491  -1.12793  -1.12764  -1.12703  -1.12593
  Beta  occ. eigenvalues --   -1.12526  -1.12509  -1.12463  -1.12452  -1.12419
  Beta  occ. eigenvalues --   -0.17606  -0.13166  -0.11509
  Beta virt. eigenvalues --   -0.06972  -0.06604  -0.04895  -0.03777  -0.03003
  Beta virt. eigenvalues --   -0.02267  -0.01983  -0.01562  -0.01058  -0.00373
  Beta virt. eigenvalues --   -0.00017   0.00089   0.00206   0.00535   0.00761

 Mulliken charges and spin densities:
               1          2
     1  Na   0.432066   0.068814
     2  Na  -0.378588   0.720088
     3  Na  -0.117723   0.026979
     4  Na   0.312691  -0.016891
     5  Na  -0.138855   0.197868
     6  Na  -0.017616  -0.038930
     7  Na  -0.091975   0.042072
 Sum of Mulliken charges =  -0.00000   1.00000

 Dipole moment (field-independent basis, Debye):
    X=             -0.8104    Y=             -0.1868    Z=              0.4625  Tot=              0.9516
 Quadrupole moment (field-independent basis, Debye-Ang):
   XX=            -49.9446   YY=            -70.2551   ZZ=            -71.8874
   XY=              1.1988   XZ=              0.6136   YZ=             -0.6374

 Normal termination of Gaussian 16 at Tue Dec  5 19:53:42 2023.
