 Gaussian 16, Revision B.01,
 Gaussian 16:  ES64L-G16RevB.01 20-Dec-2017

 -------------------------
 #P B3LYP/6-311+g(d) force
 -------------------------

 -----
 DPGEN
 -----
 Symbolic Z-matrix:
 Charge =  0 Multiplicity = 2

                         Standard orientation:
 ---------------------------------------------------------------------
 Center     Atomic      Atomic             Coordinates (Angstroms)
 Number     Number       Type             X           Y           Z
 ---------------------------------------------------------------------
      1         11           0       -0.922627    1.842778    0.068519
      2         11           0       -1.271978   -0.838621    1.855014
      3         11           0       -4.312977    0.297809    0.177380
      4         11           0       -2.181833   -1.131446   -1.758611
      5         11           0        1.401240   -1.279574   -0.068612
      6         11           0        4.708122   -0.760840    0.071931
      7         11           0        2.580054    1.869893   -0.345622
 ---------------------------------------------------------------------

 SCF Done:  E(UB3LYP) =  -1136.11125732     A.U. after   29 cycles

 The electronic state is 2-A.
 Alpha  occ. eigenvalues --  -38.45179 -38.45175 -38.44345 -38.44070 -38.43696
 Alpha  occ. eigenvalues --  -38.43253 -38.42556  -2.21068  -2.20994  -2.20193
 Alpha  occ. eigenvalues --   -2.19918  -2.19604  -2.19069  -2.18450  -1.14751
 Alpha  occ. eigenvalues --   -1.14715  -1.14681  -1.14674  -1.14652  -1.14633
 Alpha  occ. eigenvalues --   -1.13858  -1.13829  -1.13823  -1.13611  -1.13589
 Alpha  occ. eigenvalues --   -1.13513  -1.13314  -1.13247  -1.13227  -1.12737
 Alpha  occ. eigenvalues --   -1.12731  -1.12709  -1.12147  -1.12119  -1.12062
 Alpha  occ. eigenvalues --   -0.18279  -0.14481  -0.11385  -0.10451
 Alpha virt. eigenvalues --   -0.07879  -0.05297  -0.04299  -0.03458  -0.03010
 Alpha virt. eigenvalues --   -0.02254  -0.02018  -0.01662  -0.01153  -0.00732
 Alpha virt. eigenvalues --   -0.00179   0.00131   0.00196   0.00534   0.00729

  Beta  occ. eigenvalues --  -38.45169 -38.45123 -38.44308 -38.44036 -38.43648
  Beta  occ. eigenvalues --  -38.43253 -38.42537  -2.20987  -2.20969  -2.20125
  Beta  occ. eigenvalues --   -2.19853  -2.19520  -2.19071  -2.18416  -1.14676
  Beta  occ. eigenvalues --   -1.14664  -1.14648  -1.14634  -1.14616  -1.14603
  Beta  occ. eigenvalues --   -1.13808  -1.13784  -1.13777  -1.13569  -1.13548
  Beta  occ. eigenvalues --   -1.13463  -1.13260  -1.13192  -1.13137  -1.12737
  Beta  occ. eigenvalues --   -1.12730  -1.12709  -1.12125  -1.12091  -1.12032
  Beta  occ. eigenvalues --   -0.17565  -0.14188  -0.10260
  Beta virt. eigenvalues --   -0.07668  -0.07556  -0.04817  -0.04006  -0.03244
  Beta virt. eigenvalues --   -0.02729  -0.01873  -0.01458  -0.01166  -0.01014
  Beta virt. eigenvalues --   -0.00638  -0.00027   0.00197   0.00256   0.00629

 Mulliken charges and spin densities:
               1          2
     1  Na  -0.559061   0.280516
     2  Na   0.299642   0.060241
     3  Na   0.581013   0.265523
     4  Na  -0.032825  -0.138215
     5  Na  -0.471531   0.277546
     6  Na   0.264958   0.134745
     7  Na  -0.082196   0.119645
 Sum of Mulliken charges =  -0.00000   1.00000

 Dipole moment (field-independent basis, Debye):
    X=             -0.8672    Y=              0.0610    Z=              0.7992  Tot=              1.1808
 Quadrupole moment (field-independent basis, Debye-Ang):
   XX=            -66.5948   YY=            -74.0082   ZZ=            -63.8209
   XY=              0.0284   XZ=             -5.6642   YZ=             -3.0973

 Normal termination of Gaussian 16 at Fri Dec  8 17:08:22 2023.
