 Gaussian 16, Revision B.01,
 Gaussian 16:  ES64L-G16RevB.01 20-Dec-2017

 -------------------------
 #P B3LYP/6-311+g(d) force
 -------------------------

 -----
 DPGEN
 -----
 Symbolic Z-matrix:
 Charge =  0 Multiplicity = 2

                         Standard orientation:
 ---------------------------------------------------------------------
 Center     Atomic      Atomic             Coordinates (Angstroms)
 Number     Number       Type             X           Y           Z
 ---------------------------------------------------------------------
      1         11           0       -0.194994    2.306212    1.203141
      2         11           0       -1.501460    1.625146   -1.534959
      3         11           0        3.674958    0.136861   -0.687226
      4         11           0        0.830737   -0.107291   -0.515143
      5         11           0       -1.133596   -2.288299   -1.377435
      6         11           0       -2.019475   -0.193396    0.710513
      7         11           0        0.343830   -1.479234    2.201109
 ---------------------------------------------------------------------

 SCF Done:  E(UB3LYP) =  -1136.10894413     A.U. after   23 cycles

 The electronic state is 2-A.
 Alpha  occ. eigenvalues --  -38.44614 -38.43954 -38.43687 -38.43675 -38.43538
 Alpha  occ. eigenvalues --  -38.43258 -38.42267  -2.20514  -2.19774  -2.19672
 Alpha  occ. eigenvalues --   -2.19577  -2.19487  -2.19402  -2.18512  -1.14239
 Alpha  occ. eigenvalues --   -1.14148  -1.14094  -1.13530  -1.13474  -1.13392
 Alpha  occ. eigenvalues --   -1.13390  -1.13348  -1.13323  -1.13289  -1.13254
 Alpha  occ. eigenvalues --   -1.13214  -1.13172  -1.13131  -1.13082  -1.13067
 Alpha  occ. eigenvalues --   -1.13032  -1.12937  -1.12222  -1.12167  -1.12109
 Alpha  occ. eigenvalues --   -0.19759  -0.12556  -0.12299  -0.12131
 Alpha virt. eigenvalues --   -0.05358  -0.04492  -0.04291  -0.03153  -0.02928
 Alpha virt. eigenvalues --   -0.02801  -0.01141  -0.00873  -0.00763   0.00302
 Alpha virt. eigenvalues --    0.00493   0.00568   0.00721   0.00927   0.00970

  Beta  occ. eigenvalues --  -38.44542 -38.43938 -38.43658 -38.43645 -38.43512
  Beta  occ. eigenvalues --  -38.43230 -38.42237  -2.20384  -2.19744  -2.19621
  Beta  occ. eigenvalues --   -2.19523  -2.19442  -2.19359  -2.18464  -1.14145
  Beta  occ. eigenvalues --   -1.14052  -1.14004  -1.13505  -1.13445  -1.13371
  Beta  occ. eigenvalues --   -1.13370  -1.13310  -1.13282  -1.13243  -1.13215
  Beta  occ. eigenvalues --   -1.13171  -1.13124  -1.13096  -1.13048  -1.13034
  Beta  occ. eigenvalues --   -1.12952  -1.12910  -1.12162  -1.12106  -1.12085
  Beta  occ. eigenvalues --   -0.18844  -0.12200  -0.11926
  Beta virt. eigenvalues --   -0.08255  -0.05107  -0.04145  -0.03961  -0.02706
  Beta virt. eigenvalues --   -0.02531  -0.01970  -0.01058  -0.00792  -0.00425
  Beta virt. eigenvalues --    0.00343   0.00577   0.00659   0.00785   0.00954

 Mulliken charges and spin densities:
               1          2
     1  Na   0.280881   0.256002
     2  Na   0.265394   0.293775
     3  Na   0.233872  -0.253084
     4  Na  -1.693414  -0.276836
     5  Na   0.447696   0.290028
     6  Na   0.441429   0.281549
     7  Na   0.024142   0.408566
 Sum of Mulliken charges =  -0.00000   1.00000

 Dipole moment (field-independent basis, Debye):
    X=             -0.2036    Y=             -0.1468    Z=              0.2741  Tot=              0.3717
 Quadrupole moment (field-independent basis, Debye-Ang):
   XX=            -64.9922   YY=            -67.2203   ZZ=            -60.1718
   XY=              0.0933   XZ=              1.6278   YZ=              0.6078

 Normal termination of Gaussian 16 at Thu Dec  7 12:07:04 2023.
