 Gaussian 16, Revision B.01,
 Gaussian 16:  ES64L-G16RevB.01 20-Dec-2017

 -------------------------
 #P B3LYP/6-311+g(d) force
 -------------------------

 -----
 DPGEN
 -----
 Symbolic Z-matrix:
 Charge =  0 Multiplicity = 2

                         Standard orientation:
 ---------------------------------------------------------------------
 Center     Atomic      Atomic             Coordinates (Angstroms)
 Number     Number       Type             X           Y           Z
 ---------------------------------------------------------------------
      1         11           0        0.087616   -0.043094   -1.047290
      2         11           0        1.791258   -2.207329   -0.160518
      3         11           0       -1.831885   -2.055257   -0.551424
      4         11           0       -0.466823   -0.476453    2.145243
      5         11           0        3.523530    0.942603   -0.100493
      6         11           0        0.114615    2.702060   -0.058268
      7         11           0       -3.218312    1.137469   -0.227250
 ---------------------------------------------------------------------

 SCF Done:  E(UB3LYP) =  -1136.12296740     A.U. after   20 cycles

 The electronic state is 2-A.
 Alpha  occ. eigenvalues --  -38.44641 -38.44425 -38.43606 -38.43503 -38.43484
 Alpha  occ. eigenvalues --  -38.43320 -38.43155  -2.20412  -2.20233  -2.19499
 Alpha  occ. eigenvalues --   -2.19444  -2.19347  -2.19319  -2.19226  -1.14088
 Alpha  occ. eigenvalues --   -1.14069  -1.14048  -1.13902  -1.13892  -1.13871
 Alpha  occ. eigenvalues --   -1.13409  -1.13310  -1.13191  -1.13145  -1.13093
 Alpha  occ. eigenvalues --   -1.13084  -1.13021  -1.13003  -1.12964  -1.12922
 Alpha  occ. eigenvalues --   -1.12874  -1.12863  -1.12844  -1.12841  -1.12821
 Alpha  occ. eigenvalues --   -0.18834  -0.13244  -0.12261  -0.10444
 Alpha virt. eigenvalues --   -0.06342  -0.05285  -0.04185  -0.02900  -0.02461
 Alpha virt. eigenvalues --   -0.02289  -0.02169  -0.01355  -0.00315  -0.00259
 Alpha virt. eigenvalues --   -0.00069   0.00250   0.00717   0.00824   0.00855

  Beta  occ. eigenvalues --  -38.44643 -38.44417 -38.43599 -38.43482 -38.43480
  Beta  occ. eigenvalues --  -38.43209 -38.43119  -2.20417  -2.20222  -2.19490
  Beta  occ. eigenvalues --   -2.19410  -2.19335  -2.19265  -2.19022  -1.14084
  Beta  occ. eigenvalues --   -1.14074  -1.14051  -1.13888  -1.13878  -1.13863
  Beta  occ. eigenvalues --   -1.13386  -1.13289  -1.13169  -1.13114  -1.13086
  Beta  occ. eigenvalues --   -1.13035  -1.12997  -1.12970  -1.12922  -1.12902
  Beta  occ. eigenvalues --   -1.12834  -1.12805  -1.12745  -1.12704  -1.12675
  Beta  occ. eigenvalues --   -0.18110  -0.13024  -0.12046
  Beta virt. eigenvalues --   -0.06498  -0.06196  -0.05258  -0.04139  -0.02253
  Beta virt. eigenvalues --   -0.02121  -0.01741  -0.01342  -0.01121  -0.00327
  Beta virt. eigenvalues --   -0.00260   0.00138   0.00319   0.00776   0.00831

 Mulliken charges and spin densities:
               1          2
     1  Na  -1.182859   0.037929
     2  Na   0.547952   0.081905
     3  Na   0.646958   0.170777
     4  Na  -0.525358   0.614359
     5  Na   0.104422   0.021432
     6  Na   0.172837   0.016309
     7  Na   0.236048   0.057288
 Sum of Mulliken charges =  -0.00000   1.00000

 Dipole moment (field-independent basis, Debye):
    X=              0.1413    Y=              0.1971    Z=              0.4277  Tot=              0.4916
 Quadrupole moment (field-independent basis, Debye-Ang):
   XX=            -48.9596   YY=            -65.3410   ZZ=            -76.0287
   XY=             -0.4827   XZ=              0.8754   YZ=              0.6793

 Normal termination of Gaussian 16 at Tue Dec  5 13:07:24 2023.
