 Gaussian 16, Revision B.01,
 Gaussian 16:  ES64L-G16RevB.01 20-Dec-2017

 -------------------------
 #P B3LYP/6-311+g(d) force
 -------------------------

 -----
 DPGEN
 -----
 Symbolic Z-matrix:
 Charge =  0 Multiplicity = 2

                         Standard orientation:
 ---------------------------------------------------------------------
 Center     Atomic      Atomic             Coordinates (Angstroms)
 Number     Number       Type             X           Y           Z
 ---------------------------------------------------------------------
      1         11           0       -0.013225    0.347635    2.003945
      2         11           0        1.349845    2.249997   -0.136126
      3         11           0        3.186689   -0.463683   -0.229372
      4         11           0        0.177909   -2.471146    0.503722
      5         11           0       -2.714450   -1.148824   -0.244572
      6         11           0        0.123213   -0.491782   -1.708853
      7         11           0       -2.109981    1.977803   -0.188743
 ---------------------------------------------------------------------

 SCF Done:  E(UB3LYP) =  -1136.13463867     A.U. after   19 cycles

 The electronic state is 2-A.
 Alpha  occ. eigenvalues --  -38.44143 -38.43701 -38.43635 -38.43440 -38.43300
 Alpha  occ. eigenvalues --  -38.43120 -38.43004  -2.19988  -2.19610  -2.19595
 Alpha  occ. eigenvalues --   -2.19459  -2.19183  -2.19038  -2.18959  -1.13665
 Alpha  occ. eigenvalues --   -1.13647  -1.13628  -1.13322  -1.13279  -1.13274
 Alpha  occ. eigenvalues --   -1.13262  -1.13248  -1.13202  -1.13183  -1.13106
 Alpha  occ. eigenvalues --   -1.13054  -1.12848  -1.12844  -1.12826  -1.12723
 Alpha  occ. eigenvalues --   -1.12707  -1.12648  -1.12643  -1.12617  -1.12550
 Alpha  occ. eigenvalues --   -0.19363  -0.13340  -0.12398  -0.11235
 Alpha virt. eigenvalues --   -0.05695  -0.04848  -0.04156  -0.03350  -0.03063
 Alpha virt. eigenvalues --   -0.02725  -0.01646  -0.00804  -0.00098   0.00069
 Alpha virt. eigenvalues --    0.00119   0.00360   0.00845   0.00960   0.00977

  Beta  occ. eigenvalues --  -38.44139 -38.43694 -38.43540 -38.43377 -38.43295
  Beta  occ. eigenvalues --  -38.43112 -38.42985  -2.19983  -2.19600  -2.19421
  Beta  occ. eigenvalues --   -2.19343  -2.19177  -2.19028  -2.18929  -1.13657
  Beta  occ. eigenvalues --   -1.13638  -1.13620  -1.13306  -1.13272  -1.13231
  Beta  occ. eigenvalues --   -1.13166  -1.13122  -1.13109  -1.13082  -1.13027
  Beta  occ. eigenvalues --   -1.12969  -1.12846  -1.12835  -1.12804  -1.12715
  Beta  occ. eigenvalues --   -1.12672  -1.12642  -1.12624  -1.12554  -1.12537
  Beta  occ. eigenvalues --   -0.18600  -0.13068  -0.12151
  Beta virt. eigenvalues --   -0.07236  -0.05642  -0.04854  -0.04130  -0.02558
  Beta virt. eigenvalues --   -0.02254  -0.01635  -0.01540  -0.00765   0.00001
  Beta virt. eigenvalues --    0.00051   0.00121   0.00388   0.00899   0.00951

 Mulliken charges and spin densities:
               1          2
     1  Na  -0.586534   0.575118
     2  Na   0.233109  -0.036768
     3  Na   0.183726  -0.067287
     4  Na   0.424141   0.059026
     5  Na   0.301710  -0.006458
     6  Na  -0.652229   0.527788
     7  Na   0.096077  -0.051420
 Sum of Mulliken charges =  -0.00000   1.00000

 Dipole moment (field-independent basis, Debye):
    X=              0.2306    Y=             -0.0314    Z=              0.0355  Tot=              0.2354
 Quadrupole moment (field-independent basis, Debye-Ang):
   XX=            -55.1984   YY=            -67.5315   ZZ=            -71.6794
   XY=             -0.4755   XZ=              0.2760   YZ=             -1.3464

 Normal termination of Gaussian 16 at Wed Dec  6 00:20:25 2023.
