 Gaussian 16, Revision B.01,
 Gaussian 16:  ES64L-G16RevB.01 20-Dec-2017

 -------------------------
 #P B3LYP/6-311+g(d) force
 -------------------------

 -----
 DPGEN
 -----
 Symbolic Z-matrix:
 Charge =  0 Multiplicity = 2

                         Standard orientation:
 ---------------------------------------------------------------------
 Center     Atomic      Atomic             Coordinates (Angstroms)
 Number     Number       Type             X           Y           Z
 ---------------------------------------------------------------------
      1         11           0        0.750837    2.701741   -0.368112
      2         11           0        3.272896    0.787846    0.597835
      3         11           0       -0.329467   -0.052315    1.853384
      4         11           0       -2.844521    1.710473   -0.410764
      5         11           0       -3.114941   -1.989430    0.549103
      6         11           0        2.603869   -2.387546   -0.434991
      7         11           0       -0.338673   -0.770770   -1.786454
 ---------------------------------------------------------------------

 SCF Done:  E(UB3LYP) =  -1136.12708813     A.U. after   22 cycles

 The electronic state is 2-A.
 Alpha  occ. eigenvalues --  -38.44731 -38.44445 -38.44384 -38.44280 -38.43943
 Alpha  occ. eigenvalues --  -38.43781 -38.42934  -2.20517  -2.20274  -2.20164
 Alpha  occ. eigenvalues --   -2.20102  -2.19776  -2.19568  -2.18761  -1.14197
 Alpha  occ. eigenvalues --   -1.14172  -1.14146  -1.13965  -1.13922  -1.13886
 Alpha  occ. eigenvalues --   -1.13826  -1.13823  -1.13794  -1.13779  -1.13757
 Alpha  occ. eigenvalues --   -1.13743  -1.13463  -1.13419  -1.13388  -1.13233
 Alpha  occ. eigenvalues --   -1.13224  -1.13215  -1.12443  -1.12428  -1.12405
 Alpha  occ. eigenvalues --   -0.17718  -0.13465  -0.11694  -0.10602
 Alpha virt. eigenvalues --   -0.06325  -0.06131  -0.04388  -0.03242  -0.02717
 Alpha virt. eigenvalues --   -0.02428  -0.02168  -0.01632  -0.00871  -0.00230
 Alpha virt. eigenvalues --   -0.00193   0.00240   0.00500   0.00631   0.00649

  Beta  occ. eigenvalues --  -38.44716 -38.44383 -38.44366 -38.44270 -38.43876
  Beta  occ. eigenvalues --  -38.43776 -38.42934  -2.20491  -2.20160  -2.20132
  Beta  occ. eigenvalues --   -2.20083  -2.19651  -2.19560  -2.18764  -1.14169
  Beta  occ. eigenvalues --   -1.14154  -1.14125  -1.13885  -1.13846  -1.13810
  Beta  occ. eigenvalues --   -1.13800  -1.13788  -1.13767  -1.13767  -1.13739
  Beta  occ. eigenvalues --   -1.13729  -1.13379  -1.13332  -1.13295  -1.13227
  Beta  occ. eigenvalues --   -1.13214  -1.13205  -1.12448  -1.12428  -1.12388
  Beta  occ. eigenvalues --   -0.17071  -0.13255  -0.11395
  Beta virt. eigenvalues --   -0.06988  -0.06142  -0.05985  -0.04107  -0.02804
  Beta virt. eigenvalues --   -0.02135  -0.01980  -0.01665  -0.01353  -0.00856
  Beta virt. eigenvalues --   -0.00223  -0.00015   0.00291   0.00613   0.00659

 Mulliken charges and spin densities:
               1          2
     1  Na  -0.322329  -0.030933
     2  Na   0.268510   0.065894
     3  Na   0.037328   0.414702
     4  Na   0.108481   0.072333
     5  Na  -0.014416   0.048462
     6  Na  -0.060293  -0.002054
     7  Na  -0.017282   0.431594
 Sum of Mulliken charges =  -0.00000   1.00000

 Dipole moment (field-independent basis, Debye):
    X=             -0.6986    Y=             -0.1099    Z=              0.1446  Tot=              0.7219
 Quadrupole moment (field-independent basis, Debye-Ang):
   XX=            -51.9697   YY=            -68.2478   ZZ=            -74.3022
   XY=             -0.0725   XZ=              1.4835   YZ=             -1.1438

 Normal termination of Gaussian 16 at Thu Dec  7 02:15:20 2023.
