 Gaussian 16, Revision B.01,
 Gaussian 16:  ES64L-G16RevB.01 20-Dec-2017

 -------------------------
 #P B3LYP/6-311+g(d) force
 -------------------------

 -----
 DPGEN
 -----
 Symbolic Z-matrix:
 Charge =  0 Multiplicity = 2

                         Standard orientation:
 ---------------------------------------------------------------------
 Center     Atomic      Atomic             Coordinates (Angstroms)
 Number     Number       Type             X           Y           Z
 ---------------------------------------------------------------------
      1         11           0       -3.110998   -1.691152   -0.228743
      2         11           0        1.853845    2.284728   -0.817125
      3         11           0       -1.202922    2.565827    0.748095
      4         11           0       -1.471742    0.774413   -1.635366
      5         11           0        1.336654   -2.443636   -1.319081
      6         11           0        3.334220   -0.762411    0.850175
      7         11           0       -0.739058   -0.727771    2.402044
 ---------------------------------------------------------------------

 SCF Done:  E(UB3LYP) =  -1136.12181185     A.U. after   19 cycles

 The electronic state is 2-A.
 Alpha  occ. eigenvalues --  -38.44678 -38.44475 -38.44070 -38.44059 -38.44001
 Alpha  occ. eigenvalues --  -38.43890 -38.43798  -2.20431  -2.20275  -2.19847
 Alpha  occ. eigenvalues --   -2.19841  -2.19791  -2.19754  -2.19696  -1.14106
 Alpha  occ. eigenvalues --   -1.14090  -1.14060  -1.13927  -1.13906  -1.13894
 Alpha  occ. eigenvalues --   -1.13570  -1.13534  -1.13517  -1.13509  -1.13502
 Alpha  occ. eigenvalues --   -1.13496  -1.13492  -1.13466  -1.13441  -1.13440
 Alpha  occ. eigenvalues --   -1.13408  -1.13355  -1.13346  -1.13315  -1.13264
 Alpha  occ. eigenvalues --   -0.17350  -0.12822  -0.12097  -0.11236
 Alpha virt. eigenvalues --   -0.06110  -0.05388  -0.04628  -0.03500  -0.03464
 Alpha virt. eigenvalues --   -0.03032  -0.01468  -0.00937  -0.00799  -0.00182
 Alpha virt. eigenvalues --   -0.00111   0.00311   0.00361   0.00573   0.00639

  Beta  occ. eigenvalues --  -38.44659 -38.44377 -38.44071 -38.44055 -38.44000
  Beta  occ. eigenvalues --  -38.43878 -38.43755  -2.20395  -2.20092  -2.19847
  Beta  occ. eigenvalues --   -2.19837  -2.19792  -2.19733  -2.19617  -1.14077
  Beta  occ. eigenvalues --   -1.14067  -1.14035  -1.13801  -1.13778  -1.13770
  Beta  occ. eigenvalues --   -1.13542  -1.13522  -1.13513  -1.13504  -1.13501
  Beta  occ. eigenvalues --   -1.13496  -1.13482  -1.13463  -1.13443  -1.13429
  Beta  occ. eigenvalues --   -1.13384  -1.13332  -1.13295  -1.13273  -1.13210
  Beta  occ. eigenvalues --   -0.16668  -0.12718  -0.11915
  Beta virt. eigenvalues --   -0.07398  -0.05979  -0.05172  -0.04252  -0.03084
  Beta virt. eigenvalues --   -0.02873  -0.02172  -0.01407  -0.00891  -0.00601
  Beta virt. eigenvalues --   -0.00114   0.00057   0.00429   0.00449   0.00658

 Mulliken charges and spin densities:
               1          2
     1  Na   0.091067  -0.093073
     2  Na  -0.130282  -0.000258
     3  Na  -0.006207   0.072699
     4  Na   0.374658   0.356837
     5  Na  -0.235134   0.033549
     6  Na   0.086746   0.011520
     7  Na  -0.180848   0.618727
 Sum of Mulliken charges =  -0.00000   1.00000

 Dipole moment (field-independent basis, Debye):
    X=              0.1950    Y=             -0.1443    Z=              0.0113  Tot=              0.2429
 Quadrupole moment (field-independent basis, Debye-Ang):
   XX=            -62.0228   YY=            -67.7518   ZZ=            -68.4288
   XY=              2.0637   XZ=              0.4936   YZ=              1.8903

 Normal termination of Gaussian 16 at Sun Dec  3 13:50:43 2023.
