 Gaussian 16, Revision B.01,
 Gaussian 16:  ES64L-G16RevB.01 20-Dec-2017

 -------------------------
 #P B3LYP/6-311+g(d) force
 -------------------------

 -----
 DPGEN
 -----
 Symbolic Z-matrix:
 Charge =  0 Multiplicity = 2

                         Standard orientation:
 ---------------------------------------------------------------------
 Center     Atomic      Atomic             Coordinates (Angstroms)
 Number     Number       Type             X           Y           Z
 ---------------------------------------------------------------------
      1         11           0       -2.684063   -2.001081    0.145098
      2         11           0        0.315774    0.108980    2.184225
      3         11           0       -0.285215   -0.251331   -1.528773
      4         11           0        1.194548   -2.530618   -0.448221
      5         11           0        3.181016    0.043901    0.154737
      6         11           0       -2.482924    1.885680    0.094731
      7         11           0        0.760865    2.744469   -0.601797
 ---------------------------------------------------------------------

 SCF Done:  E(UB3LYP) =  -1136.13444999     A.U. after   19 cycles

 The electronic state is 2-A.
 Alpha  occ. eigenvalues --  -38.44001 -38.43946 -38.43942 -38.43899 -38.43612
 Alpha  occ. eigenvalues --  -38.43306 -38.43150  -2.19795  -2.19785  -2.19762
 Alpha  occ. eigenvalues --   -2.19736  -2.19503  -2.19159  -2.19157  -1.13465
 Alpha  occ. eigenvalues --   -1.13463  -1.13447  -1.13441  -1.13435  -1.13428
 Alpha  occ. eigenvalues --   -1.13425  -1.13418  -1.13407  -1.13394  -1.13390
 Alpha  occ. eigenvalues --   -1.13377  -1.13303  -1.13140  -1.13097  -1.12882
 Alpha  occ. eigenvalues --   -1.12823  -1.12806  -1.12787  -1.12776  -1.12747
 Alpha  occ. eigenvalues --   -0.18472  -0.12914  -0.12392  -0.10838
 Alpha virt. eigenvalues --   -0.05580  -0.05422  -0.04528  -0.03214  -0.02952
 Alpha virt. eigenvalues --   -0.02651  -0.01564  -0.01211  -0.00410  -0.00269
 Alpha virt. eigenvalues --   -0.00016   0.00345   0.00764   0.00839   0.00892

  Beta  occ. eigenvalues --  -38.44002 -38.43945 -38.43895 -38.43843 -38.43598
  Beta  occ. eigenvalues --  -38.43291 -38.43093  -2.19788  -2.19763  -2.19734
  Beta  occ. eigenvalues --   -2.19611  -2.19481  -2.19133  -2.19056  -1.13460
  Beta  occ. eigenvalues --   -1.13444  -1.13436  -1.13428  -1.13422  -1.13416
  Beta  occ. eigenvalues --   -1.13394  -1.13393  -1.13373  -1.13328  -1.13295
  Beta  occ. eigenvalues --   -1.13273  -1.13273  -1.13108  -1.13087  -1.12847
  Beta  occ. eigenvalues --   -1.12782  -1.12768  -1.12752  -1.12708  -1.12679
  Beta  occ. eigenvalues --   -0.17752  -0.12706  -0.12158
  Beta virt. eigenvalues --   -0.06913  -0.05525  -0.05367  -0.04484  -0.02460
  Beta virt. eigenvalues --   -0.02216  -0.01601  -0.01453  -0.01147  -0.00431
  Beta virt. eigenvalues --   -0.00293   0.00128   0.00376   0.00831   0.00843

 Mulliken charges and spin densities:
               1          2
     1  Na  -0.059911  -0.021751
     2  Na  -0.578544   0.776604
     3  Na  -0.022451   0.218610
     4  Na   0.280146  -0.034785
     5  Na   0.209689   0.056350
     6  Na   0.024537  -0.011931
     7  Na   0.146535   0.016903
 Sum of Mulliken charges =  -0.00000   1.00000

 Dipole moment (field-independent basis, Debye):
    X=             -0.1690    Y=             -0.0126    Z=              0.3263  Tot=              0.3676
 Quadrupole moment (field-independent basis, Debye-Ang):
   XX=            -55.8411   YY=            -63.4370   ZZ=            -74.1448
   XY=              0.4726   XZ=             -1.5724   YZ=             -0.7556

 Normal termination of Gaussian 16 at Thu Dec  7 23:28:24 2023.
