 Gaussian 16, Revision B.01,
 Gaussian 16:  ES64L-G16RevB.01 20-Dec-2017

 -------------------------
 #P B3LYP/6-311+g(d) force
 -------------------------

 -----
 DPGEN
 -----
 Symbolic Z-matrix:
 Charge =  0 Multiplicity = 2

                         Standard orientation:
 ---------------------------------------------------------------------
 Center     Atomic      Atomic             Coordinates (Angstroms)
 Number     Number       Type             X           Y           Z
 ---------------------------------------------------------------------
      1         11           0       -0.751965    0.066683    2.414345
      2         11           0       -0.088740   -2.527920   -0.218493
      3         11           0       -1.104311    2.347348   -0.560763
      4         11           0        3.133189   -1.120616    0.109096
      5         11           0       -3.361429   -0.646591   -0.114878
      6         11           0        0.153951    0.022975   -2.004418
      7         11           0        2.019305    1.858121    0.375112
 ---------------------------------------------------------------------

 SCF Done:  E(UB3LYP) =  -1136.13055201     A.U. after   20 cycles

 The electronic state is 2-A.
 Alpha  occ. eigenvalues --  -38.44773 -38.44614 -38.44123 -38.43923 -38.43237
 Alpha  occ. eigenvalues --  -38.43044 -38.42920  -2.20592  -2.20388  -2.20077
 Alpha  occ. eigenvalues --   -2.19747  -2.19117  -2.18903  -2.18821  -1.14242
 Alpha  occ. eigenvalues --   -1.14224  -1.14208  -1.14061  -1.14045  -1.14030
 Alpha  occ. eigenvalues --   -1.13769  -1.13750  -1.13671  -1.13438  -1.13407
 Alpha  occ. eigenvalues --   -1.13382  -1.12790  -1.12774  -1.12772  -1.12624
 Alpha  occ. eigenvalues --   -1.12571  -1.12539  -1.12496  -1.12464  -1.12424
 Alpha  occ. eigenvalues --   -0.18465  -0.12997  -0.11951  -0.11621
 Alpha virt. eigenvalues --   -0.06153  -0.04668  -0.04092  -0.03633  -0.03325
 Alpha virt. eigenvalues --   -0.03093  -0.01823  -0.00769  -0.00223   0.00003
 Alpha virt. eigenvalues --    0.00056   0.00354   0.00487   0.00812   0.00925

  Beta  occ. eigenvalues --  -38.44676 -38.44619 -38.44044 -38.43924 -38.43229
  Beta  occ. eigenvalues --  -38.43035 -38.42905  -2.20412  -2.20398  -2.19933
  Beta  occ. eigenvalues --   -2.19749  -2.19106  -2.18889  -2.18799  -1.14122
  Beta  occ. eigenvalues --   -1.14102  -1.14083  -1.14055  -1.14046  -1.14037
  Beta  occ. eigenvalues --   -1.13674  -1.13642  -1.13569  -1.13439  -1.13401
  Beta  occ. eigenvalues --   -1.13381  -1.12785  -1.12769  -1.12743  -1.12605
  Beta  occ. eigenvalues --   -1.12546  -1.12511  -1.12492  -1.12431  -1.12414
  Beta  occ. eigenvalues --   -0.17694  -0.12816  -0.11720
  Beta virt. eigenvalues --   -0.07667  -0.05993  -0.04668  -0.03888  -0.02978
  Beta virt. eigenvalues --   -0.02361  -0.02297  -0.01721  -0.00727  -0.00036
  Beta virt. eigenvalues --   -0.00010   0.00037   0.00375   0.00749   0.00877

 Mulliken charges and spin densities:
               1          2
     1  Na  -0.568285   0.593555
     2  Na   0.099198   0.014732
     3  Na   0.325992   0.066232
     4  Na   0.053904  -0.061362
     5  Na   0.202461  -0.086431
     6  Na  -0.159636   0.354059
     7  Na   0.046366   0.119215
 Sum of Mulliken charges =  -0.00000   1.00000

 Dipole moment (field-independent basis, Debye):
    X=             -0.4715    Y=             -0.1947    Z=              0.3624  Tot=              0.6257
 Quadrupole moment (field-independent basis, Debye-Ang):
   XX=            -55.4411   YY=            -71.9406   ZZ=            -68.3656
   XY=             -0.1043   XZ=              1.4684   YZ=              0.2131

 Normal termination of Gaussian 16 at Fri Dec  8 06:04:06 2023.
