 Gaussian 16, Revision B.01,
 Gaussian 16:  ES64L-G16RevB.01 20-Dec-2017

 -------------------------
 #P B3LYP/6-311+g(d) force
 -------------------------

 -----
 DPGEN
 -----
 Symbolic Z-matrix:
 Charge =  0 Multiplicity = 2

                         Standard orientation:
 ---------------------------------------------------------------------
 Center     Atomic      Atomic             Coordinates (Angstroms)
 Number     Number       Type             X           Y           Z
 ---------------------------------------------------------------------
      1         11           0        3.678330    0.095015    0.102984
      2         11           0        1.006535    2.378333    0.140565
      3         11           0       -2.549797    2.104889   -0.162828
      4         11           0        0.595175   -2.590562   -0.015197
      5         11           0        0.400302   -0.235575   -1.827528
      6         11           0       -0.218675   -0.312671    1.832717
      7         11           0       -2.911869   -1.439430   -0.070713
 ---------------------------------------------------------------------

 SCF Done:  E(UB3LYP) =  -1136.12963712     A.U. after   21 cycles

 The electronic state is 2-A.
 Alpha  occ. eigenvalues --  -38.45162 -38.44481 -38.43661 -38.43533 -38.43404
 Alpha  occ. eigenvalues --  -38.43180 -38.43134  -2.20924  -2.20287  -2.19474
 Alpha  occ. eigenvalues --   -2.19456  -2.19350  -2.19100  -2.19004  -1.14596
 Alpha  occ. eigenvalues --   -1.14588  -1.14555  -1.13967  -1.13948  -1.13920
 Alpha  occ. eigenvalues --   -1.13224  -1.13141  -1.13126  -1.13115  -1.13107
 Alpha  occ. eigenvalues --   -1.13076  -1.13057  -1.13003  -1.12952  -1.12772
 Alpha  occ. eigenvalues --   -1.12754  -1.12701  -1.12682  -1.12673  -1.12605
 Alpha  occ. eigenvalues --   -0.18533  -0.13094  -0.12177  -0.10537
 Alpha virt. eigenvalues --   -0.06559  -0.05177  -0.04141  -0.03159  -0.02727
 Alpha virt. eigenvalues --   -0.02388  -0.02341  -0.01184  -0.00377  -0.00132
 Alpha virt. eigenvalues --   -0.00086   0.00262   0.00722   0.00764   0.00807

  Beta  occ. eigenvalues --  -38.45164 -38.44479 -38.43661 -38.43453 -38.43322
  Beta  occ. eigenvalues --  -38.43167 -38.43124  -2.20930  -2.20285  -2.19458
  Beta  occ. eigenvalues --   -2.19327  -2.19200  -2.19081  -2.18990  -1.14594
  Beta  occ. eigenvalues --   -1.14585  -1.14561  -1.13954  -1.13939  -1.13923
  Beta  occ. eigenvalues --   -1.13134  -1.13119  -1.13113  -1.13110  -1.13035
  Beta  occ. eigenvalues --   -1.12983  -1.12953  -1.12897  -1.12844  -1.12745
  Beta  occ. eigenvalues --   -1.12692  -1.12691  -1.12666  -1.12640  -1.12601
  Beta  occ. eigenvalues --   -0.17794  -0.12922  -0.11912
  Beta virt. eigenvalues --   -0.06632  -0.06498  -0.05174  -0.04117  -0.02452
  Beta virt. eigenvalues --   -0.02242  -0.01923  -0.01345  -0.01149  -0.00426
  Beta virt. eigenvalues --   -0.00151   0.00070   0.00286   0.00768   0.00804

 Mulliken charges and spin densities:
               1          2
     1  Na   0.156929  -0.097324
     2  Na  -0.042014  -0.085955
     3  Na  -0.113777  -0.076025
     4  Na   0.299553  -0.220688
     5  Na  -0.295081   0.801955
     6  Na  -0.215184   0.755578
     7  Na   0.209574  -0.077541
 Sum of Mulliken charges =  -0.00000   1.00000

 Dipole moment (field-independent basis, Debye):
    X=              0.3316    Y=             -0.2187    Z=             -0.0008  Tot=              0.3972
 Quadrupole moment (field-independent basis, Debye-Ang):
   XX=            -48.3207   YY=            -67.7204   ZZ=            -75.5049
   XY=              0.3315   XZ=              1.4085   YZ=              0.0227

 Normal termination of Gaussian 16 at Fri Dec  8 06:34:02 2023.
