 Gaussian 16, Revision B.01,
 Gaussian 16:  ES64L-G16RevB.01 20-Dec-2017

 -------------------------
 #P B3LYP/6-311+g(d) force
 -------------------------

 -----
 DPGEN
 -----
 Symbolic Z-matrix:
 Charge =  0 Multiplicity = 2

                         Standard orientation:
 ---------------------------------------------------------------------
 Center     Atomic      Atomic             Coordinates (Angstroms)
 Number     Number       Type             X           Y           Z
 ---------------------------------------------------------------------
      1         11           0       -4.089752   -0.677132   -1.187811
      2         11           0        1.755978    1.959370   -0.933408
      3         11           0       -1.715744   -0.660096    1.913063
      4         11           0        3.664604   -1.190406   -0.947249
      5         11           0        1.948846    0.227361    1.791552
      6         11           0       -1.694391    1.900249   -0.069234
      7         11           0        0.130460   -1.559346   -0.566913
 ---------------------------------------------------------------------

 SCF Done:  E(UB3LYP) =  -1136.12017862     A.U. after   28 cycles

 The electronic state is 2-A.
 Alpha  occ. eigenvalues --  -38.44900 -38.44860 -38.44368 -38.44252 -38.43828
 Alpha  occ. eigenvalues --  -38.43173 -38.43107  -2.20766  -2.20637  -2.20256
 Alpha  occ. eigenvalues --   -2.20092  -2.19649  -2.19024  -2.18967  -1.14455
 Alpha  occ. eigenvalues --   -1.14436  -1.14380  -1.14300  -1.14290  -1.14241
 Alpha  occ. eigenvalues --   -1.13977  -1.13917  -1.13848  -1.13801  -1.13777
 Alpha  occ. eigenvalues --   -1.13686  -1.13323  -1.13294  -1.13280  -1.12726
 Alpha  occ. eigenvalues --   -1.12713  -1.12652  -1.12643  -1.12620  -1.12564
 Alpha  occ. eigenvalues --   -0.18229  -0.14210  -0.11424  -0.10646
 Alpha virt. eigenvalues --   -0.06711  -0.05575  -0.04866  -0.03147  -0.02706
 Alpha virt. eigenvalues --   -0.02316  -0.02173  -0.01459  -0.00768  -0.00372
 Alpha virt. eigenvalues --    0.00056   0.00248   0.00249   0.00394   0.00566

  Beta  occ. eigenvalues --  -38.44874 -38.44799 -38.44312 -38.44259 -38.43808
  Beta  occ. eigenvalues --  -38.43160 -38.43083  -2.20724  -2.20523  -2.20157
  Beta  occ. eigenvalues --   -2.20110  -2.19611  -2.19001  -2.18924  -1.14429
  Beta  occ. eigenvalues --   -1.14384  -1.14344  -1.14220  -1.14208  -1.14170
  Beta  occ. eigenvalues --   -1.13918  -1.13854  -1.13792  -1.13771  -1.13754
  Beta  occ. eigenvalues --   -1.13707  -1.13295  -1.13266  -1.13258  -1.12702
  Beta  occ. eigenvalues --   -1.12696  -1.12624  -1.12619  -1.12594  -1.12526
  Beta  occ. eigenvalues --   -0.17592  -0.13812  -0.10511
  Beta virt. eigenvalues --   -0.07632  -0.06437  -0.05303  -0.04391  -0.02824
  Beta virt. eigenvalues --   -0.02490  -0.01925  -0.01628  -0.01216  -0.00436
  Beta virt. eigenvalues --   -0.00147   0.00121   0.00278   0.00401   0.00514

 Mulliken charges and spin densities:
               1          2
     1  Na   0.302251   0.268229
     2  Na   0.040365   0.175216
     3  Na   0.625975   0.284334
     4  Na   0.282812   0.080857
     5  Na   0.153121   0.028718
     6  Na  -0.614026   0.202631
     7  Na  -0.790498  -0.039984
 Sum of Mulliken charges =  -0.00000   1.00000

 Dipole moment (field-independent basis, Debye):
    X=             -0.1004    Y=             -0.1900    Z=              0.4566  Tot=              0.5046
 Quadrupole moment (field-independent basis, Debye-Ang):
   XX=            -52.2050   YY=            -80.3896   ZZ=            -63.5276
   XY=              0.9538   XZ=              1.2223   YZ=             -0.2467

 Normal termination of Gaussian 16 at Tue Dec  5 20:22:54 2023.
