 Gaussian 16, Revision B.01,
 Gaussian 16:  ES64L-G16RevB.01 20-Dec-2017

 -------------------------
 #P B3LYP/6-311+g(d) force
 -------------------------

 -----
 DPGEN
 -----
 Symbolic Z-matrix:
 Charge =  0 Multiplicity = 2

                         Standard orientation:
 ---------------------------------------------------------------------
 Center     Atomic      Atomic             Coordinates (Angstroms)
 Number     Number       Type             X           Y           Z
 ---------------------------------------------------------------------
      1         11           0        2.089836   -1.326138    1.563027
      2         11           0        0.904257    0.234932   -1.337225
      3         11           0       -2.350816    1.603364    0.306272
      4         11           0       -1.151858   -1.948151    0.419582
      5         11           0       -4.489389   -0.954613   -0.470563
      6         11           0        1.113783    3.424410    0.396286
      7         11           0        3.884187   -1.033804   -0.877379
 ---------------------------------------------------------------------

 SCF Done:  E(UB3LYP) =  -1136.11986955     A.U. after   21 cycles

 The electronic state is 2-A.
 Alpha  occ. eigenvalues --  -38.44875 -38.44588 -38.44359 -38.43758 -38.43711
 Alpha  occ. eigenvalues --  -38.43584 -38.43396  -2.20745  -2.20463  -2.20156
 Alpha  occ. eigenvalues --   -2.19600  -2.19576  -2.19444  -2.19154  -1.14447
 Alpha  occ. eigenvalues --   -1.14429  -1.14355  -1.14157  -1.14114  -1.14106
 Alpha  occ. eigenvalues --   -1.13865  -1.13844  -1.13749  -1.13257  -1.13234
 Alpha  occ. eigenvalues --   -1.13233  -1.13229  -1.13212  -1.13194  -1.13148
 Alpha  occ. eigenvalues --   -1.13118  -1.13028  -1.12833  -1.12820  -1.12783
 Alpha  occ. eigenvalues --   -0.17596  -0.14144  -0.11752  -0.10418
 Alpha virt. eigenvalues --   -0.06923  -0.05459  -0.04281  -0.03631  -0.02999
 Alpha virt. eigenvalues --   -0.02360  -0.01653  -0.01417  -0.00986  -0.00730
 Alpha virt. eigenvalues --   -0.00218  -0.00118   0.00356   0.00575   0.00685

  Beta  occ. eigenvalues --  -38.44862 -38.44565 -38.44352 -38.43709 -38.43641
  Beta  occ. eigenvalues --  -38.43538 -38.43403  -2.20726  -2.20427  -2.20145
  Beta  occ. eigenvalues --   -2.19483  -2.19470  -2.19365  -2.19167  -1.14424
  Beta  occ. eigenvalues --   -1.14397  -1.14343  -1.14116  -1.14095  -1.14051
  Beta  occ. eigenvalues --   -1.13858  -1.13835  -1.13727  -1.13169  -1.13166
  Beta  occ. eigenvalues --   -1.13163  -1.13151  -1.13139  -1.13121  -1.13099
  Beta  occ. eigenvalues --   -1.13060  -1.12952  -1.12842  -1.12829  -1.12791
  Beta  occ. eigenvalues --   -0.16982  -0.13591  -0.11557
  Beta virt. eigenvalues --   -0.06815  -0.06685  -0.05387  -0.03834  -0.03319
  Beta virt. eigenvalues --   -0.02686  -0.02071  -0.01426  -0.01192  -0.00552
  Beta virt. eigenvalues --   -0.00426  -0.00010   0.00009   0.00502   0.00698

 Mulliken charges and spin densities:
               1          2
     1  Na   0.295840   0.048563
     2  Na   0.379169   0.240223
     3  Na  -0.163362   0.176292
     4  Na  -0.620215   0.027680
     5  Na   0.390694   0.295139
     6  Na  -0.182518  -0.085802
     7  Na  -0.099609   0.297904
 Sum of Mulliken charges =  -0.00000   1.00000

 Dipole moment (field-independent basis, Debye):
    X=              0.2518    Y=             -0.3276    Z=              0.5594  Tot=              0.6954
 Quadrupole moment (field-independent basis, Debye-Ang):
   XX=            -64.6782   YY=            -71.3921   ZZ=            -65.4588
   XY=              1.3776   XZ=              4.0333   YZ=              3.0141

 Normal termination of Gaussian 16 at Tue Nov 28 22:11:17 2023.
