 Gaussian 16, Revision B.01,
 Gaussian 16:  ES64L-G16RevB.01 20-Dec-2017

 -------------------------
 #P B3LYP/6-311+g(d) force
 -------------------------

 -----
 DPGEN
 -----
 Symbolic Z-matrix:
 Charge =  0 Multiplicity = 2

                         Standard orientation:
 ---------------------------------------------------------------------
 Center     Atomic      Atomic             Coordinates (Angstroms)
 Number     Number       Type             X           Y           Z
 ---------------------------------------------------------------------
      1         11           0       -1.325529    0.119574    1.316042
      2         11           0        2.350617    0.426634    1.116291
      3         11           0        0.787846   -2.256706    0.178908
      4         11           0       -4.099319    1.174272   -0.785173
      5         11           0       -2.666099   -2.162403   -0.509459
      6         11           0        4.869530   -0.050505   -1.146581
      7         11           0        0.082954    2.749134   -0.170027
 ---------------------------------------------------------------------

 SCF Done:  E(UB3LYP) =  -1136.12278146     A.U. after   21 cycles

 The electronic state is 2-A.
 Alpha  occ. eigenvalues --  -38.44974 -38.44575 -38.43787 -38.43722 -38.43613
 Alpha  occ. eigenvalues --  -38.43584 -38.43398  -2.20773  -2.20359  -2.19724
 Alpha  occ. eigenvalues --   -2.19558  -2.19486  -2.19383  -2.19247  -1.14409
 Alpha  occ. eigenvalues --   -1.14403  -1.14383  -1.14028  -1.13994  -1.13984
 Alpha  occ. eigenvalues --   -1.13442  -1.13406  -1.13365  -1.13236  -1.13220
 Alpha  occ. eigenvalues --   -1.13196  -1.13171  -1.13168  -1.13129  -1.13055
 Alpha  occ. eigenvalues --   -1.13044  -1.13003  -1.12929  -1.12919  -1.12849
 Alpha  occ. eigenvalues --   -0.17408  -0.14111  -0.11555  -0.11389
 Alpha virt. eigenvalues --   -0.05842  -0.05430  -0.04981  -0.03525  -0.02393
 Alpha virt. eigenvalues --   -0.02343  -0.02215  -0.01344  -0.00634  -0.00592
 Alpha virt. eigenvalues --   -0.00264   0.00116   0.00262   0.00391   0.00564

  Beta  occ. eigenvalues --  -38.44860 -38.44521 -38.43766 -38.43718 -38.43610
  Beta  occ. eigenvalues --  -38.43577 -38.43388  -2.20559  -2.20260  -2.19691
  Beta  occ. eigenvalues --   -2.19551  -2.19488  -2.19371  -2.19230  -1.14262
  Beta  occ. eigenvalues --   -1.14257  -1.14242  -1.13960  -1.13927  -1.13915
  Beta  occ. eigenvalues --   -1.13426  -1.13372  -1.13327  -1.13234  -1.13216
  Beta  occ. eigenvalues --   -1.13199  -1.13171  -1.13146  -1.13085  -1.13047
  Beta  occ. eigenvalues --   -1.13029  -1.12996  -1.12909  -1.12905  -1.12843
  Beta  occ. eigenvalues --   -0.16902  -0.13206  -0.11430
  Beta virt. eigenvalues --   -0.07821  -0.05617  -0.05152  -0.04514  -0.03421
  Beta virt. eigenvalues --   -0.02069  -0.01844  -0.01648  -0.01163  -0.00482
  Beta virt. eigenvalues --   -0.00272  -0.00210   0.00261   0.00373   0.00539

 Mulliken charges and spin densities:
               1          2
     1  Na   0.472251  -0.120614
     2  Na   0.104315  -0.038103
     3  Na  -0.396184   0.013061
     4  Na   0.023454   0.350366
     5  Na  -0.017217   0.164811
     6  Na   0.072962   0.572428
     7  Na  -0.259581   0.058051
 Sum of Mulliken charges =  -0.00000   1.00000

 Dipole moment (field-independent basis, Debye):
    X=             -0.2903    Y=              0.1069    Z=             -0.8308  Tot=              0.8865
 Quadrupole moment (field-independent basis, Debye-Ang):
   XX=            -59.4980   YY=            -71.1907   ZZ=            -66.0305
   XY=             -0.3392   XZ=              0.0931   YZ=             -0.6489

 Normal termination of Gaussian 16 at Wed Nov 29 02:21:18 2023.
