 Gaussian 16, Revision B.01,
 Gaussian 16:  ES64L-G16RevB.01 20-Dec-2017

 -------------------------
 #P B3LYP/6-311+g(d) force
 -------------------------

 -----
 DPGEN
 -----
 Symbolic Z-matrix:
 Charge =  0 Multiplicity = 2

                         Standard orientation:
 ---------------------------------------------------------------------
 Center     Atomic      Atomic             Coordinates (Angstroms)
 Number     Number       Type             X           Y           Z
 ---------------------------------------------------------------------
      1         11           0        1.119185   -1.489957   -1.593167
      2         11           0       -0.444386   -1.511721    1.465586
      3         11           0        3.487088    1.092213   -0.730182
      4         11           0       -3.736118    1.352845    0.266634
      5         11           0       -0.322397    1.757299   -0.447452
      6         11           0        2.136124    0.027225    1.864504
      7         11           0       -2.239497   -1.227903   -0.825922
 ---------------------------------------------------------------------

 SCF Done:  E(UB3LYP) =  -1136.12180200     A.U. after   24 cycles

 The electronic state is 2-A.
 Alpha  occ. eigenvalues --  -38.44475 -38.44234 -38.44221 -38.43824 -38.43797
 Alpha  occ. eigenvalues --  -38.43628 -38.43116  -2.20296  -2.20150  -2.20073
 Alpha  occ. eigenvalues --   -2.19785  -2.19620  -2.19518  -2.19089  -1.14010
 Alpha  occ. eigenvalues --   -1.13998  -1.13889  -1.13883  -1.13823  -1.13777
 Alpha  occ. eigenvalues --   -1.13723  -1.13714  -1.13667  -1.13542  -1.13460
 Alpha  occ. eigenvalues --   -1.13425  -1.13277  -1.13269  -1.13238  -1.13202
 Alpha  occ. eigenvalues --   -1.13163  -1.13117  -1.12783  -1.12735  -1.12671
 Alpha  occ. eigenvalues --   -0.18787  -0.14166  -0.11653  -0.11288
 Alpha virt. eigenvalues --   -0.06705  -0.05106  -0.04521  -0.03266  -0.02694
 Alpha virt. eigenvalues --   -0.02564  -0.02415  -0.01077  -0.00685   0.00019
 Alpha virt. eigenvalues --    0.00131   0.00277   0.00433   0.00623   0.00795

  Beta  occ. eigenvalues --  -38.44465 -38.44223 -38.44151 -38.43814 -38.43800
  Beta  occ. eigenvalues --  -38.43564 -38.43075  -2.20281  -2.20055  -2.20023
  Beta  occ. eigenvalues --   -2.19768  -2.19625  -2.19401  -2.19019  -1.13994
  Beta  occ. eigenvalues --   -1.13973  -1.13875  -1.13817  -1.13753  -1.13710
  Beta  occ. eigenvalues --   -1.13688  -1.13686  -1.13612  -1.13533  -1.13434
  Beta  occ. eigenvalues --   -1.13418  -1.13277  -1.13271  -1.13237  -1.13121
  Beta  occ. eigenvalues --   -1.13084  -1.13031  -1.12719  -1.12689  -1.12613
  Beta  occ. eigenvalues --   -0.18082  -0.13985  -0.11166
  Beta virt. eigenvalues --   -0.07491  -0.06568  -0.04953  -0.03891  -0.03008
  Beta virt. eigenvalues --   -0.02466  -0.02014  -0.01793  -0.00929  -0.00263
  Beta virt. eigenvalues --    0.00064   0.00172   0.00305   0.00590   0.00752

 Mulliken charges and spin densities:
               1          2
     1  Na  -0.567919   0.291011
     2  Na  -0.079959   0.306020
     3  Na   0.973731   0.227712
     4  Na   0.361929  -0.145726
     5  Na  -1.113839   0.178945
     6  Na  -0.222896  -0.022179
     7  Na   0.648952   0.164216
 Sum of Mulliken charges =  -0.00000   1.00000

 Dipole moment (field-independent basis, Debye):
    X=              0.2606    Y=             -0.0565    Z=             -0.2073  Tot=              0.3378
 Quadrupole moment (field-independent basis, Debye-Ang):
   XX=            -53.1924   YY=            -75.1065   ZZ=            -68.7093
   XY=              1.7378   XZ=             -2.1231   YZ=              1.3164

 Normal termination of Gaussian 16 at Tue Dec  5 22:29:36 2023.
