 Gaussian 16, Revision B.01,
 Gaussian 16:  ES64L-G16RevB.01 20-Dec-2017

 -------------------------
 #P B3LYP/6-311+g(d) force
 -------------------------

 -----
 DPGEN
 -----
 Symbolic Z-matrix:
 Charge =  0 Multiplicity = 2

                         Standard orientation:
 ---------------------------------------------------------------------
 Center     Atomic      Atomic             Coordinates (Angstroms)
 Number     Number       Type             X           Y           Z
 ---------------------------------------------------------------------
      1         11           0       -2.833476   -1.809537   -1.034911
      2         11           0        2.317934    1.831081   -1.346480
      3         11           0        0.301850   -2.338708   -0.998050
      4         11           0        0.562940    0.254473    1.649734
      5         11           0        3.013195   -1.632377    1.098929
      6         11           0       -3.108577    1.034150    1.257548
      7         11           0       -0.253866    2.660919   -0.626770
 ---------------------------------------------------------------------

 SCF Done:  E(UB3LYP) =  -1136.12287174     A.U. after   20 cycles

 The electronic state is 2-A.
 Alpha  occ. eigenvalues --  -38.44226 -38.44203 -38.44172 -38.43962 -38.43919
 Alpha  occ. eigenvalues --  -38.43842 -38.43562  -2.20121  -2.20049  -2.19994
 Alpha  occ. eigenvalues --   -2.19803  -2.19729  -2.19679  -2.19456  -1.13863
 Alpha  occ. eigenvalues --   -1.13804  -1.13786  -1.13767  -1.13675  -1.13664
 Alpha  occ. eigenvalues --   -1.13639  -1.13635  -1.13629  -1.13470  -1.13466
 Alpha  occ. eigenvalues --   -1.13439  -1.13430  -1.13389  -1.13352  -1.13343
 Alpha  occ. eigenvalues --   -1.13335  -1.13269  -1.13118  -1.13096  -1.13069
 Alpha  occ. eigenvalues --   -0.17602  -0.13179  -0.12869  -0.11175
 Alpha virt. eigenvalues --   -0.05854  -0.05303  -0.04485  -0.03813  -0.03303
 Alpha virt. eigenvalues --   -0.02232  -0.01844  -0.01103  -0.00677  -0.00185
 Alpha virt. eigenvalues --   -0.00076   0.00207   0.00320   0.00483   0.00774

  Beta  occ. eigenvalues --  -38.44180 -38.44168 -38.44124 -38.43940 -38.43889
  Beta  occ. eigenvalues --  -38.43811 -38.43552  -2.20036  -2.19963  -2.19931
  Beta  occ. eigenvalues --   -2.19762  -2.19677  -2.19625  -2.19444  -1.13805
  Beta  occ. eigenvalues --   -1.13744  -1.13720  -1.13711  -1.13618  -1.13615
  Beta  occ. eigenvalues --   -1.13593  -1.13585  -1.13577  -1.13427  -1.13422
  Beta  occ. eigenvalues --   -1.13412  -1.13405  -1.13355  -1.13313  -1.13309
  Beta  occ. eigenvalues --   -1.13300  -1.13215  -1.13111  -1.13085  -1.13031
  Beta  occ. eigenvalues --   -0.17075  -0.12815  -0.12280
  Beta virt. eigenvalues --   -0.07707  -0.05675  -0.05121  -0.04069  -0.03441
  Beta virt. eigenvalues --   -0.02772  -0.01745  -0.01588  -0.00909  -0.00353
  Beta virt. eigenvalues --   -0.00151   0.00051   0.00289   0.00484   0.00592

 Mulliken charges and spin densities:
               1          2
     1  Na  -0.057807  -0.057514
     2  Na   0.146994   0.029606
     3  Na  -0.370737   0.362668
     4  Na  -1.137276   0.230640
     5  Na   0.941417   0.038132
     6  Na   0.551149   0.159337
     7  Na  -0.073742   0.237132
 Sum of Mulliken charges =  -0.00000   1.00000

 Dipole moment (field-independent basis, Debye):
    X=              0.3692    Y=             -0.0323    Z=              0.0835  Tot=              0.3799
 Quadrupole moment (field-independent basis, Debye-Ang):
   XX=            -54.9567   YY=            -72.4743   ZZ=            -69.9217
   XY=             -3.9630   XZ=             -1.1883   YZ=              0.7488

 Normal termination of Gaussian 16 at Mon Dec  4 03:05:55 2023.
