 Gaussian 16, Revision B.01,
 Gaussian 16:  ES64L-G16RevB.01 20-Dec-2017

 -------------------------
 #P B3LYP/6-311+g(d) force
 -------------------------

 -----
 DPGEN
 -----
 Symbolic Z-matrix:
 Charge =  0 Multiplicity = 2

                         Standard orientation:
 ---------------------------------------------------------------------
 Center     Atomic      Atomic             Coordinates (Angstroms)
 Number     Number       Type             X           Y           Z
 ---------------------------------------------------------------------
      1         11           0        0.592507   -0.065609   -0.575477
      2         11           0        2.533054   -2.416961    1.699348
      3         11           0        3.988151    0.048800   -0.710656
      4         11           0        1.316379    3.321583   -0.059672
      5         11           0       -2.514621    2.656658    0.310391
      6         11           0       -3.993262   -0.705608    0.746729
      7         11           0       -1.922209   -2.838864   -1.410663
 ---------------------------------------------------------------------

 SCF Done:  E(UB3LYP) =  -1136.11377240     A.U. after   21 cycles

 The electronic state is 2-A.
 Alpha  occ. eigenvalues --  -38.45681 -38.44657 -38.44583 -38.44203 -38.43918
 Alpha  occ. eigenvalues --  -38.43788 -38.43617  -2.21438  -2.20406  -2.20362
 Alpha  occ. eigenvalues --   -2.20032  -2.19685  -2.19559  -2.19403  -1.15133
 Alpha  occ. eigenvalues --   -1.15098  -1.15067  -1.14094  -1.14065  -1.14040
 Alpha  occ. eigenvalues --   -1.14023  -1.14008  -1.13965  -1.13755  -1.13667
 Alpha  occ. eigenvalues --   -1.13666  -1.13367  -1.13349  -1.13293  -1.13241
 Alpha  occ. eigenvalues --   -1.13223  -1.13185  -1.13060  -1.13049  -1.13023
 Alpha  occ. eigenvalues --   -0.16270  -0.13566  -0.12163  -0.10225
 Alpha virt. eigenvalues --   -0.07020  -0.05660  -0.04962  -0.03036  -0.02908
 Alpha virt. eigenvalues --   -0.02370  -0.02049  -0.01704  -0.01371  -0.00793
 Alpha virt. eigenvalues --   -0.00208  -0.00047  -0.00025   0.00454   0.00548

  Beta  occ. eigenvalues --  -38.45692 -38.44648 -38.44508 -38.44188 -38.43877
  Beta  occ. eigenvalues --  -38.43786 -38.43555  -2.21462  -2.20393  -2.20223
  Beta  occ. eigenvalues --   -2.20005  -2.19611  -2.19555  -2.19288  -1.15151
  Beta  occ. eigenvalues --   -1.15115  -1.15062  -1.14089  -1.14057  -1.14008
  Beta  occ. eigenvalues --   -1.13927  -1.13910  -1.13875  -1.13729  -1.13663
  Beta  occ. eigenvalues --   -1.13635  -1.13316  -1.13300  -1.13240  -1.13238
  Beta  occ. eigenvalues --   -1.13218  -1.13183  -1.12980  -1.12968  -1.12951
  Beta  occ. eigenvalues --   -0.15906  -0.12989  -0.11787
  Beta virt. eigenvalues --   -0.06934  -0.06828  -0.05324  -0.04617  -0.02772
  Beta virt. eigenvalues --   -0.02593  -0.02257  -0.01717  -0.01480  -0.01081
  Beta virt. eigenvalues --   -0.00463  -0.00091   0.00062   0.00169   0.00536

 Mulliken charges and spin densities:
               1          2
     1  Na  -2.551799   0.260696
     2  Na   0.317446   0.356445
     3  Na   0.643720  -0.014021
     4  Na   0.568307  -0.129540
     5  Na   0.233437   0.273988
     6  Na   0.241143   0.008847
     7  Na   0.547746   0.243584
 Sum of Mulliken charges =  -0.00000   1.00000

 Dipole moment (field-independent basis, Debye):
    X=              1.5671    Y=             -0.0403    Z=              0.0610  Tot=              1.5688
 Quadrupole moment (field-independent basis, Debye-Ang):
   XX=            -56.9036   YY=            -68.0491   ZZ=            -70.7624
   XY=              5.8521   XZ=             -5.3293   YZ=             -1.5332

 Normal termination of Gaussian 16 at Fri Dec  8 20:14:28 2023.
