 Gaussian 16, Revision B.01,
 Gaussian 16:  ES64L-G16RevB.01 20-Dec-2017

 -------------------------
 #P B3LYP/6-311+g(d) force
 -------------------------

 -----
 DPGEN
 -----
 Symbolic Z-matrix:
 Charge =  0 Multiplicity = 2

                         Standard orientation:
 ---------------------------------------------------------------------
 Center     Atomic      Atomic             Coordinates (Angstroms)
 Number     Number       Type             X           Y           Z
 ---------------------------------------------------------------------
      1         11           0       -2.754465    1.741296   -0.019389
      2         11           0        1.081426    2.850930    0.055986
      3         11           0        0.954577   -2.730915   -0.305137
      4         11           0       -0.061787    0.043002   -1.433530
      5         11           0       -2.617771   -1.575978   -0.106280
      6         11           0        0.432817   -0.462340    2.192236
      7         11           0        2.965203    0.134005   -0.383886
 ---------------------------------------------------------------------

 SCF Done:  E(UB3LYP) =  -1136.13659049     A.U. after   19 cycles

 The electronic state is 2-A.
 Alpha  occ. eigenvalues --  -38.43958 -38.43884 -38.43864 -38.43652 -38.43498
 Alpha  occ. eigenvalues --  -38.43266 -38.42963  -2.19766  -2.19752  -2.19727
 Alpha  occ. eigenvalues --   -2.19522  -2.19327  -2.19152  -2.18997  -1.13466
 Alpha  occ. eigenvalues --   -1.13455  -1.13438  -1.13412  -1.13409  -1.13409
 Alpha  occ. eigenvalues --   -1.13383  -1.13380  -1.13335  -1.13177  -1.13150
 Alpha  occ. eigenvalues --   -1.13138  -1.13010  -1.12986  -1.12964  -1.12878
 Alpha  occ. eigenvalues --   -1.12807  -1.12776  -1.12675  -1.12632  -1.12615
 Alpha  occ. eigenvalues --   -0.18652  -0.13160  -0.12404  -0.10699
 Alpha virt. eigenvalues --   -0.05516  -0.05352  -0.04748  -0.03094  -0.02835
 Alpha virt. eigenvalues --   -0.02560  -0.01460  -0.01154  -0.00513  -0.00378
 Alpha virt. eigenvalues --   -0.00015   0.00346   0.00801   0.00863   0.00884

  Beta  occ. eigenvalues --  -38.43959 -38.43881 -38.43852 -38.43547 -38.43496
  Beta  occ. eigenvalues --  -38.43255 -38.42911  -2.19770  -2.19734  -2.19724
  Beta  occ. eigenvalues --   -2.19329  -2.19324  -2.19138  -2.18905  -1.13468
  Beta  occ. eigenvalues --   -1.13440  -1.13432  -1.13414  -1.13400  -1.13377
  Beta  occ. eigenvalues --   -1.13370  -1.13368  -1.13337  -1.13050  -1.13015
  Beta  occ. eigenvalues --   -1.13007  -1.12999  -1.12971  -1.12965  -1.12858
  Beta  occ. eigenvalues --   -1.12774  -1.12763  -1.12610  -1.12564  -1.12547
  Beta  occ. eigenvalues --   -0.17936  -0.12951  -0.12191
  Beta virt. eigenvalues --   -0.06701  -0.05477  -0.05355  -0.04688  -0.02366
  Beta virt. eigenvalues --   -0.02069  -0.01477  -0.01352  -0.01092  -0.00539
  Beta virt. eigenvalues --   -0.00434   0.00165   0.00392   0.00856   0.00879

 Mulliken charges and spin densities:
               1          2
     1  Na   0.007378  -0.024050
     2  Na  -0.014222  -0.005299
     3  Na   0.416128   0.027547
     4  Na  -0.313757   0.180106
     5  Na   0.193962  -0.021530
     6  Na  -0.711403   0.786954
     7  Na   0.421914   0.056272
 Sum of Mulliken charges =  -0.00000   1.00000

 Dipole moment (field-independent basis, Debye):
    X=             -0.1569    Y=              0.0400    Z=              0.2090  Tot=              0.2644
 Quadrupole moment (field-independent basis, Debye-Ang):
   XX=            -57.1896   YY=            -61.3289   ZZ=            -74.9254
   XY=             -0.2592   XZ=             -1.1296   YZ=              1.2456

 Normal termination of Gaussian 16 at Fri Dec  8 04:51:22 2023.
