 Gaussian 16, Revision B.01,
 Gaussian 16:  ES64L-G16RevB.01 20-Dec-2017

 -------------------------
 #P B3LYP/6-311+g(d) force
 -------------------------

 -----
 DPGEN
 -----
 Symbolic Z-matrix:
 Charge =  0 Multiplicity = 2

                         Standard orientation:
 ---------------------------------------------------------------------
 Center     Atomic      Atomic             Coordinates (Angstroms)
 Number     Number       Type             X           Y           Z
 ---------------------------------------------------------------------
      1         11           0        0.319017    0.417307   -1.361301
      2         11           0        0.011381   -0.051447    2.206815
      3         11           0       -2.736838    2.382100   -0.432080
      4         11           0        2.893819    2.071698    0.109387
      5         11           0       -0.436622   -2.450212   -0.638520
      6         11           0        2.953320   -1.308634   -0.171408
      7         11           0       -3.004077   -1.060812    0.287106
 ---------------------------------------------------------------------

 SCF Done:  E(UB3LYP) =  -1136.12379676     A.U. after   23 cycles

 The electronic state is 2-A.
 Alpha  occ. eigenvalues --  -38.44635 -38.44549 -38.44410 -38.44129 -38.43783
 Alpha  occ. eigenvalues --  -38.43594 -38.42636  -2.20472  -2.20399  -2.20213
 Alpha  occ. eigenvalues --   -2.19967  -2.19556  -2.19551  -2.18566  -1.14153
 Alpha  occ. eigenvalues --   -1.14136  -1.14109  -1.14099  -1.14061  -1.14026
 Alpha  occ. eigenvalues --   -1.13886  -1.13866  -1.13856  -1.13633  -1.13592
 Alpha  occ. eigenvalues --   -1.13575  -1.13269  -1.13229  -1.13220  -1.13212
 Alpha  occ. eigenvalues --   -1.13197  -1.13151  -1.12269  -1.12215  -1.12187
 Alpha  occ. eigenvalues --   -0.18376  -0.13700  -0.11560  -0.10698
 Alpha virt. eigenvalues --   -0.06329  -0.06119  -0.04000  -0.03403  -0.02621
 Alpha virt. eigenvalues --   -0.02346  -0.02142  -0.01517  -0.00798  -0.00170
 Alpha virt. eigenvalues --   -0.00056   0.00257   0.00586   0.00645   0.00740

  Beta  occ. eigenvalues --  -38.44629 -38.44547 -38.44411 -38.44022 -38.43777
  Beta  occ. eigenvalues --  -38.43547 -38.42621  -2.20465  -2.20397  -2.20215
  Beta  occ. eigenvalues --   -2.19769  -2.19543  -2.19472  -2.18544  -1.14143
  Beta  occ. eigenvalues --   -1.14120  -1.14103  -1.14102  -1.14043  -1.14021
  Beta  occ. eigenvalues --   -1.13884  -1.13864  -1.13853  -1.13500  -1.13456
  Beta  occ. eigenvalues --   -1.13432  -1.13214  -1.13207  -1.13205  -1.13192
  Beta  occ. eigenvalues --   -1.13153  -1.13093  -1.12252  -1.12198  -1.12151
  Beta  occ. eigenvalues --   -0.17664  -0.13534  -0.11332
  Beta virt. eigenvalues --   -0.06797  -0.06193  -0.06053  -0.03862  -0.02773
  Beta virt. eigenvalues --   -0.02032  -0.01788  -0.01623  -0.01277  -0.00828
  Beta virt. eigenvalues --   -0.00132   0.00100   0.00297   0.00664   0.00690

 Mulliken charges and spin densities:
               1          2
     1  Na  -0.336302   0.092077
     2  Na  -0.442523   0.620536
     3  Na   0.004071   0.037760
     4  Na   0.038374   0.050335
     5  Na   0.073965   0.072944
     6  Na   0.318249   0.037269
     7  Na   0.344167   0.089079
 Sum of Mulliken charges =  -0.00000   1.00000

 Dipole moment (field-independent basis, Debye):
    X=              0.7103    Y=              0.0257    Z=              0.3603  Tot=              0.7968
 Quadrupole moment (field-independent basis, Debye-Ang):
   XX=            -51.6008   YY=            -66.7873   ZZ=            -75.3275
   XY=              1.4487   XZ=             -0.1058   YZ=              0.2635

 Normal termination of Gaussian 16 at Thu Dec  7 09:05:25 2023.
