 Gaussian 16, Revision B.01,
 Gaussian 16:  ES64L-G16RevB.01 20-Dec-2017

 -------------------------
 #P B3LYP/6-311+g(d) force
 -------------------------

 -----
 DPGEN
 -----
 Symbolic Z-matrix:
 Charge =  0 Multiplicity = 2

                         Standard orientation:
 ---------------------------------------------------------------------
 Center     Atomic      Atomic             Coordinates (Angstroms)
 Number     Number       Type             X           Y           Z
 ---------------------------------------------------------------------
      1         11           0        2.478801    1.861258    0.145257
      2         11           0        1.267415   -1.337682   -0.292370
      3         11           0       -1.340727   -1.707141    1.899117
      4         11           0       -2.052780   -0.558815   -1.772680
      5         11           0        4.635474   -0.644440   -0.417414
      6         11           0       -0.718905    1.921787    0.766963
      7         11           0       -4.269277    0.465034   -0.328873
 ---------------------------------------------------------------------

 SCF Done:  E(UB3LYP) =  -1136.11228182     A.U. after   28 cycles

 The electronic state is 2-A.
 Alpha  occ. eigenvalues --  -38.45101 -38.44649 -38.44281 -38.44249 -38.43783
 Alpha  occ. eigenvalues --  -38.43588 -38.43108  -2.20992  -2.20474  -2.20134
 Alpha  occ. eigenvalues --   -2.20100  -2.19609  -2.19451  -2.18975  -1.14766
 Alpha  occ. eigenvalues --   -1.14640  -1.14575  -1.14121  -1.14121  -1.14099
 Alpha  occ. eigenvalues --   -1.13826  -1.13788  -1.13765  -1.13746  -1.13740
 Alpha  occ. eigenvalues --   -1.13713  -1.13274  -1.13249  -1.13218  -1.13143
 Alpha  occ. eigenvalues --   -1.13120  -1.13081  -1.12698  -1.12678  -1.12573
 Alpha  occ. eigenvalues --   -0.17811  -0.14570  -0.11647  -0.11037
 Alpha virt. eigenvalues --   -0.07137  -0.05142  -0.04198  -0.03516  -0.03184
 Alpha virt. eigenvalues --   -0.02557  -0.01967  -0.01400  -0.01154  -0.00724
 Alpha virt. eigenvalues --   -0.00141   0.00201   0.00246   0.00643   0.00802

  Beta  occ. eigenvalues --  -38.45069 -38.44594 -38.44268 -38.44171 -38.43723
  Beta  occ. eigenvalues --  -38.43568 -38.43131  -2.20933  -2.20370  -2.20114
  Beta  occ. eigenvalues --   -2.19964  -2.19495  -2.19422  -2.19019  -1.14729
  Beta  occ. eigenvalues --   -1.14597  -1.14535  -1.14051  -1.14049  -1.14034
  Beta  occ. eigenvalues --   -1.13797  -1.13747  -1.13733  -1.13694  -1.13644
  Beta  occ. eigenvalues --   -1.13609  -1.13183  -1.13181  -1.13150  -1.13122
  Beta  occ. eigenvalues --   -1.13106  -1.13018  -1.12725  -1.12695  -1.12605
  Beta  occ. eigenvalues --   -0.17274  -0.14028  -0.10651
  Beta virt. eigenvalues --   -0.07941  -0.06959  -0.04875  -0.03978  -0.03068
  Beta virt. eigenvalues --   -0.02823  -0.02043  -0.01601  -0.01186  -0.00875
  Beta virt. eigenvalues --   -0.00473  -0.00057   0.00207   0.00403   0.00715

 Mulliken charges and spin densities:
               1          2
     1  Na   0.008878  -0.055466
     2  Na  -0.586916   0.087781
     3  Na   0.016312   0.343724
     4  Na   0.162365   0.343965
     5  Na   0.388344   0.107241
     6  Na  -0.297459   0.278392
     7  Na   0.308476  -0.105638
 Sum of Mulliken charges =  -0.00000   1.00000

 Dipole moment (field-independent basis, Debye):
    X=              0.1177    Y=             -0.4725    Z=              0.1866  Tot=              0.5215
 Quadrupole moment (field-independent basis, Debye-Ang):
   XX=            -55.5249   YY=            -77.2022   ZZ=            -66.2222
   XY=             -0.0025   XZ=             -5.4773   YZ=              2.6813

 Normal termination of Gaussian 16 at Tue Dec  5 17:40:26 2023.
