 Gaussian 16, Revision B.01,
 Gaussian 16:  ES64L-G16RevB.01 20-Dec-2017

 -------------------------
 #P B3LYP/6-311+g(d) force
 -------------------------

 -----
 DPGEN
 -----
 Symbolic Z-matrix:
 Charge =  0 Multiplicity = 2

                         Standard orientation:
 ---------------------------------------------------------------------
 Center     Atomic      Atomic             Coordinates (Angstroms)
 Number     Number       Type             X           Y           Z
 ---------------------------------------------------------------------
      1         11           0       -2.369379    1.777111    0.370327
      2         11           0        0.346355   -0.362871    2.360440
      3         11           0        0.938041    2.843717   -0.667260
      4         11           0       -3.102854   -1.303058   -0.360809
      5         11           0        3.061979    0.313868   -0.030178
      6         11           0       -0.076279   -0.464684   -1.305740
      7         11           0        1.202137   -2.804083   -0.366781
 ---------------------------------------------------------------------

 SCF Done:  E(UB3LYP) =  -1136.12977974     A.U. after   19 cycles

 The electronic state is 2-A.
 Alpha  occ. eigenvalues --  -38.44277 -38.44258 -38.44091 -38.43819 -38.43758
 Alpha  occ. eigenvalues --  -38.43113 -38.43101  -2.20099  -2.20098  -2.19929
 Alpha  occ. eigenvalues --   -2.19652  -2.19632  -2.19148  -2.18930  -1.13783
 Alpha  occ. eigenvalues --   -1.13776  -1.13772  -1.13759  -1.13737  -1.13729
 Alpha  occ. eigenvalues --   -1.13576  -1.13556  -1.13542  -1.13467  -1.13321
 Alpha  occ. eigenvalues --   -1.13318  -1.13291  -1.13261  -1.13231  -1.12814
 Alpha  occ. eigenvalues --   -1.12784  -1.12760  -1.12603  -1.12583  -1.12574
 Alpha  occ. eigenvalues --   -0.18373  -0.13211  -0.12221  -0.10897
 Alpha virt. eigenvalues --   -0.05942  -0.05218  -0.04536  -0.03298  -0.02809
 Alpha virt. eigenvalues --   -0.02725  -0.01711  -0.01105  -0.00461  -0.00332
 Alpha virt. eigenvalues --   -0.00037   0.00337   0.00780   0.00791   0.00859

  Beta  occ. eigenvalues --  -38.44275 -38.44253 -38.43976 -38.43816 -38.43750
  Beta  occ. eigenvalues --  -38.43091 -38.43070  -2.20096  -2.20093  -2.19716
  Beta  occ. eigenvalues --   -2.19647  -2.19621  -2.19073  -2.18915  -1.13779
  Beta  occ. eigenvalues --   -1.13772  -1.13749  -1.13747  -1.13737  -1.13726
  Beta  occ. eigenvalues --   -1.13452  -1.13431  -1.13410  -1.13391  -1.13318
  Beta  occ. eigenvalues --   -1.13297  -1.13293  -1.13239  -1.13221  -1.12754
  Beta  occ. eigenvalues --   -1.12730  -1.12704  -1.12585  -1.12573  -1.12560
  Beta  occ. eigenvalues --   -0.17692  -0.13040  -0.11984
  Beta virt. eigenvalues --   -0.06907  -0.05905  -0.05111  -0.04461  -0.02564
  Beta virt. eigenvalues --   -0.02092  -0.01687  -0.01624  -0.01039  -0.00495
  Beta virt. eigenvalues --   -0.00294   0.00140   0.00386   0.00795   0.00882

 Mulliken charges and spin densities:
               1          2
     1  Na   0.074962   0.105179
     2  Na  -0.535691   0.686600
     3  Na  -0.042695   0.067272
     4  Na   0.135387   0.056139
     5  Na   0.302300   0.112646
     6  Na  -0.029831  -0.149040
     7  Na   0.095567   0.121205
 Sum of Mulliken charges =  -0.00000   1.00000

 Dipole moment (field-independent basis, Debye):
    X=             -0.1064    Y=             -0.3390    Z=              0.3060  Tot=              0.4689
 Quadrupole moment (field-independent basis, Debye-Ang):
   XX=            -55.8613   YY=            -63.9272   ZZ=            -74.2758
   XY=             -0.0841   XZ=             -0.3917   YZ=              0.1443

 Normal termination of Gaussian 16 at Thu Dec  7 11:15:18 2023.
