 Gaussian 16, Revision B.01,
 Gaussian 16:  ES64L-G16RevB.01 20-Dec-2017

 -------------------------
 #P B3LYP/6-311+g(d) force
 -------------------------

 -----
 DPGEN
 -----
 Symbolic Z-matrix:
 Charge =  0 Multiplicity = 2

                         Standard orientation:
 ---------------------------------------------------------------------
 Center     Atomic      Atomic             Coordinates (Angstroms)
 Number     Number       Type             X           Y           Z
 ---------------------------------------------------------------------
      1         11           0       -2.430293   -2.440326   -1.100628
      2         11           0        4.999087   -0.174836   -0.178124
      3         11           0       -0.777918    2.960963   -0.030741
      4         11           0       -1.035134   -0.813682    1.802039
      5         11           0        1.879194   -1.994304    0.119276
      6         11           0        1.812739    1.773544   -0.461356
      7         11           0       -4.447675    0.688642   -0.150466
 ---------------------------------------------------------------------

 SCF Done:  E(UB3LYP) =  -1136.11462860     A.U. after   22 cycles

 The electronic state is 2-A.
 Alpha  occ. eigenvalues --  -38.45419 -38.45188 -38.44839 -38.44078 -38.44078
 Alpha  occ. eigenvalues --  -38.43605 -38.42808  -2.21153  -2.20980  -2.20608
 Alpha  occ. eigenvalues --   -2.19876  -2.19862  -2.19461  -2.18645  -1.14846
 Alpha  occ. eigenvalues --   -1.14810  -1.14793  -1.14649  -1.14623  -1.14606
 Alpha  occ. eigenvalues --   -1.14272  -1.14237  -1.14224  -1.13566  -1.13555
 Alpha  occ. eigenvalues --   -1.13528  -1.13526  -1.13497  -1.13452  -1.13187
 Alpha  occ. eigenvalues --   -1.13136  -1.13103  -1.12331  -1.12288  -1.12262
 Alpha  occ. eigenvalues --   -0.16602  -0.13799  -0.11937  -0.10890
 Alpha virt. eigenvalues --   -0.06873  -0.05529  -0.04507  -0.03536  -0.03053
 Alpha virt. eigenvalues --   -0.02396  -0.02033  -0.01578  -0.01142  -0.00603
 Alpha virt. eigenvalues --   -0.00547  -0.00209   0.00403   0.00457   0.00588

  Beta  occ. eigenvalues --  -38.45430 -38.45144 -38.44756 -38.44072 -38.44008
  Beta  occ. eigenvalues --  -38.43597 -38.42804  -2.21175  -2.20900  -2.20452
  Beta  occ. eigenvalues --   -2.19857  -2.19744  -2.19450  -2.18640  -1.14864
  Beta  occ. eigenvalues --   -1.14828  -1.14786  -1.14589  -1.14568  -1.14548
  Beta  occ. eigenvalues --   -1.14165  -1.14131  -1.14120  -1.13565  -1.13551
  Beta  occ. eigenvalues --   -1.13449  -1.13437  -1.13430  -1.13391  -1.13157
  Beta  occ. eigenvalues --   -1.13131  -1.13101  -1.12321  -1.12282  -1.12261
  Beta  occ. eigenvalues --   -0.16066  -0.13085  -0.11681
  Beta virt. eigenvalues --   -0.07505  -0.06693  -0.05222  -0.04088  -0.03262
  Beta virt. eigenvalues --   -0.02779  -0.02020  -0.01703  -0.01280  -0.00818
  Beta virt. eigenvalues --   -0.00485  -0.00356  -0.00053   0.00485   0.00594

 Mulliken charges and spin densities:
               1          2
     1  Na   0.090756  -0.046266
     2  Na   0.454570   0.297584
     3  Na   0.377155   0.006335
     4  Na  -0.074021   0.176105
     5  Na  -0.213849  -0.000143
     6  Na  -0.690172   0.059528
     7  Na   0.055562   0.506858
 Sum of Mulliken charges =  -0.00000   1.00000

 Dipole moment (field-independent basis, Debye):
    X=             -0.7027    Y=             -1.2465    Z=              0.0984  Tot=              1.4343
 Quadrupole moment (field-independent basis, Debye-Ang):
   XX=            -62.6417   YY=            -71.6317   ZZ=            -66.0908
   XY=              0.1176   XZ=             -0.1808   YZ=              3.2754

 Normal termination of Gaussian 16 at Sun Dec  3 11:42:52 2023.
