 Gaussian 16, Revision B.01,
 Gaussian 16:  ES64L-G16RevB.01 20-Dec-2017

 -------------------------
 #P B3LYP/6-311+g(d) force
 -------------------------

 -----
 DPGEN
 -----
 Symbolic Z-matrix:
 Charge =  0 Multiplicity = 2

                         Standard orientation:
 ---------------------------------------------------------------------
 Center     Atomic      Atomic             Coordinates (Angstroms)
 Number     Number       Type             X           Y           Z
 ---------------------------------------------------------------------
      1         11           0       -1.576182   -1.927683   -0.658450
      2         11           0       -1.830473   -0.546465    1.931939
      3         11           0       -3.231645    0.592684   -0.488390
      4         11           0       -0.641007    2.318836   -0.979588
      5         11           0        0.736062   -0.223607    0.259368
      6         11           0        3.393455    0.824771    1.254780
      7         11           0        3.149790   -1.038535   -1.319659
 ---------------------------------------------------------------------

 SCF Done:  E(UB3LYP) =  -1136.09638649     A.U. after   31 cycles

 The electronic state is 2-A.
 Alpha  occ. eigenvalues --  -38.45243 -38.45022 -38.44800 -38.44087 -38.43786
 Alpha  occ. eigenvalues --  -38.43491 -38.42409  -2.21105  -2.20887  -2.20768
 Alpha  occ. eigenvalues --   -2.20083  -2.19774  -2.19643  -2.18260  -1.14811
 Alpha  occ. eigenvalues --   -1.14758  -1.14724  -1.14591  -1.14514  -1.14496
 Alpha  occ. eigenvalues --   -1.14477  -1.14465  -1.14363  -1.13847  -1.13738
 Alpha  occ. eigenvalues --   -1.13677  -1.13532  -1.13412  -1.13351  -1.13330
 Alpha  occ. eigenvalues --   -1.13278  -1.13247  -1.11967  -1.11911  -1.11906
 Alpha  occ. eigenvalues --   -0.19069  -0.14957  -0.10970  -0.10707
 Alpha virt. eigenvalues --   -0.07175  -0.05975  -0.03945  -0.03195  -0.02807
 Alpha virt. eigenvalues --   -0.02235  -0.01737  -0.01299  -0.00675  -0.00228
 Alpha virt. eigenvalues --    0.00091   0.00230   0.00326   0.00638   0.00711

  Beta  occ. eigenvalues --  -38.45211 -38.44998 -38.44775 -38.44030 -38.43760
  Beta  occ. eigenvalues --  -38.43450 -38.42435  -2.21046  -2.20842  -2.20721
  Beta  occ. eigenvalues --   -2.19978  -2.19729  -2.19582  -2.18309  -1.14773
  Beta  occ. eigenvalues --   -1.14712  -1.14687  -1.14556  -1.14485  -1.14455
  Beta  occ. eigenvalues --   -1.14446  -1.14408  -1.14352  -1.13776  -1.13667
  Beta  occ. eigenvalues --   -1.13604  -1.13481  -1.13376  -1.13295  -1.13264
  Beta  occ. eigenvalues --   -1.13219  -1.13187  -1.12007  -1.11939  -1.11924
  Beta  occ. eigenvalues --   -0.18415  -0.14806  -0.10782
  Beta virt. eigenvalues --   -0.07047  -0.06938  -0.05113  -0.03784  -0.03069
  Beta virt. eigenvalues --   -0.02725  -0.01639  -0.01245  -0.00698  -0.00393
  Beta virt. eigenvalues --   -0.00132   0.00084   0.00339   0.00472   0.00724

 Mulliken charges and spin densities:
               1          2
     1  Na   0.327821   0.018135
     2  Na   0.312618  -0.432449
     3  Na   0.379472   0.368506
     4  Na   0.022118  -0.388985
     5  Na  -2.199683   1.691085
     6  Na   0.499051  -0.191326
     7  Na   0.658603  -0.064967
 Sum of Mulliken charges =  -0.00000   1.00000

 Dipole moment (field-independent basis, Debye):
    X=              1.0904    Y=             -0.1291    Z=              0.0848  Tot=              1.1013
 Quadrupole moment (field-independent basis, Debye-Ang):
   XX=            -45.8575   YY=            -77.6088   ZZ=            -68.6432
   XY=              2.0623   XZ=             -0.7539   YZ=              5.4501

 Normal termination of Gaussian 16 at Thu Dec  7 04:39:39 2023.
