 Gaussian 16, Revision B.01,
 Gaussian 16:  ES64L-G16RevB.01 20-Dec-2017

 -------------------------
 #P B3LYP/6-311+g(d) force
 -------------------------

 -----
 DPGEN
 -----
 Symbolic Z-matrix:
 Charge =  0 Multiplicity = 2

                         Standard orientation:
 ---------------------------------------------------------------------
 Center     Atomic      Atomic             Coordinates (Angstroms)
 Number     Number       Type             X           Y           Z
 ---------------------------------------------------------------------
      1         11           0        0.424636   -2.152936    1.545498
      2         11           0       -0.216374    2.829686    0.249434
      3         11           0       -2.970198   -2.093448   -0.116010
      4         11           0       -0.204715   -0.310871   -0.696288
      5         11           0        2.642606    1.502573    0.837384
      6         11           0       -3.285251    1.383398   -0.473807
      7         11           0        3.609295   -1.158401   -1.346210
 ---------------------------------------------------------------------

 SCF Done:  E(UB3LYP) =  -1136.12419614     A.U. after   20 cycles

 The electronic state is 2-A.
 Alpha  occ. eigenvalues --  -38.44519 -38.44445 -38.43991 -38.43862 -38.43809
 Alpha  occ. eigenvalues --  -38.43702 -38.43051  -2.20327  -2.20277  -2.19850
 Alpha  occ. eigenvalues --   -2.19829  -2.19622  -2.19535  -2.18923  -1.14017
 Alpha  occ. eigenvalues --   -1.13995  -1.13959  -1.13957  -1.13947  -1.13912
 Alpha  occ. eigenvalues --   -1.13712  -1.13533  -1.13471  -1.13458  -1.13415
 Alpha  occ. eigenvalues --   -1.13409  -1.13272  -1.13261  -1.13224  -1.13204
 Alpha  occ. eigenvalues --   -1.13187  -1.13165  -1.12610  -1.12578  -1.12556
 Alpha  occ. eigenvalues --   -0.17736  -0.13834  -0.12448  -0.10250
 Alpha virt. eigenvalues --   -0.06376  -0.05685  -0.04590  -0.03351  -0.02573
 Alpha virt. eigenvalues --   -0.02418  -0.01699  -0.01557  -0.00725  -0.00363
 Alpha virt. eigenvalues --   -0.00276   0.00126   0.00437   0.00525   0.00679

  Beta  occ. eigenvalues --  -38.44521 -38.44433 -38.43941 -38.43861 -38.43709
  Beta  occ. eigenvalues --  -38.43676 -38.43040  -2.20334  -2.20260  -2.19845
  Beta  occ. eigenvalues --   -2.19742  -2.19487  -2.19434  -2.18905  -1.14025
  Beta  occ. eigenvalues --   -1.14002  -1.13948  -1.13938  -1.13921  -1.13883
  Beta  occ. eigenvalues --   -1.13671  -1.13526  -1.13463  -1.13404  -1.13380
  Beta  occ. eigenvalues --   -1.13353  -1.13170  -1.13158  -1.13144  -1.13133
  Beta  occ. eigenvalues --   -1.13132  -1.13102  -1.12599  -1.12566  -1.12533
  Beta  occ. eigenvalues --   -0.17355  -0.13219  -0.12111
  Beta virt. eigenvalues --   -0.06781  -0.06292  -0.05439  -0.04205  -0.02917
  Beta virt. eigenvalues --   -0.02266  -0.02117  -0.01520  -0.01100  -0.00515
  Beta virt. eigenvalues --   -0.00231  -0.00001   0.00279   0.00598   0.00652

 Mulliken charges and spin densities:
               1          2
     1  Na  -0.286101   0.105783
     2  Na  -0.142405  -0.005764
     3  Na   0.435435   0.007442
     4  Na  -1.249934   0.035303
     5  Na   0.434330   0.097646
     6  Na   0.459530   0.187941
     7  Na   0.349144   0.571649
 Sum of Mulliken charges =  -0.00000   1.00000

 Dipole moment (field-independent basis, Debye):
    X=             -0.7662    Y=             -0.3651    Z=              0.9522  Tot=              1.2756
 Quadrupole moment (field-independent basis, Debye-Ang):
   XX=            -61.1331   YY=            -66.4298   ZZ=            -70.1733
   XY=              4.4053   XZ=              3.6792   YZ=              0.6325

 Normal termination of Gaussian 16 at Tue Dec  5 15:31:49 2023.
