 Gaussian 16, Revision B.01,
 Gaussian 16:  ES64L-G16RevB.01 20-Dec-2017

 -------------------------
 #P B3LYP/6-311+g(d) force
 -------------------------

 -----
 DPGEN
 -----
 Symbolic Z-matrix:
 Charge =  0 Multiplicity = 2

                         Standard orientation:
 ---------------------------------------------------------------------
 Center     Atomic      Atomic             Coordinates (Angstroms)
 Number     Number       Type             X           Y           Z
 ---------------------------------------------------------------------
      1         11           0        0.156741   -0.044007   -1.397079
      2         11           0       -0.116981   -2.443749    0.255266
      3         11           0        2.537339   -1.045875   -0.130816
      4         11           0        1.678645    2.077543   -0.102003
      5         11           0       -0.238460    0.062935    1.796691
      6         11           0       -1.420705    2.142873    0.071882
      7         11           0       -2.596580   -0.749719   -0.493940
 ---------------------------------------------------------------------

 SCF Done:  E(UB3LYP) =  -1136.11293663     A.U. after   20 cycles

 The electronic state is 2-A.
 Alpha  occ. eigenvalues --  -38.43534 -38.43477 -38.43423 -38.43371 -38.43323
 Alpha  occ. eigenvalues --  -38.43275 -38.43148  -2.19546  -2.19533  -2.19479
 Alpha  occ. eigenvalues --   -2.19450  -2.19364  -2.19350  -2.19342  -1.13468
 Alpha  occ. eigenvalues --   -1.13412  -1.13372  -1.13297  -1.13223  -1.13209
 Alpha  occ. eigenvalues --   -1.13170  -1.13156  -1.13132  -1.13088  -1.13074
 Alpha  occ. eigenvalues --   -1.13047  -1.13015  -1.12988  -1.12972  -1.12963
 Alpha  occ. eigenvalues --   -1.12929  -1.12924  -1.12897  -1.12882  -1.12878
 Alpha  occ. eigenvalues --   -0.20685  -0.13438  -0.13234  -0.11322
 Alpha virt. eigenvalues --   -0.04949  -0.04757  -0.04533  -0.03156  -0.03097
 Alpha virt. eigenvalues --   -0.02359  -0.01126  -0.00879   0.00002   0.00352
 Alpha virt. eigenvalues --    0.00414   0.00464   0.00984   0.01050   0.01057

  Beta  occ. eigenvalues --  -38.43527 -38.43460 -38.43363 -38.43329 -38.43311
  Beta  occ. eigenvalues --  -38.43260 -38.43079  -2.19522  -2.19448  -2.19382
  Beta  occ. eigenvalues --   -2.19362  -2.19335  -2.19330  -2.19310  -1.13429
  Beta  occ. eigenvalues --   -1.13359  -1.13316  -1.13219  -1.13199  -1.13152
  Beta  occ. eigenvalues --   -1.13140  -1.13122  -1.13074  -1.13039  -1.13022
  Beta  occ. eigenvalues --   -1.13003  -1.12983  -1.12953  -1.12924  -1.12902
  Beta  occ. eigenvalues --   -1.12895  -1.12876  -1.12864  -1.12850  -1.12819
  Beta  occ. eigenvalues --   -0.19924  -0.13113  -0.12903
  Beta virt. eigenvalues --   -0.07232  -0.04945  -0.04737  -0.04533  -0.02305
  Beta virt. eigenvalues --   -0.02204  -0.01277  -0.01039  -0.00825   0.00134
  Beta virt. eigenvalues --    0.00368   0.00387   0.00420   0.01023   0.01042

 Mulliken charges and spin densities:
               1          2
     1  Na  -1.213713   0.222309
     2  Na   0.636542   0.145637
     3  Na   0.243679   0.000583
     4  Na   0.244988  -0.001751
     5  Na  -0.613555   0.536686
     6  Na   0.475606   0.061845
     7  Na   0.226455   0.034691
 Sum of Mulliken charges =  -0.00000   1.00000

 Dipole moment (field-independent basis, Debye):
    X=              0.0037    Y=              0.0983    Z=              0.2583  Tot=              0.2764
 Quadrupole moment (field-independent basis, Debye-Ang):
   XX=            -58.9588   YY=            -62.9595   ZZ=            -72.5837
   XY=              0.1572   XZ=              0.9222   YZ=             -0.1123

 Normal termination of Gaussian 16 at Thu Dec  7 05:15:01 2023.
