 Gaussian 16, Revision B.01,
 Gaussian 16:  ES64L-G16RevB.01 20-Dec-2017

 -------------------------
 #P B3LYP/6-311+g(d) force
 -------------------------

 -----
 DPGEN
 -----
 Symbolic Z-matrix:
 Charge =  0 Multiplicity = 2

                         Standard orientation:
 ---------------------------------------------------------------------
 Center     Atomic      Atomic             Coordinates (Angstroms)
 Number     Number       Type             X           Y           Z
 ---------------------------------------------------------------------
      1         11           0       -0.680337    1.071847   -0.154435
      2         11           0        0.883773    4.051668    0.161476
      3         11           0        2.683261    0.934541   -0.234635
      4         11           0        4.779697   -2.342434   -0.035612
      5         11           0        1.030008   -1.845086   -0.052559
      6         11           0       -2.755554   -1.059603    0.779229
      7         11           0       -5.940848   -0.810932   -0.463464
 ---------------------------------------------------------------------

 SCF Done:  E(UB3LYP) =  -1136.12276278     A.U. after   20 cycles

 The electronic state is 2-A.
 Alpha  occ. eigenvalues --  -38.44578 -38.44527 -38.44429 -38.44191 -38.43692
 Alpha  occ. eigenvalues --  -38.43665 -38.43411  -2.20373  -2.20291  -2.20277
 Alpha  occ. eigenvalues --   -2.20046  -2.19599  -2.19499  -2.19247  -1.14036
 Alpha  occ. eigenvalues --   -1.14009  -1.14008  -1.13985  -1.13982  -1.13957
 Alpha  occ. eigenvalues --   -1.13955  -1.13897  -1.13836  -1.13758  -1.13731
 Alpha  occ. eigenvalues --   -1.13613  -1.13304  -1.13280  -1.13247  -1.13160
 Alpha  occ. eigenvalues --   -1.13158  -1.13111  -1.12942  -1.12914  -1.12874
 Alpha  occ. eigenvalues --   -0.17168  -0.13702  -0.12561  -0.11115
 Alpha virt. eigenvalues --   -0.06330  -0.04949  -0.04665  -0.03905  -0.02662
 Alpha virt. eigenvalues --   -0.02343  -0.01835  -0.01581  -0.01461  -0.00841
 Alpha virt. eigenvalues --   -0.00370   0.00017   0.00106   0.00396   0.00663

  Beta  occ. eigenvalues --  -38.44494 -38.44472 -38.44426 -38.44160 -38.43674
  Beta  occ. eigenvalues --  -38.43644 -38.43414  -2.20272  -2.20227  -2.20176
  Beta  occ. eigenvalues --   -2.19993  -2.19566  -2.19465  -2.19262  -1.14022
  Beta  occ. eigenvalues --   -1.13979  -1.13914  -1.13910  -1.13875  -1.13874
  Beta  occ. eigenvalues --   -1.13860  -1.13857  -1.13830  -1.13726  -1.13699
  Beta  occ. eigenvalues --   -1.13548  -1.13294  -1.13253  -1.13207  -1.13134
  Beta  occ. eigenvalues --   -1.13133  -1.13088  -1.12956  -1.12932  -1.12823
  Beta  occ. eigenvalues --   -0.16655  -0.13006  -0.12208
  Beta virt. eigenvalues --   -0.07736  -0.05922  -0.04679  -0.04415  -0.03646
  Beta virt. eigenvalues --   -0.02400  -0.02115  -0.01534  -0.01207  -0.01156
  Beta virt. eigenvalues --   -0.00521  -0.00127   0.00176   0.00268   0.00489

 Mulliken charges and spin densities:
               1          2
     1  Na  -1.538579  -0.143449
     2  Na   0.839208   0.133476
     3  Na   0.034422   0.219106
     4  Na   1.063771   0.143590
     5  Na  -0.722412   0.114917
     6  Na  -0.001740   0.027228
     7  Na   0.325331   0.505132
 Sum of Mulliken charges =  -0.00000   1.00000

 Dipole moment (field-independent basis, Debye):
    X=              0.9639    Y=             -0.0339    Z=             -0.0458  Tot=              0.9656
 Quadrupole moment (field-independent basis, Debye-Ang):
   XX=            -59.1433   YY=            -61.7943   ZZ=            -72.0548
   XY=             -4.5839   XZ=              2.0526   YZ=              0.1907

 Normal termination of Gaussian 16 at Tue Nov 28 22:56:47 2023.
