 Gaussian 16, Revision B.01,
 Gaussian 16:  ES64L-G16RevB.01 20-Dec-2017

 -------------------------
 #P B3LYP/6-311+g(d) force
 -------------------------

 -----
 DPGEN
 -----
 Symbolic Z-matrix:
 Charge =  0 Multiplicity = 2

                         Standard orientation:
 ---------------------------------------------------------------------
 Center     Atomic      Atomic             Coordinates (Angstroms)
 Number     Number       Type             X           Y           Z
 ---------------------------------------------------------------------
      1         11           0       -3.403481   -1.199351   -0.052787
      2         11           0       -1.535542    2.792548   -0.281650
      3         11           0       -0.549205   -0.240219    2.023166
      4         11           0        2.998827   -0.715601    0.188510
      5         11           0        0.619766   -3.077711   -0.378795
      6         11           0        1.784480    2.306678    0.174213
      7         11           0        0.085155    0.133656   -1.672657
 ---------------------------------------------------------------------

 SCF Done:  E(UB3LYP) =  -1136.13275347     A.U. after   20 cycles

 The electronic state is 2-A.
 Alpha  occ. eigenvalues --  -38.44595 -38.44052 -38.44018 -38.43697 -38.43618
 Alpha  occ. eigenvalues --  -38.43398 -38.43336  -2.20333  -2.19867  -2.19826
 Alpha  occ. eigenvalues --   -2.19535  -2.19474  -2.19279  -2.19265  -1.14011
 Alpha  occ. eigenvalues --   -1.13989  -1.13977  -1.13546  -1.13531  -1.13502
 Alpha  occ. eigenvalues --   -1.13499  -1.13491  -1.13459  -1.13208  -1.13172
 Alpha  occ. eigenvalues --   -1.13171  -1.13148  -1.13130  -1.13119  -1.12995
 Alpha  occ. eigenvalues --   -1.12939  -1.12928  -1.12914  -1.12887  -1.12875
 Alpha  occ. eigenvalues --   -0.18163  -0.12716  -0.12505  -0.10470
 Alpha virt. eigenvalues --   -0.06179  -0.05303  -0.04715  -0.03061  -0.02964
 Alpha virt. eigenvalues --   -0.02403  -0.01699  -0.01461  -0.00628  -0.00483
 Alpha virt. eigenvalues --   -0.00032   0.00331   0.00704   0.00809   0.00833

  Beta  occ. eigenvalues --  -38.44600 -38.44044 -38.44007 -38.43613 -38.43612
  Beta  occ. eigenvalues --  -38.43390 -38.43272  -2.20345  -2.19855  -2.19807
  Beta  occ. eigenvalues --   -2.19466  -2.19381  -2.19267  -2.19148  -1.14005
  Beta  occ. eigenvalues --   -1.14000  -1.13986  -1.13531  -1.13514  -1.13491
  Beta  occ. eigenvalues --   -1.13485  -1.13469  -1.13447  -1.13168  -1.13120
  Beta  occ. eigenvalues --   -1.13103  -1.13098  -1.13066  -1.13033  -1.12968
  Beta  occ. eigenvalues --   -1.12917  -1.12891  -1.12862  -1.12811  -1.12792
  Beta  occ. eigenvalues --   -0.17456  -0.12479  -0.12295
  Beta virt. eigenvalues --   -0.06679  -0.06117  -0.05166  -0.04703  -0.02339
  Beta virt. eigenvalues --   -0.02241  -0.01699  -0.01354  -0.01332  -0.00645
  Beta virt. eigenvalues --   -0.00536   0.00119   0.00371   0.00719   0.00857

 Mulliken charges and spin densities:
               1          2
     1  Na  -0.030547  -0.172843
     2  Na   0.224901  -0.047635
     3  Na  -0.447255   0.680153
     4  Na   0.095009   0.064621
     5  Na   0.171532  -0.028400
     6  Na   0.150565   0.094740
     7  Na  -0.164206   0.409363
 Sum of Mulliken charges =  -0.00000   1.00000

 Dipole moment (field-independent basis, Debye):
    X=             -0.5240    Y=             -0.1538    Z=              0.0049  Tot=              0.5461
 Quadrupole moment (field-independent basis, Debye-Ang):
   XX=            -57.4281   YY=            -59.9732   ZZ=            -75.6524
   XY=             -0.3676   XZ=              1.8493   YZ=              0.9083

 Normal termination of Gaussian 16 at Fri Dec  8 02:20:18 2023.
