 Gaussian 16, Revision B.01,
 Gaussian 16:  ES64L-G16RevB.01 20-Dec-2017

 -------------------------
 #P B3LYP/6-311+g(d) force
 -------------------------

 -----
 DPGEN
 -----
 Symbolic Z-matrix:
 Charge =  0 Multiplicity = 2

                         Standard orientation:
 ---------------------------------------------------------------------
 Center     Atomic      Atomic             Coordinates (Angstroms)
 Number     Number       Type             X           Y           Z
 ---------------------------------------------------------------------
      1         11           0        0.981740   -0.543650    1.725695
      2         11           0       -1.917065   -1.555668    1.436394
      3         11           0       -1.327727    1.664466    0.648947
      4         11           0        1.749070    2.069568   -0.116748
      5         11           0        3.933054   -0.589667   -0.614326
      6         11           0       -3.531514    0.390169   -1.341344
      7         11           0        0.112442   -1.435218   -1.738618
 ---------------------------------------------------------------------

 SCF Done:  E(UB3LYP) =  -1136.12008364     A.U. after   32 cycles

 The electronic state is 2-A.
 Alpha  occ. eigenvalues --  -38.45023 -38.44784 -38.44328 -38.44221 -38.44065
 Alpha  occ. eigenvalues --  -38.42991 -38.42269  -2.20842  -2.20560  -2.20227
 Alpha  occ. eigenvalues --   -2.20027  -2.19988  -2.18875  -2.18213  -1.14508
 Alpha  occ. eigenvalues --   -1.14490  -1.14447  -1.14242  -1.14216  -1.14186
 Alpha  occ. eigenvalues --   -1.13984  -1.13857  -1.13830  -1.13716  -1.13687
 Alpha  occ. eigenvalues --   -1.13671  -1.13660  -1.13619  -1.13585  -1.12575
 Alpha  occ. eigenvalues --   -1.12542  -1.12492  -1.11902  -1.11895  -1.11839
 Alpha  occ. eigenvalues --   -0.18483  -0.13915  -0.11940  -0.10792
 Alpha virt. eigenvalues --   -0.06884  -0.04928  -0.04576  -0.03314  -0.02694
 Alpha virt. eigenvalues --   -0.02496  -0.02473  -0.01104  -0.00844  -0.00090
 Alpha virt. eigenvalues --    0.00108   0.00230   0.00313   0.00671   0.00708

  Beta  occ. eigenvalues --  -38.44960 -38.44779 -38.44266 -38.44211 -38.43996
  Beta  occ. eigenvalues --  -38.42987 -38.42259  -2.20726  -2.20552  -2.20119
  Beta  occ. eigenvalues --   -2.19970  -2.19906  -2.18866  -2.18199  -1.14424
  Beta  occ. eigenvalues --   -1.14410  -1.14371  -1.14233  -1.14211  -1.14181
  Beta  occ. eigenvalues --   -1.13880  -1.13786  -1.13750  -1.13682  -1.13649
  Beta  occ. eigenvalues --   -1.13632  -1.13576  -1.13547  -1.13535  -1.12571
  Beta  occ. eigenvalues --   -1.12533  -1.12485  -1.11898  -1.11858  -1.11824
  Beta  occ. eigenvalues --   -0.17753  -0.13567  -0.10668
  Beta virt. eigenvalues --   -0.07961  -0.06649  -0.04483  -0.04338  -0.02953
  Beta virt. eigenvalues --   -0.02413  -0.02008  -0.01823  -0.00850  -0.00614
  Beta virt. eigenvalues --    0.00015   0.00158   0.00284   0.00392   0.00755

 Mulliken charges and spin densities:
               1          2
     1  Na  -0.158307   0.188969
     2  Na   0.427097   0.072474
     3  Na  -0.683854   0.494764
     4  Na   0.205773  -0.066404
     5  Na   0.414186   0.032526
     6  Na   0.430380   0.082744
     7  Na  -0.635275   0.194928
 Sum of Mulliken charges =  -0.00000   1.00000

 Dipole moment (field-independent basis, Debye):
    X=              0.0238    Y=             -0.4300    Z=             -0.3267  Tot=              0.5406
 Quadrupole moment (field-independent basis, Debye-Ang):
   XX=            -48.3810   YY=            -78.0737   ZZ=            -67.6933
   XY=              0.5388   XZ=              0.7908   YZ=             -6.3327

 Normal termination of Gaussian 16 at Thu Dec  7 23:12:45 2023.
