 Gaussian 16, Revision B.01,
 Gaussian 16:  ES64L-G16RevB.01 20-Dec-2017

 -------------------------
 #P B3LYP/6-311+g(d) force
 -------------------------

 -----
 DPGEN
 -----
 Symbolic Z-matrix:
 Charge =  0 Multiplicity = 2

                         Standard orientation:
 ---------------------------------------------------------------------
 Center     Atomic      Atomic             Coordinates (Angstroms)
 Number     Number       Type             X           Y           Z
 ---------------------------------------------------------------------
      1         11           0        3.289392   -2.011350   -0.206412
      2         11           0        2.965029    1.615881   -0.657198
      3         11           0       -3.416090   -1.258450   -0.519092
      4         11           0       -2.115286    1.629568   -1.259667
      5         11           0       -0.889891   -0.458969    2.183408
      6         11           0       -0.008394   -2.613245   -0.284977
      7         11           0        0.175239    3.096565    0.743938
 ---------------------------------------------------------------------

 SCF Done:  E(UB3LYP) =  -1136.12286203     A.U. after   21 cycles

 The electronic state is 2-A.
 Alpha  occ. eigenvalues --  -38.44840 -38.44419 -38.44299 -38.44275 -38.44146
 Alpha  occ. eigenvalues --  -38.43911 -38.43615  -2.20593  -2.20241  -2.20125
 Alpha  occ. eigenvalues --   -2.20102  -2.19956  -2.19694  -2.19427  -1.14279
 Alpha  occ. eigenvalues --   -1.14257  -1.14222  -1.13919  -1.13910  -1.13887
 Alpha  occ. eigenvalues --   -1.13794  -1.13769  -1.13756  -1.13748  -1.13745
 Alpha  occ. eigenvalues --   -1.13720  -1.13640  -1.13633  -1.13582  -1.13361
 Alpha  occ. eigenvalues --   -1.13346  -1.13336  -1.13096  -1.13085  -1.13072
 Alpha  occ. eigenvalues --   -0.17105  -0.13297  -0.12741  -0.10661
 Alpha virt. eigenvalues --   -0.06593  -0.05913  -0.04525  -0.03462  -0.03152
 Alpha virt. eigenvalues --   -0.02283  -0.01729  -0.01477  -0.01207  -0.00783
 Alpha virt. eigenvalues --   -0.00148   0.00283   0.00348   0.00597   0.00695

  Beta  occ. eigenvalues --  -38.44831 -38.44378 -38.44247 -38.44202 -38.44145
  Beta  occ. eigenvalues --  -38.43904 -38.43605  -2.20577  -2.20168  -2.20053
  Beta  occ. eigenvalues --   -2.19957  -2.19945  -2.19681  -2.19409  -1.14267
  Beta  occ. eigenvalues --   -1.14247  -1.14208  -1.13870  -1.13862  -1.13821
  Beta  occ. eigenvalues --   -1.13735  -1.13711  -1.13686  -1.13676  -1.13636
  Beta  occ. eigenvalues --   -1.13629  -1.13628  -1.13607  -1.13576  -1.13353
  Beta  occ. eigenvalues --   -1.13339  -1.13324  -1.13085  -1.13073  -1.13050
  Beta  occ. eigenvalues --   -0.16508  -0.12881  -0.12632
  Beta virt. eigenvalues --   -0.06981  -0.06537  -0.05581  -0.04323  -0.02887
  Beta virt. eigenvalues --   -0.02578  -0.01673  -0.01633  -0.01297  -0.01121
  Beta virt. eigenvalues --   -0.00730   0.00121   0.00385   0.00483   0.00712

 Mulliken charges and spin densities:
               1          2
     1  Na   0.177963   0.034027
     2  Na  -0.030629  -0.020148
     3  Na   0.595173   0.222733
     4  Na  -0.168871   0.130823
     5  Na  -0.104206   0.344100
     6  Na  -0.339506   0.011288
     7  Na  -0.129925   0.277177
 Sum of Mulliken charges =  -0.00000   1.00000

 Dipole moment (field-independent basis, Debye):
    X=             -0.1244    Y=             -0.0970    Z=              0.0512  Tot=              0.1658
 Quadrupole moment (field-independent basis, Debye-Ang):
   XX=            -62.3161   YY=            -64.9088   ZZ=            -72.2306
   XY=              2.8624   XZ=             -0.8216   YZ=              0.5407

 Normal termination of Gaussian 16 at Sun Dec  3 16:17:55 2023.
