 Gaussian 16, Revision B.01,
 Gaussian 16:  ES64L-G16RevB.01 20-Dec-2017

 -------------------------
 #P B3LYP/6-311+g(d) force
 -------------------------

 -----
 DPGEN
 -----
 Symbolic Z-matrix:
 Charge =  0 Multiplicity = 2

                         Standard orientation:
 ---------------------------------------------------------------------
 Center     Atomic      Atomic             Coordinates (Angstroms)
 Number     Number       Type             X           Y           Z
 ---------------------------------------------------------------------
      1         11           0       -1.393627    0.135610    1.347672
      2         11           0        2.345029    0.436061    1.171551
      3         11           0        0.790662   -2.272016    0.224680
      4         11           0       -4.090995    1.148015   -0.815584
      5         11           0       -2.631554   -2.171513   -0.553531
      6         11           0        4.899397   -0.057281   -1.188909
      7         11           0        0.081089    2.781124   -0.185878
 ---------------------------------------------------------------------

 SCF Done:  E(UB3LYP) =  -1136.12264385     A.U. after   21 cycles

 The electronic state is 2-A.
 Alpha  occ. eigenvalues --  -38.45012 -38.44537 -38.43914 -38.43711 -38.43679
 Alpha  occ. eigenvalues --  -38.43656 -38.43367  -2.20805  -2.20323  -2.19834
 Alpha  occ. eigenvalues --   -2.19546  -2.19535  -2.19445  -2.19210  -1.14441
 Alpha  occ. eigenvalues --   -1.14435  -1.14411  -1.13992  -1.13958  -1.13949
 Alpha  occ. eigenvalues --   -1.13547  -1.13501  -1.13471  -1.13241  -1.13227
 Alpha  occ. eigenvalues --   -1.13219  -1.13216  -1.13177  -1.13161  -1.13119
 Alpha  occ. eigenvalues --   -1.13106  -1.13067  -1.12893  -1.12884  -1.12817
 Alpha  occ. eigenvalues --   -0.17309  -0.14051  -0.11545  -0.11373
 Alpha virt. eigenvalues --   -0.05870  -0.05490  -0.04992  -0.03513  -0.02386
 Alpha virt. eigenvalues --   -0.02372  -0.02213  -0.01376  -0.00638  -0.00627
 Alpha virt. eigenvalues --   -0.00284   0.00107   0.00233   0.00354   0.00544

  Beta  occ. eigenvalues --  -38.44894 -38.44486 -38.43896 -38.43707 -38.43678
  Beta  occ. eigenvalues --  -38.43648 -38.43357  -2.20584  -2.20229  -2.19804
  Beta  occ. eigenvalues --   -2.19540  -2.19539  -2.19433  -2.19194  -1.14290
  Beta  occ. eigenvalues --   -1.14285  -1.14266  -1.13928  -1.13896  -1.13882
  Beta  occ. eigenvalues --   -1.13532  -1.13467  -1.13436  -1.13247  -1.13225
  Beta  occ. eigenvalues --   -1.13220  -1.13217  -1.13138  -1.13137  -1.13111
  Beta  occ. eigenvalues --   -1.13091  -1.13061  -1.12874  -1.12870  -1.12811
  Beta  occ. eigenvalues --   -0.16824  -0.13159  -0.11423
  Beta virt. eigenvalues --   -0.07788  -0.05680  -0.05140  -0.04577  -0.03411
  Beta virt. eigenvalues --   -0.02064  -0.01843  -0.01682  -0.01180  -0.00486
  Beta virt. eigenvalues --   -0.00309  -0.00226   0.00257   0.00356   0.00516

 Mulliken charges and spin densities:
               1          2
     1  Na   0.529646  -0.086473
     2  Na   0.097371  -0.057014
     3  Na  -0.404434   0.008024
     4  Na   0.027435   0.328551
     5  Na  -0.047131   0.151493
     6  Na   0.064119   0.601995
     7  Na  -0.267006   0.053425
 Sum of Mulliken charges =  -0.00000   1.00000

 Dipole moment (field-independent basis, Debye):
    X=             -0.3374    Y=              0.1269    Z=             -0.7948  Tot=              0.8727
 Quadrupole moment (field-independent basis, Debye-Ang):
   XX=            -60.0973   YY=            -71.3820   ZZ=            -65.7216
   XY=             -0.3595   XZ=              0.3221   YZ=             -0.6359

 Normal termination of Gaussian 16 at Wed Nov 29 03:11:28 2023.
