 Gaussian 16, Revision B.01,
 Gaussian 16:  ES64L-G16RevB.01 20-Dec-2017

 -------------------------
 #P B3LYP/6-311+g(d) force
 -------------------------

 -----
 DPGEN
 -----
 Symbolic Z-matrix:
 Charge =  0 Multiplicity = 2

                         Standard orientation:
 ---------------------------------------------------------------------
 Center     Atomic      Atomic             Coordinates (Angstroms)
 Number     Number       Type             X           Y           Z
 ---------------------------------------------------------------------
      1         11           0        2.055601   -3.098581   -0.243163
      2         11           0       -3.812437   -0.029319    0.263485
      3         11           0       -1.236659    1.871024    0.715182
      4         11           0        0.630760    0.018106   -1.803154
      5         11           0       -1.493403   -2.105817   -0.148439
      6         11           0        2.263882    0.133690    2.037083
      7         11           0        1.592257    3.210897   -0.820995
 ---------------------------------------------------------------------

 SCF Done:  E(UB3LYP) =  -1136.12899610     A.U. after   19 cycles

 The electronic state is 2-A.
 Alpha  occ. eigenvalues --  -38.44431 -38.44043 -38.43966 -38.43947 -38.43935
 Alpha  occ. eigenvalues --  -38.43927 -38.43584  -2.20212  -2.19812  -2.19810
 Alpha  occ. eigenvalues --   -2.19804  -2.19785  -2.19730  -2.19435  -1.13875
 Alpha  occ. eigenvalues --   -1.13839  -1.13820  -1.13536  -1.13505  -1.13498
 Alpha  occ. eigenvalues --   -1.13493  -1.13474  -1.13469  -1.13467  -1.13462
 Alpha  occ. eigenvalues --   -1.13454  -1.13447  -1.13417  -1.13410  -1.13388
 Alpha  occ. eigenvalues --   -1.13372  -1.13348  -1.13094  -1.13077  -1.13069
 Alpha  occ. eigenvalues --   -0.17510  -0.13059  -0.12631  -0.10720
 Alpha virt. eigenvalues --   -0.05713  -0.05583  -0.05160  -0.03241  -0.03129
 Alpha virt. eigenvalues --   -0.02369  -0.01725  -0.01576  -0.00633  -0.00510
 Alpha virt. eigenvalues --   -0.00124   0.00239   0.00586   0.00638   0.00733

  Beta  occ. eigenvalues --  -38.44329 -38.44051 -38.43956 -38.43929 -38.43915
  Beta  occ. eigenvalues --  -38.43888 -38.43583  -2.20022  -2.19825  -2.19794
  Beta  occ. eigenvalues --   -2.19776  -2.19711  -2.19697  -2.19434  -1.13743
  Beta  occ. eigenvalues --   -1.13711  -1.13688  -1.13506  -1.13505  -1.13487
  Beta  occ. eigenvalues --   -1.13472  -1.13470  -1.13461  -1.13449  -1.13443
  Beta  occ. eigenvalues --   -1.13421  -1.13404  -1.13398  -1.13377  -1.13362
  Beta  occ. eigenvalues --   -1.13346  -1.13298  -1.13093  -1.13072  -1.13070
  Beta  occ. eigenvalues --   -0.16955  -0.12744  -0.12469
  Beta virt. eigenvalues --   -0.06949  -0.05483  -0.05463  -0.04907  -0.02678
  Beta virt. eigenvalues --   -0.02539  -0.01765  -0.01561  -0.01511  -0.00639
  Beta virt. eigenvalues --   -0.00183   0.00082   0.00314   0.00723   0.00767

 Mulliken charges and spin densities:
               1          2
     1  Na   0.293172   0.047801
     2  Na   0.262131  -0.134562
     3  Na  -0.306339   0.307499
     4  Na  -0.203932   0.185038
     5  Na  -0.272335   0.096479
     6  Na  -0.316757   0.474141
     7  Na   0.544060   0.023604
 Sum of Mulliken charges =  -0.00000   1.00000

 Dipole moment (field-independent basis, Debye):
    X=              0.1010    Y=              0.0761    Z=             -0.2592  Tot=              0.2884
 Quadrupole moment (field-independent basis, Debye-Ang):
   XX=            -61.1307   YY=            -60.3050   ZZ=            -73.9095
   XY=              0.3841   XZ=             -1.3276   YZ=             -0.1398

 Normal termination of Gaussian 16 at Sun Dec  3 14:55:35 2023.
