 Gaussian 16, Revision B.01,
 Gaussian 16:  ES64L-G16RevB.01 20-Dec-2017

 -------------------------
 #P B3LYP/6-311+g(d) force
 -------------------------

 -----
 DPGEN
 -----
 Symbolic Z-matrix:
 Charge =  0 Multiplicity = 2

                         Standard orientation:
 ---------------------------------------------------------------------
 Center     Atomic      Atomic             Coordinates (Angstroms)
 Number     Number       Type             X           Y           Z
 ---------------------------------------------------------------------
      1         11           0       -2.301214    0.323802   -0.932496
      2         11           0        3.810609   -2.000869   -0.004370
      3         11           0        0.219163    3.769129   -0.292858
      4         11           0        0.226476   -1.983861    0.153163
      5         11           0       -0.146202    1.138289    1.984894
      6         11           0       -3.772449   -1.849170    0.004517
      7         11           0        1.963616    0.602680   -0.912851
 ---------------------------------------------------------------------

 SCF Done:  E(UB3LYP) =  -1136.12343857     A.U. after   20 cycles

 The electronic state is 2-A.
 Alpha  occ. eigenvalues --  -38.44279 -38.44217 -38.44101 -38.44014 -38.43835
 Alpha  occ. eigenvalues --  -38.43641 -38.43495  -2.20135  -2.20018  -2.19998
 Alpha  occ. eigenvalues --   -2.19876  -2.19713  -2.19439  -2.19364  -1.14040
 Alpha  occ. eigenvalues --   -1.13766  -1.13750  -1.13696  -1.13676  -1.13664
 Alpha  occ. eigenvalues --   -1.13650  -1.13635  -1.13615  -1.13551  -1.13518
 Alpha  occ. eigenvalues --   -1.13457  -1.13419  -1.13393  -1.13285  -1.13105
 Alpha  occ. eigenvalues --   -1.13102  -1.13072  -1.13025  -1.13018  -1.12955
 Alpha  occ. eigenvalues --   -0.17793  -0.13530  -0.12592  -0.10011
 Alpha virt. eigenvalues --   -0.06420  -0.05259  -0.05103  -0.02981  -0.02737
 Alpha virt. eigenvalues --   -0.02394  -0.02001  -0.01762  -0.00870  -0.00400
 Alpha virt. eigenvalues --   -0.00129   0.00110   0.00624   0.00687   0.00697

  Beta  occ. eigenvalues --  -38.44266 -38.44208 -38.44083 -38.43992 -38.43814
  Beta  occ. eigenvalues --  -38.43623 -38.43415  -2.20112  -2.20001  -2.19969
  Beta  occ. eigenvalues --   -2.19839  -2.19676  -2.19406  -2.19216  -1.14021
  Beta  occ. eigenvalues --   -1.13750  -1.13725  -1.13682  -1.13659  -1.13646
  Beta  occ. eigenvalues --   -1.13641  -1.13606  -1.13583  -1.13500  -1.13496
  Beta  occ. eigenvalues --   -1.13435  -1.13399  -1.13350  -1.13259  -1.13080
  Beta  occ. eigenvalues --   -1.13071  -1.13050  -1.12926  -1.12918  -1.12846
  Beta  occ. eigenvalues --   -0.17193  -0.13197  -0.12424
  Beta virt. eigenvalues --   -0.06510  -0.06105  -0.05037  -0.04858  -0.02486
  Beta virt. eigenvalues --   -0.02356  -0.02325  -0.01755  -0.01196  -0.00737
  Beta virt. eigenvalues --   -0.00171   0.00052   0.00269   0.00726   0.00756

 Mulliken charges and spin densities:
               1          2
     1  Na  -0.590772   0.173836
     2  Na   0.611480   0.094028
     3  Na   0.301099   0.138870
     4  Na  -0.633211   0.000055
     5  Na   0.046659   0.240740
     6  Na   0.731590   0.087845
     7  Na  -0.466844   0.264626
 Sum of Mulliken charges =  -0.00000   1.00000

 Dipole moment (field-independent basis, Debye):
    X=              0.1886    Y=             -0.5799    Z=              0.8591  Tot=              1.0535
 Quadrupole moment (field-independent basis, Debye-Ang):
   XX=            -60.6564   YY=            -60.5020   ZZ=            -73.4500
   XY=             -1.1028   XZ=             -0.5585   YZ=             -1.6423

 Normal termination of Gaussian 16 at Tue Dec  5 16:41:59 2023.
