 Gaussian 16, Revision B.01,
 Gaussian 16:  ES64L-G16RevB.01 20-Dec-2017

 -------------------------
 #P B3LYP/6-311+g(d) force
 -------------------------

 -----
 DPGEN
 -----
 Symbolic Z-matrix:
 Charge =  0 Multiplicity = 2

                         Standard orientation:
 ---------------------------------------------------------------------
 Center     Atomic      Atomic             Coordinates (Angstroms)
 Number     Number       Type             X           Y           Z
 ---------------------------------------------------------------------
      1         11           0        0.242002   -0.191605    1.734414
      2         11           0       -2.091955   -2.056688   -0.791102
      3         11           0        0.503321   -1.101726   -1.500541
      4         11           0        3.031337    1.687037   -0.383600
      5         11           0       -3.601077    0.777283    0.961791
      6         11           0        2.896684   -1.327902    0.847647
      7         11           0       -0.980312    2.213602   -0.868610
 ---------------------------------------------------------------------

 SCF Done:  E(UB3LYP) =  -1136.11909958     A.U. after   23 cycles

 The electronic state is 2-A.
 Alpha  occ. eigenvalues --  -38.44672 -38.44579 -38.44475 -38.44343 -38.43611
 Alpha  occ. eigenvalues --  -38.43593 -38.43076  -2.20572  -2.20372  -2.20276
 Alpha  occ. eigenvalues --   -2.20255  -2.19480  -2.19395  -2.19057  -1.14294
 Alpha  occ. eigenvalues --   -1.14247  -1.14187  -1.14038  -1.14023  -1.14001
 Alpha  occ. eigenvalues --   -1.13978  -1.13947  -1.13919  -1.13911  -1.13885
 Alpha  occ. eigenvalues --   -1.13837  -1.13297  -1.13110  -1.13092  -1.13086
 Alpha  occ. eigenvalues --   -1.13069  -1.13012  -1.12722  -1.12688  -1.12648
 Alpha  occ. eigenvalues --   -0.18448  -0.14000  -0.11372  -0.11078
 Alpha virt. eigenvalues --   -0.06763  -0.05452  -0.04456  -0.03257  -0.02678
 Alpha virt. eigenvalues --   -0.02514  -0.02312  -0.01346  -0.00668  -0.00143
 Alpha virt. eigenvalues --    0.00133   0.00180   0.00445   0.00608   0.00673

  Beta  occ. eigenvalues --  -38.44618 -38.44552 -38.44468 -38.44313 -38.43598
  Beta  occ. eigenvalues --  -38.43577 -38.43023  -2.20474  -2.20321  -2.20265
  Beta  occ. eigenvalues --   -2.20203  -2.19459  -2.19368  -2.18962  -1.14225
  Beta  occ. eigenvalues --   -1.14161  -1.14126  -1.13999  -1.13990  -1.13969
  Beta  occ. eigenvalues --   -1.13967  -1.13931  -1.13902  -1.13861  -1.13846
  Beta  occ. eigenvalues --   -1.13811  -1.13262  -1.13093  -1.13077  -1.13070
  Beta  occ. eigenvalues --   -1.13042  -1.12983  -1.12665  -1.12613  -1.12576
  Beta  occ. eigenvalues --   -0.17800  -0.13722  -0.11053
  Beta virt. eigenvalues --   -0.07381  -0.06543  -0.05390  -0.03834  -0.03048
  Beta virt. eigenvalues --   -0.02329  -0.02050  -0.01512  -0.01242  -0.00417
  Beta virt. eigenvalues --   -0.00077   0.00197   0.00221   0.00576   0.00699

 Mulliken charges and spin densities:
               1          2
     1  Na  -0.736109   0.407666
     2  Na  -0.270209  -0.091264
     3  Na  -0.083847   0.529977
     4  Na  -0.181486   0.036325
     5  Na   0.511876   0.180860
     6  Na   1.152514   0.021061
     7  Na  -0.392739  -0.084626
 Sum of Mulliken charges =  -0.00000   1.00000

 Dipole moment (field-independent basis, Debye):
    X=              0.2797    Y=             -0.0216    Z=              0.3659  Tot=              0.4611
 Quadrupole moment (field-independent basis, Debye-Ang):
   XX=            -48.8705   YY=            -74.3655   ZZ=            -71.7415
   XY=              1.0475   XZ=             -1.6034   YZ=             -2.0449

 Normal termination of Gaussian 16 at Tue Dec  5 11:32:06 2023.
