 Gaussian 16, Revision B.01,
 Gaussian 16:  ES64L-G16RevB.01 20-Dec-2017

 -------------------------
 #P B3LYP/6-311+g(d) force
 -------------------------

 -----
 DPGEN
 -----
 Symbolic Z-matrix:
 Charge =  0 Multiplicity = 2

                         Standard orientation:
 ---------------------------------------------------------------------
 Center     Atomic      Atomic             Coordinates (Angstroms)
 Number     Number       Type             X           Y           Z
 ---------------------------------------------------------------------
      1         11           0        1.127521   -0.539750    2.081850
      2         11           0        0.235584   -0.523116   -1.748608
      3         11           0       -1.245787   -1.851165    0.116713
      4         11           0        3.092654   -1.402025   -0.338037
      5         11           0        2.420244    2.405988   -0.341731
      6         11           0       -4.050049    0.017498   -0.180439
      7         11           0       -1.580167    1.892569    0.410253
 ---------------------------------------------------------------------

 SCF Done:  E(UB3LYP) =  -1136.11452232     A.U. after   24 cycles

 The electronic state is 2-A.
 Alpha  occ. eigenvalues --  -38.45548 -38.45269 -38.44174 -38.43726 -38.43613
 Alpha  occ. eigenvalues --  -38.43466 -38.43349  -2.21358  -2.21094  -2.20135
 Alpha  occ. eigenvalues --   -2.19617  -2.19444  -2.19420  -2.19115  -1.15035
 Alpha  occ. eigenvalues --   -1.15018  -1.14994  -1.14792  -1.14758  -1.14710
 Alpha  occ. eigenvalues --   -1.13999  -1.13736  -1.13726  -1.13298  -1.13256
 Alpha  occ. eigenvalues --   -1.13216  -1.13135  -1.13122  -1.13117  -1.13070
 Alpha  occ. eigenvalues --   -1.13060  -1.12970  -1.12791  -1.12770  -1.12763
 Alpha  occ. eigenvalues --   -0.18495  -0.14042  -0.11158  -0.10894
 Alpha virt. eigenvalues --   -0.07236  -0.05459  -0.03891  -0.03257  -0.03018
 Alpha virt. eigenvalues --   -0.02545  -0.02265  -0.01335  -0.00556  -0.00272
 Alpha virt. eigenvalues --    0.00032   0.00170   0.00332   0.00665   0.00761

  Beta  occ. eigenvalues --  -38.45553 -38.45261 -38.44104 -38.43631 -38.43606
  Beta  occ. eigenvalues --  -38.43450 -38.43346  -2.21369  -2.21085  -2.20008
  Beta  occ. eigenvalues --   -2.19444  -2.19432  -2.19396  -2.19111  -1.15043
  Beta  occ. eigenvalues --   -1.15023  -1.14999  -1.14762  -1.14746  -1.14706
  Beta  occ. eigenvalues --   -1.13915  -1.13643  -1.13639  -1.13180  -1.13143
  Beta  occ. eigenvalues --   -1.13127  -1.13098  -1.13095  -1.13086  -1.13066
  Beta  occ. eigenvalues --   -1.13003  -1.12958  -1.12780  -1.12767  -1.12762
  Beta  occ. eigenvalues --   -0.17785  -0.13849  -0.10953
  Beta virt. eigenvalues --   -0.07086  -0.06933  -0.05451  -0.03366  -0.03033
  Beta virt. eigenvalues --   -0.02804  -0.01678  -0.01572  -0.01304  -0.00381
  Beta virt. eigenvalues --   -0.00116   0.00087   0.00152   0.00559   0.00705

 Mulliken charges and spin densities:
               1          2
     1  Na   0.145356   0.406286
     2  Na   0.047812   0.353005
     3  Na   0.066339   0.384629
     4  Na   0.330313   0.006144
     5  Na  -0.417364  -0.050247
     6  Na   0.386975  -0.176592
     7  Na  -0.559431   0.076777
 Sum of Mulliken charges =  -0.00000   1.00000

 Dipole moment (field-independent basis, Debye):
    X=             -0.6024    Y=             -0.5842    Z=             -0.0929  Tot=              0.8443
 Quadrupole moment (field-independent basis, Debye-Ang):
   XX=            -42.9571   YY=            -75.6531   ZZ=            -73.5720
   XY=             -1.9839   XZ=              0.0506   YZ=             -0.3192

 Normal termination of Gaussian 16 at Tue Dec  5 22:39:31 2023.
