 Gaussian 16, Revision B.01,
 Gaussian 16:  ES64L-G16RevB.01 20-Dec-2017

 -------------------------
 #P B3LYP/6-311+g(d) force
 -------------------------

 -----
 DPGEN
 -----
 Symbolic Z-matrix:
 Charge =  0 Multiplicity = 2

                         Standard orientation:
 ---------------------------------------------------------------------
 Center     Atomic      Atomic             Coordinates (Angstroms)
 Number     Number       Type             X           Y           Z
 ---------------------------------------------------------------------
      1         11           0        0.089657   -1.263900    1.794098
      2         11           0        2.646684   -2.031805    0.334040
      3         11           0       -3.434337   -1.359273   -0.530574
      4         11           0        0.281922    2.512531   -0.412866
      5         11           0       -2.772741    1.929448    0.826399
      6         11           0       -0.339503   -1.218426   -1.715812
      7         11           0        3.528319    1.431425   -0.295284
 ---------------------------------------------------------------------

 SCF Done:  E(UB3LYP) =  -1136.11998819     A.U. after   21 cycles

 The electronic state is 2-A.
 Alpha  occ. eigenvalues --  -38.44813 -38.44504 -38.44363 -38.44201 -38.44104
 Alpha  occ. eigenvalues --  -38.44043 -38.43302  -2.20610  -2.20284  -2.20204
 Alpha  occ. eigenvalues --   -2.20058  -2.19952  -2.19848  -2.19105  -1.14285
 Alpha  occ. eigenvalues --   -1.14266  -1.14248  -1.13951  -1.13937  -1.13925
 Alpha  occ. eigenvalues --   -1.13881  -1.13850  -1.13828  -1.13803  -1.13704
 Alpha  occ. eigenvalues --   -1.13687  -1.13601  -1.13579  -1.13561  -1.13514
 Alpha  occ. eigenvalues --   -1.13506  -1.13478  -1.12792  -1.12785  -1.12742
 Alpha  occ. eigenvalues --   -0.17527  -0.13626  -0.12176  -0.10573
 Alpha virt. eigenvalues --   -0.06920  -0.05954  -0.04079  -0.03442  -0.02900
 Alpha virt. eigenvalues --   -0.02491  -0.02282  -0.01735  -0.00784  -0.00276
 Alpha virt. eigenvalues --    0.00003   0.00070   0.00388   0.00505   0.00618

  Beta  occ. eigenvalues --  -38.44791 -38.44487 -38.44309 -38.44139 -38.44093
  Beta  occ. eigenvalues --  -38.44010 -38.43303  -2.20573  -2.20253  -2.20103
  Beta  occ. eigenvalues --   -2.19948  -2.19934  -2.19787  -2.19111  -1.14246
  Beta  occ. eigenvalues --   -1.14243  -1.14216  -1.13928  -1.13915  -1.13905
  Beta  occ. eigenvalues --   -1.13814  -1.13784  -1.13756  -1.13735  -1.13626
  Beta  occ. eigenvalues --   -1.13614  -1.13584  -1.13566  -1.13513  -1.13474
  Beta  occ. eigenvalues --   -1.13457  -1.13440  -1.12797  -1.12788  -1.12726
  Beta  occ. eigenvalues --   -0.16999  -0.13283  -0.11760
  Beta virt. eigenvalues --   -0.07146  -0.06773  -0.05680  -0.03702  -0.03097
  Beta virt. eigenvalues --   -0.02445  -0.02176  -0.01768  -0.01421  -0.00714
  Beta virt. eigenvalues --   -0.00067   0.00040   0.00162   0.00529   0.00576

 Mulliken charges and spin densities:
               1          2
     1  Na  -0.361820   0.306576
     2  Na   0.573136   0.098645
     3  Na   0.229710  -0.005764
     4  Na  -0.190378  -0.054507
     5  Na   0.230392   0.175087
     6  Na  -0.263203   0.393593
     7  Na  -0.217838   0.086371
 Sum of Mulliken charges =  -0.00000   1.00000

 Dipole moment (field-independent basis, Debye):
    X=             -0.1197    Y=             -0.7425    Z=              0.1266  Tot=              0.7627
 Quadrupole moment (field-independent basis, Debye-Ang):
   XX=            -49.7867   YY=            -74.1106   ZZ=            -73.1222
   XY=             -0.9532   XZ=             -2.0973   YZ=              0.7926

 Normal termination of Gaussian 16 at Tue Nov 28 21:02:14 2023.
