 Gaussian 16, Revision B.01,
 Gaussian 16:  ES64L-G16RevB.01 20-Dec-2017

 -------------------------
 #P B3LYP/6-311+g(d) force
 -------------------------

 -----
 DPGEN
 -----
 Symbolic Z-matrix:
 Charge =  0 Multiplicity = 2

                         Standard orientation:
 ---------------------------------------------------------------------
 Center     Atomic      Atomic             Coordinates (Angstroms)
 Number     Number       Type             X           Y           Z
 ---------------------------------------------------------------------
      1         11           0       -1.832165    2.090362   -0.091958
      2         11           0       -0.210128   -2.308848   -0.241703
      3         11           0       -3.404359   -0.920054   -0.176540
      4         11           0        3.189072   -1.192472   -0.189110
      5         11           0        1.813350    2.185940   -0.107367
      6         11           0        0.164028   -0.093823    2.139285
      7         11           0        0.280203    0.238894   -1.332607
 ---------------------------------------------------------------------

 SCF Done:  E(UB3LYP) =  -1136.12327176     A.U. after   20 cycles

 The electronic state is 2-A.
 Alpha  occ. eigenvalues --  -38.44519 -38.44488 -38.43553 -38.43517 -38.43450
 Alpha  occ. eigenvalues --  -38.43402 -38.43123  -2.20318  -2.20304  -2.19605
 Alpha  occ. eigenvalues --   -2.19464  -2.19431  -2.19284  -2.19067  -1.13988
 Alpha  occ. eigenvalues --   -1.13981  -1.13975  -1.13959  -1.13956  -1.13945
 Alpha  occ. eigenvalues --   -1.13566  -1.13350  -1.13241  -1.13139  -1.13095
 Alpha  occ. eigenvalues --   -1.13069  -1.13054  -1.13012  -1.13011  -1.12959
 Alpha  occ. eigenvalues --   -1.12938  -1.12890  -1.12755  -1.12719  -1.12621
 Alpha  occ. eigenvalues --   -0.19109  -0.13385  -0.12127  -0.10750
 Alpha virt. eigenvalues --   -0.06317  -0.05219  -0.03823  -0.03099  -0.02603
 Alpha virt. eigenvalues --   -0.02476  -0.02211  -0.01250  -0.00159  -0.00074
 Alpha virt. eigenvalues --    0.00035   0.00259   0.00722   0.00854   0.00923

  Beta  occ. eigenvalues --  -38.44519 -38.44484 -38.43508 -38.43441 -38.43401
  Beta  occ. eigenvalues --  -38.43397 -38.43109  -2.20321  -2.20299  -2.19521
  Beta  occ. eigenvalues --   -2.19417  -2.19278  -2.19257  -2.19047  -1.13992
  Beta  occ. eigenvalues --   -1.13971  -1.13959  -1.13958  -1.13955  -1.13940
  Beta  occ. eigenvalues --   -1.13520  -1.13290  -1.13186  -1.13035  -1.13007
  Beta  occ. eigenvalues --   -1.13005  -1.12978  -1.12943  -1.12933  -1.12928
  Beta  occ. eigenvalues --   -1.12908  -1.12888  -1.12736  -1.12663  -1.12614
  Beta  occ. eigenvalues --   -0.18366  -0.13166  -0.11869
  Beta virt. eigenvalues --   -0.06762  -0.06226  -0.05215  -0.03822  -0.02394
  Beta virt. eigenvalues --   -0.02127  -0.01764  -0.01369  -0.01212  -0.00198
  Beta virt. eigenvalues --    0.00010   0.00104   0.00297   0.00767   0.00854

 Mulliken charges and spin densities:
               1          2
     1  Na   0.535764   0.079986
     2  Na   0.632562   0.095725
     3  Na  -0.018010  -0.026295
     4  Na   0.397697   0.009080
     5  Na   0.656557   0.093732
     6  Na  -0.712054   0.671114
     7  Na  -1.492516   0.076658
 Sum of Mulliken charges =  -0.00000   1.00000

 Dipole moment (field-independent basis, Debye):
    X=              0.0719    Y=             -0.1509    Z=              0.4286  Tot=              0.4600
 Quadrupole moment (field-independent basis, Debye-Ang):
   XX=            -48.1818   YY=            -68.3892   ZZ=            -74.6905
   XY=             -0.3608   XZ=              0.2486   YZ=              0.7485

 Normal termination of Gaussian 16 at Tue Dec  5 22:25:23 2023.
