 Gaussian 16, Revision B.01,
 Gaussian 16:  ES64L-G16RevB.01 20-Dec-2017

 -------------------------
 #P B3LYP/6-311+g(d) force
 -------------------------

 -----
 DPGEN
 -----
 Symbolic Z-matrix:
 Charge =  0 Multiplicity = 2

                         Standard orientation:
 ---------------------------------------------------------------------
 Center     Atomic      Atomic             Coordinates (Angstroms)
 Number     Number       Type             X           Y           Z
 ---------------------------------------------------------------------
      1         11           0       -5.969243   -2.124774   -0.248857
      2         11           0       -3.015918   -1.436865   -0.236697
      3         11           0       -4.450939    1.479226    0.846197
      4         11           0       -1.078456    2.368903   -0.508123
      5         11           0        2.011039    1.510853   -0.295233
      6         11           0        4.660235   -0.999239    0.584206
      7         11           0        7.843282   -0.798104   -0.141494
 ---------------------------------------------------------------------

 SCF Done:  E(UB3LYP) =  -1136.11078649     A.U. after   19 cycles

 The electronic state is 2-A.
 Alpha  occ. eigenvalues --  -38.45563 -38.45040 -38.44673 -38.44242 -38.43778
 Alpha  occ. eigenvalues --  -38.43601 -38.43527  -2.21399  -2.20859  -2.20503
 Alpha  occ. eigenvalues --   -2.20021  -2.19553  -2.19412  -2.19325  -1.15077
 Alpha  occ. eigenvalues --   -1.15063  -1.15047  -1.14524  -1.14503  -1.14458
 Alpha  occ. eigenvalues --   -1.14167  -1.14146  -1.14120  -1.13673  -1.13671
 Alpha  occ. eigenvalues --   -1.13659  -1.13230  -1.13225  -1.13195  -1.13090
 Alpha  occ. eigenvalues --   -1.13069  -1.13066  -1.13009  -1.12994  -1.12937
 Alpha  occ. eigenvalues --   -0.16298  -0.13938  -0.12485  -0.10802
 Alpha virt. eigenvalues --   -0.06691  -0.06009  -0.04221  -0.03675  -0.02834
 Alpha virt. eigenvalues --   -0.02616  -0.02276  -0.01992  -0.01494  -0.00891
 Alpha virt. eigenvalues --   -0.00514  -0.00167  -0.00031   0.00340   0.00453

  Beta  occ. eigenvalues --  -38.45553 -38.44958 -38.44632 -38.44200 -38.43790
  Beta  occ. eigenvalues --  -38.43552 -38.43536  -2.21382  -2.20707  -2.20428
  Beta  occ. eigenvalues --   -2.19941  -2.19578  -2.19348  -2.19318  -1.15066
  Beta  occ. eigenvalues --   -1.15060  -1.15005  -1.14421  -1.14400  -1.14349
  Beta  occ. eigenvalues --   -1.14109  -1.14095  -1.14073  -1.13618  -1.13616
  Beta  occ. eigenvalues --   -1.13609  -1.13251  -1.13244  -1.13187  -1.13059
  Beta  occ. eigenvalues --   -1.13033  -1.13010  -1.13000  -1.12994  -1.12902
  Beta  occ. eigenvalues --   -0.15716  -0.13510  -0.11968
  Beta virt. eigenvalues --   -0.07602  -0.06198  -0.05788  -0.03939  -0.03393
  Beta virt. eigenvalues --   -0.02566  -0.02307  -0.02040  -0.01642  -0.01399
  Beta virt. eigenvalues --   -0.00576  -0.00249   0.00014   0.00211   0.00434

 Mulliken charges and spin densities:
               1          2
     1  Na   1.456532   0.076553
     2  Na  -1.315065   0.172433
     3  Na   0.015177   0.296163
     4  Na  -0.446503   0.127699
     5  Na   0.315430   0.179057
     6  Na  -0.269980  -0.048348
     7  Na   0.244409   0.196443
 Sum of Mulliken charges =  -0.00000   1.00000

 Dipole moment (field-independent basis, Debye):
    X=             -2.6822    Y=             -0.6425    Z=              0.0916  Tot=              2.7596
 Quadrupole moment (field-independent basis, Debye-Ang):
   XX=            -45.7726   YY=            -71.8129   ZZ=            -73.3447
   XY=              1.1971   XZ=             -3.9097   YZ=              0.0188

 Normal termination of Gaussian 16 at Sun Dec  3 21:16:24 2023.
