 Gaussian 16, Revision B.01,
 Gaussian 16:  ES64L-G16RevB.01 20-Dec-2017

 -------------------------
 #P B3LYP/6-311+g(d) force
 -------------------------

 -----
 DPGEN
 -----
 Symbolic Z-matrix:
 Charge =  0 Multiplicity = 2

                         Standard orientation:
 ---------------------------------------------------------------------
 Center     Atomic      Atomic             Coordinates (Angstroms)
 Number     Number       Type             X           Y           Z
 ---------------------------------------------------------------------
      1         11           0        1.909161    1.320603   -0.381786
      2         11           0        0.692305   -1.841916   -0.060934
      3         11           0       -3.561750   -2.154415    0.203615
      4         11           0        4.358545   -1.091183    0.017234
      5         11           0       -1.611519    0.108731   -1.520202
      6         11           0       -0.597563    0.611651    1.762943
      7         11           0       -1.189180    3.046529   -0.020871
 ---------------------------------------------------------------------

 SCF Done:  E(UB3LYP) =  -1136.12315080     A.U. after   25 cycles

 The electronic state is 2-A.
 Alpha  occ. eigenvalues --  -38.44713 -38.44629 -38.44324 -38.43900 -38.43428
 Alpha  occ. eigenvalues --  -38.43249 -38.43011  -2.20483  -2.20378  -2.20184
 Alpha  occ. eigenvalues --   -2.19783  -2.19315  -2.19176  -2.18986  -1.14160
 Alpha  occ. eigenvalues --   -1.14148  -1.14106  -1.14058  -1.14049  -1.14001
 Alpha  occ. eigenvalues --   -1.13930  -1.13881  -1.13741  -1.13504  -1.13476
 Alpha  occ. eigenvalues --   -1.13362  -1.13034  -1.12980  -1.12947  -1.12883
 Alpha  occ. eigenvalues --   -1.12836  -1.12752  -1.12664  -1.12610  -1.12571
 Alpha  occ. eigenvalues --   -0.18437  -0.13287  -0.12234  -0.10104
 Alpha virt. eigenvalues --   -0.07038  -0.05476  -0.04204  -0.02885  -0.02638
 Alpha virt. eigenvalues --   -0.02504  -0.02087  -0.01805  -0.00481  -0.00288
 Alpha virt. eigenvalues --   -0.00266   0.00114   0.00600   0.00688   0.00728

  Beta  occ. eigenvalues --  -38.44712 -38.44635 -38.44305 -38.43889 -38.43416
  Beta  occ. eigenvalues --  -38.43194 -38.42923  -2.20482  -2.20391  -2.20153
  Beta  occ. eigenvalues --   -2.19765  -2.19298  -2.19076  -2.18825  -1.14158
  Beta  occ. eigenvalues --   -1.14143  -1.14106  -1.14068  -1.14048  -1.14011
  Beta  occ. eigenvalues --   -1.13915  -1.13822  -1.13725  -1.13494  -1.13435
  Beta  occ. eigenvalues --   -1.13355  -1.13017  -1.12943  -1.12931  -1.12813
  Beta  occ. eigenvalues --   -1.12767  -1.12675  -1.12553  -1.12500  -1.12457
  Beta  occ. eigenvalues --   -0.17721  -0.13114  -0.12041
  Beta virt. eigenvalues --   -0.06890  -0.06190  -0.05383  -0.04128  -0.02531
  Beta virt. eigenvalues --   -0.02377  -0.02013  -0.01788  -0.01034  -0.00458
  Beta virt. eigenvalues --   -0.00201   0.00017   0.00209   0.00668   0.00733

 Mulliken charges and spin densities:
               1          2
     1  Na  -0.453579   0.111648
     2  Na  -0.588539   0.023345
     3  Na  -0.030479  -0.018769
     4  Na   0.533306  -0.026527
     5  Na  -0.010305   0.322344
     6  Na   0.064732   0.243170
     7  Na   0.484863   0.344790
 Sum of Mulliken charges =  -0.00000   1.00000

 Dipole moment (field-independent basis, Debye):
    X=              0.3787    Y=             -0.3571    Z=              0.5678  Tot=              0.7703
 Quadrupole moment (field-independent basis, Debye-Ang):
   XX=            -49.9105   YY=            -63.5281   ZZ=            -76.5144
   XY=             -0.8780   XZ=             -2.1425   YZ=             -0.9883

 Normal termination of Gaussian 16 at Tue Dec  5 18:23:46 2023.
