 Gaussian 16, Revision B.01,
 Gaussian 16:  ES64L-G16RevB.01 20-Dec-2017

 -------------------------
 #P B3LYP/6-311+g(d) force
 -------------------------

 -----
 DPGEN
 -----
 Symbolic Z-matrix:
 Charge =  0 Multiplicity = 2

                         Standard orientation:
 ---------------------------------------------------------------------
 Center     Atomic      Atomic             Coordinates (Angstroms)
 Number     Number       Type             X           Y           Z
 ---------------------------------------------------------------------
      1         11           0        1.775388   -1.376683    2.107059
      2         11           0       -0.906578   -1.034687    0.098728
      3         11           0        2.066869   -2.285268   -1.421043
      4         11           0        2.373319    1.364264   -1.527603
      5         11           0       -2.438186    2.008975   -0.656817
      6         11           0       -4.132730   -1.152971    0.084614
      7         11           0        1.261918    2.476371    1.315062
 ---------------------------------------------------------------------

 SCF Done:  E(UB3LYP) =  -1136.12333926     A.U. after   21 cycles

 The electronic state is 2-A.
 Alpha  occ. eigenvalues --  -38.45140 -38.44799 -38.44086 -38.43889 -38.43556
 Alpha  occ. eigenvalues --  -38.43402 -38.43250  -2.20898  -2.20591  -2.19899
 Alpha  occ. eigenvalues --   -2.19718  -2.19373  -2.19294  -2.19055  -1.14594
 Alpha  occ. eigenvalues --   -1.14580  -1.14494  -1.14275  -1.14252  -1.14209
 Alpha  occ. eigenvalues --   -1.13573  -1.13554  -1.13523  -1.13401  -1.13351
 Alpha  occ. eigenvalues --   -1.13326  -1.13052  -1.13024  -1.13006  -1.12991
 Alpha  occ. eigenvalues --   -1.12979  -1.12896  -1.12733  -1.12709  -1.12688
 Alpha  occ. eigenvalues --   -0.17162  -0.13609  -0.11621  -0.10905
 Alpha virt. eigenvalues --   -0.06460  -0.05410  -0.04346  -0.03347  -0.03110
 Alpha virt. eigenvalues --   -0.02543  -0.02106  -0.01285  -0.00568  -0.00515
 Alpha virt. eigenvalues --   -0.00075   0.00209   0.00251   0.00553   0.00650

  Beta  occ. eigenvalues --  -38.45139 -38.44803 -38.44038 -38.43818 -38.43517
  Beta  occ. eigenvalues --  -38.43394 -38.43231  -2.20895  -2.20598  -2.19810
  Beta  occ. eigenvalues --   -2.19586  -2.19302  -2.19283  -2.19021  -1.14591
  Beta  occ. eigenvalues --   -1.14577  -1.14494  -1.14280  -1.14257  -1.14214
  Beta  occ. eigenvalues --   -1.13510  -1.13498  -1.13449  -1.13306  -1.13264
  Beta  occ. eigenvalues --   -1.13232  -1.13007  -1.12982  -1.12972  -1.12962
  Beta  occ. eigenvalues --   -1.12935  -1.12892  -1.12712  -1.12684  -1.12653
  Beta  occ. eigenvalues --   -0.16596  -0.13309  -0.11540
  Beta virt. eigenvalues --   -0.06987  -0.06409  -0.05213  -0.03881  -0.02979
  Beta virt. eigenvalues --   -0.02747  -0.02159  -0.01569  -0.01219  -0.00471
  Beta virt. eigenvalues --   -0.00168   0.00011   0.00289   0.00344   0.00644

 Mulliken charges and spin densities:
               1          2
     1  Na   0.364561   0.104746
     2  Na  -1.288218   0.427110
     3  Na   0.479296   0.144477
     4  Na  -0.104270   0.191147
     5  Na   0.082638  -0.092932
     6  Na   0.192134  -0.036460
     7  Na   0.273859   0.261912
 Sum of Mulliken charges =  -0.00000   1.00000

 Dipole moment (field-independent basis, Debye):
    X=             -1.5509    Y=             -0.0824    Z=             -0.0510  Tot=              1.5540
 Quadrupole moment (field-independent basis, Debye-Ang):
   XX=            -54.3099   YY=            -68.7583   ZZ=            -69.5557
   XY=             -0.8318   XZ=              0.9185   YZ=             -0.4765

 Normal termination of Gaussian 16 at Tue Dec  5 17:35:29 2023.
