 Gaussian 16, Revision B.01,
 Gaussian 16:  ES64L-G16RevB.01 20-Dec-2017

 -------------------------
 #P B3LYP/6-311+g(d) force
 -------------------------

 -----
 DPGEN
 -----
 Symbolic Z-matrix:
 Charge =  0 Multiplicity = 2

                         Standard orientation:
 ---------------------------------------------------------------------
 Center     Atomic      Atomic             Coordinates (Angstroms)
 Number     Number       Type             X           Y           Z
 ---------------------------------------------------------------------
      1         11           0        2.888593   -1.287996   -0.659968
      2         11           0       -3.549917   -0.910207   -0.241128
      3         11           0        1.487044    0.143480    2.298997
      4         11           0        2.321898    2.462275   -0.739312
      5         11           0       -0.041925   -2.729304    0.152288
      6         11           0       -0.530828    0.206746   -1.337170
      7         11           0       -2.574865    2.115006    0.526292
 ---------------------------------------------------------------------

 SCF Done:  E(UB3LYP) =  -1136.12604340     A.U. after   20 cycles

 The electronic state is 2-A.
 Alpha  occ. eigenvalues --  -38.44761 -38.44635 -38.44508 -38.43850 -38.43645
 Alpha  occ. eigenvalues --  -38.43595 -38.42904  -2.20578  -2.20456  -2.20315
 Alpha  occ. eigenvalues --   -2.19671  -2.19514  -2.19423  -2.18743  -1.14255
 Alpha  occ. eigenvalues --   -1.14246  -1.14216  -1.14133  -1.14120  -1.14087
 Alpha  occ. eigenvalues --   -1.13986  -1.13973  -1.13943  -1.13326  -1.13300
 Alpha  occ. eigenvalues --   -1.13285  -1.13222  -1.13173  -1.13138  -1.13087
 Alpha  occ. eigenvalues --   -1.13078  -1.13065  -1.12438  -1.12406  -1.12371
 Alpha  occ. eigenvalues --   -0.17709  -0.13825  -0.11593  -0.10398
 Alpha virt. eigenvalues --   -0.06185  -0.06031  -0.04490  -0.03424  -0.02631
 Alpha virt. eigenvalues --   -0.02346  -0.02050  -0.01390  -0.00855  -0.00397
 Alpha virt. eigenvalues --   -0.00140   0.00275   0.00515   0.00620   0.00683

  Beta  occ. eigenvalues --  -38.44762 -38.44627 -38.44501 -38.43748 -38.43629
  Beta  occ. eigenvalues --  -38.43560 -38.42900  -2.20581  -2.20445  -2.20302
  Beta  occ. eigenvalues --   -2.19482  -2.19450  -2.19396  -2.18739  -1.14250
  Beta  occ. eigenvalues --   -1.14249  -1.14219  -1.14117  -1.14102  -1.14077
  Beta  occ. eigenvalues --   -1.13976  -1.13959  -1.13935  -1.13196  -1.13177
  Beta  occ. eigenvalues --   -1.13170  -1.13151  -1.13125  -1.13090  -1.13062
  Beta  occ. eigenvalues --   -1.13050  -1.13047  -1.12436  -1.12392  -1.12362
  Beta  occ. eigenvalues --   -0.17131  -0.13585  -0.11393
  Beta virt. eigenvalues --   -0.06643  -0.05997  -0.05929  -0.04289  -0.02980
  Beta virt. eigenvalues --   -0.01988  -0.01963  -0.01431  -0.01291  -0.00823
  Beta virt. eigenvalues --   -0.00363   0.00115   0.00337   0.00687   0.00712

 Mulliken charges and spin densities:
               1          2
     1  Na   0.457726   0.089519
     2  Na   0.339744   0.020787
     3  Na  -0.487609   0.697156
     4  Na  -0.108728   0.014844
     5  Na  -0.461397   0.000617
     6  Na   0.648233   0.197016
     7  Na  -0.387970  -0.019939
 Sum of Mulliken charges =  -0.00000   1.00000

 Dipole moment (field-independent basis, Debye):
    X=             -0.7982    Y=             -0.0241    Z=             -0.0820  Tot=              0.8028
 Quadrupole moment (field-independent basis, Debye-Ang):
   XX=            -51.5431   YY=            -67.1896   ZZ=            -75.2508
   XY=             -0.0822   XZ=             -3.0854   YZ=              1.2516

 Normal termination of Gaussian 16 at Tue Dec  5 12:32:34 2023.
