 Gaussian 16, Revision B.01,
 Gaussian 16:  ES64L-G16RevB.01 20-Dec-2017

 -------------------------
 #P B3LYP/6-311+g(d) force
 -------------------------

 -----
 DPGEN
 -----
 Symbolic Z-matrix:
 Charge =  0 Multiplicity = 2

                         Standard orientation:
 ---------------------------------------------------------------------
 Center     Atomic      Atomic             Coordinates (Angstroms)
 Number     Number       Type             X           Y           Z
 ---------------------------------------------------------------------
      1         11           0       -1.928501   -2.323334   -0.339977
      2         11           0       -0.025202    2.803225   -0.218972
      3         11           0        0.125681   -0.118379    2.044631
      4         11           0        2.703869    0.943492   -0.156562
      5         11           0       -2.750355    1.003085    0.226933
      6         11           0       -0.005025   -0.080053   -1.620532
      7         11           0        1.879533   -2.228035    0.064478
 ---------------------------------------------------------------------

 SCF Done:  E(UB3LYP) =  -1136.13935747     A.U. after   18 cycles

 The electronic state is 2-A.
 Alpha  occ. eigenvalues --  -38.43622 -38.43612 -38.43578 -38.43527 -38.43479
 Alpha  occ. eigenvalues --  -38.43104 -38.43057  -2.19539  -2.19483  -2.19424
 Alpha  occ. eigenvalues --   -2.19408  -2.19391  -2.19101  -2.19011  -1.13223
 Alpha  occ. eigenvalues --   -1.13192  -1.13169  -1.13160  -1.13144  -1.13138
 Alpha  occ. eigenvalues --   -1.13126  -1.13121  -1.13078  -1.13073  -1.13068
 Alpha  occ. eigenvalues --   -1.13057  -1.13045  -1.13040  -1.12988  -1.12802
 Alpha  occ. eigenvalues --   -1.12753  -1.12718  -1.12658  -1.12651  -1.12644
 Alpha  occ. eigenvalues --   -0.19163  -0.13077  -0.12650  -0.11001
 Alpha virt. eigenvalues --   -0.05247  -0.05083  -0.04654  -0.03229  -0.02963
 Alpha virt. eigenvalues --   -0.02664  -0.01257  -0.01101  -0.00186  -0.00058
 Alpha virt. eigenvalues --    0.00011   0.00371   0.00878   0.00929   0.00935

  Beta  occ. eigenvalues --  -38.43607 -38.43571 -38.43527 -38.43521 -38.43472
  Beta  occ. eigenvalues --  -38.43098 -38.42990  -2.19477  -2.19415  -2.19401
  Beta  occ. eigenvalues --   -2.19382  -2.19363  -2.19004  -2.18978  -1.13169
  Beta  occ. eigenvalues --   -1.13150  -1.13144  -1.13122  -1.13105  -1.13091
  Beta  occ. eigenvalues --   -1.13077  -1.13061  -1.13056  -1.13050  -1.13038
  Beta  occ. eigenvalues --   -1.13036  -1.13010  -1.13004  -1.12982  -1.12748
  Beta  occ. eigenvalues --   -1.12676  -1.12649  -1.12633  -1.12628  -1.12595
  Beta  occ. eigenvalues --   -0.18417  -0.12823  -0.12376
  Beta virt. eigenvalues --   -0.07042  -0.05239  -0.05051  -0.04640  -0.02398
  Beta virt. eigenvalues --   -0.02172  -0.01576  -0.01176  -0.01026  -0.00227
  Beta virt. eigenvalues --   -0.00109   0.00130   0.00389   0.00909   0.00931

 Mulliken charges and spin densities:
               1          2
     1  Na   0.127031  -0.069109
     2  Na   0.198386  -0.013987
     3  Na  -0.593577   0.703451
     4  Na   0.290572  -0.009820
     5  Na   0.152918   0.018152
     6  Na  -0.442102   0.416626
     7  Na   0.266770  -0.045314
 Sum of Mulliken charges =  -0.00000   1.00000

 Dipole moment (field-independent basis, Debye):
    X=             -0.0565    Y=             -0.2047    Z=              0.2286  Tot=              0.3120
 Quadrupole moment (field-independent basis, Debye-Ang):
   XX=            -58.9533   YY=            -61.8173   ZZ=            -73.1962
   XY=             -0.0505   XZ=             -0.4108   YZ=              0.1569

 Normal termination of Gaussian 16 at Thu Dec  7 22:29:49 2023.
