 Gaussian 16, Revision B.01,
 Gaussian 16:  ES64L-G16RevB.01 20-Dec-2017

 -------------------------
 #P B3LYP/6-311+g(d) force
 -------------------------

 -----
 DPGEN
 -----
 Symbolic Z-matrix:
 Charge =  0 Multiplicity = 2

                         Standard orientation:
 ---------------------------------------------------------------------
 Center     Atomic      Atomic             Coordinates (Angstroms)
 Number     Number       Type             X           Y           Z
 ---------------------------------------------------------------------
      1         11           0       -3.354827   -1.179222    0.061443
      2         11           0        3.533228    0.138258    0.122766
      3         11           0        1.163318    2.150218   -0.234751
      4         11           0       -0.075613   -0.374122    2.144465
      5         11           0       -0.281197   -0.345648   -1.685201
      6         11           0       -2.049387    2.137812   -0.054213
      7         11           0        1.064478   -2.527296   -0.354509
 ---------------------------------------------------------------------

 SCF Done:  E(UB3LYP) =  -1136.12540185     A.U. after   21 cycles

 The electronic state is 2-A.
 Alpha  occ. eigenvalues --  -38.45102 -38.45100 -38.44063 -38.43459 -38.43396
 Alpha  occ. eigenvalues --  -38.43312 -38.42629  -2.20905  -2.20866  -2.19914
 Alpha  occ. eigenvalues --   -2.19451  -2.19258  -2.19193  -2.18559  -1.14598
 Alpha  occ. eigenvalues --   -1.14562  -1.14541  -1.14528  -1.14523  -1.14505
 Alpha  occ. eigenvalues --   -1.13583  -1.13549  -1.13522  -1.13255  -1.13122
 Alpha  occ. eigenvalues --   -1.13051  -1.12944  -1.12921  -1.12894  -1.12838
 Alpha  occ. eigenvalues --   -1.12835  -1.12781  -1.12248  -1.12208  -1.12204
 Alpha  occ. eigenvalues --   -0.18602  -0.13328  -0.11904  -0.10876
 Alpha virt. eigenvalues --   -0.06834  -0.05029  -0.03794  -0.03367  -0.02799
 Alpha virt. eigenvalues --   -0.02693  -0.02392  -0.01098  -0.00398  -0.00128
 Alpha virt. eigenvalues --    0.00053   0.00243   0.00588   0.00735   0.00793

  Beta  occ. eigenvalues --  -38.45103 -38.45101 -38.43968 -38.43393 -38.43387
  Beta  occ. eigenvalues --  -38.43298 -38.42620  -2.20908  -2.20870  -2.19738
  Beta  occ. eigenvalues --   -2.19320  -2.19256  -2.19171  -2.18546  -1.14603
  Beta  occ. eigenvalues --   -1.14550  -1.14534  -1.14531  -1.14525  -1.14509
  Beta  occ. eigenvalues --   -1.13466  -1.13426  -1.13396  -1.13178  -1.13032
  Beta  occ. eigenvalues --   -1.12962  -1.12938  -1.12901  -1.12889  -1.12813
  Beta  occ. eigenvalues --   -1.12781  -1.12771  -1.12238  -1.12204  -1.12168
  Beta  occ. eigenvalues --   -0.17861  -0.13168  -0.11630
  Beta virt. eigenvalues --   -0.06971  -0.06711  -0.05038  -0.03769  -0.02693
  Beta virt. eigenvalues --   -0.02299  -0.01914  -0.01615  -0.01057  -0.00436
  Beta virt. eigenvalues --    0.00024   0.00044   0.00256   0.00739   0.00781

 Mulliken charges and spin densities:
               1          2
     1  Na   0.232545  -0.043744
     2  Na   0.088209   0.013806
     3  Na   0.066772   0.078202
     4  Na  -0.615915   0.677622
     5  Na  -0.193296   0.272176
     6  Na   0.092375   0.026092
     7  Na   0.329311  -0.024154
 Sum of Mulliken charges =  -0.00000   1.00000

 Dipole moment (field-independent basis, Debye):
    X=             -0.2150    Y=             -0.4341    Z=              0.3560  Tot=              0.6012
 Quadrupole moment (field-independent basis, Debye-Ang):
   XX=            -47.6176   YY=            -70.7777   ZZ=            -74.0327
   XY=              0.3080   XZ=              0.0822   YZ=             -0.1339

 Normal termination of Gaussian 16 at Fri Dec  8 05:00:10 2023.
