 Gaussian 16, Revision B.01,
 Gaussian 16:  ES64L-G16RevB.01 20-Dec-2017

 -------------------------
 #P B3LYP/6-311+g(d) force
 -------------------------

 -----
 DPGEN
 -----
 Symbolic Z-matrix:
 Charge =  0 Multiplicity = 2

                         Standard orientation:
 ---------------------------------------------------------------------
 Center     Atomic      Atomic             Coordinates (Angstroms)
 Number     Number       Type             X           Y           Z
 ---------------------------------------------------------------------
      1         11           0       -2.735817    1.555188   -0.243547
      2         11           0       -2.398963   -1.726367    0.277281
      3         11           0       -0.148798   -0.200380   -1.803000
      4         11           0        3.232387    0.002997   -0.198970
      5         11           0        0.953036    2.722270    0.065245
      6         11           0        0.968626   -2.640735    0.077557
      7         11           0        0.129529    0.287029    1.825434
 ---------------------------------------------------------------------

 SCF Done:  E(UB3LYP) =  -1136.13954003     A.U. after   19 cycles

 The electronic state is 2-A.
 Alpha  occ. eigenvalues --  -38.44248 -38.43897 -38.43613 -38.43351 -38.43321
 Alpha  occ. eigenvalues --  -38.43265 -38.43083  -2.20067  -2.19729  -2.19485
 Alpha  occ. eigenvalues --   -2.19269  -2.19218  -2.19208  -2.18962  -1.13739
 Alpha  occ. eigenvalues --   -1.13722  -1.13711  -1.13407  -1.13401  -1.13367
 Alpha  occ. eigenvalues --   -1.13161  -1.13151  -1.13120  -1.13000  -1.12957
 Alpha  occ. eigenvalues --   -1.12915  -1.12886  -1.12877  -1.12858  -1.12835
 Alpha  occ. eigenvalues --   -1.12813  -1.12800  -1.12639  -1.12626  -1.12588
 Alpha  occ. eigenvalues --   -0.18805  -0.13154  -0.12407  -0.10685
 Alpha virt. eigenvalues --   -0.05797  -0.05125  -0.04529  -0.03222  -0.02858
 Alpha virt. eigenvalues --   -0.02428  -0.01670  -0.01062  -0.00361  -0.00229
 Alpha virt. eigenvalues --   -0.00004   0.00359   0.00800   0.00885   0.00912

  Beta  occ. eigenvalues --  -38.44245 -38.43892 -38.43606 -38.43345 -38.43246
  Beta  occ. eigenvalues --  -38.43184 -38.43076  -2.20063  -2.19722  -2.19474
  Beta  occ. eigenvalues --   -2.19204  -2.19131  -2.19067  -2.18955  -1.13726
  Beta  occ. eigenvalues --   -1.13719  -1.13706  -1.13404  -1.13377  -1.13361
  Beta  occ. eigenvalues --   -1.13155  -1.13124  -1.13108  -1.12957  -1.12870
  Beta  occ. eigenvalues --   -1.12852  -1.12826  -1.12806  -1.12781  -1.12778
  Beta  occ. eigenvalues --   -1.12725  -1.12711  -1.12630  -1.12598  -1.12578
  Beta  occ. eigenvalues --   -0.18070  -0.12922  -0.12145
  Beta virt. eigenvalues --   -0.06791  -0.05754  -0.05125  -0.04497  -0.02442
  Beta virt. eigenvalues --   -0.02069  -0.01571  -0.01390  -0.00988  -0.00409
  Beta virt. eigenvalues --   -0.00283   0.00127   0.00380   0.00858   0.00876

 Mulliken charges and spin densities:
               1          2
     1  Na   0.109932  -0.073969
     2  Na   0.171886  -0.023947
     3  Na  -0.331825   0.708983
     4  Na   0.064492  -0.072777
     5  Na   0.129498  -0.136212
     6  Na   0.133634  -0.074438
     7  Na  -0.277617   0.672361
 Sum of Mulliken charges =  -0.00000   1.00000

 Dipole moment (field-independent basis, Debye):
    X=              0.0861    Y=              0.1233    Z=             -0.0475  Tot=              0.1577
 Quadrupole moment (field-independent basis, Debye-Ang):
   XX=            -54.5224   YY=            -63.8773   ZZ=            -74.5481
   XY=             -0.3126   XZ=             -0.7497   YZ=             -1.3484

 Normal termination of Gaussian 16 at Thu Dec  7 03:32:52 2023.
