 Gaussian 16, Revision B.01,
 Gaussian 16:  ES64L-G16RevB.01 20-Dec-2017

 -------------------------
 #P B3LYP/6-311+g(d) force
 -------------------------

 -----
 DPGEN
 -----
 Symbolic Z-matrix:
 Charge =  0 Multiplicity = 2

                         Standard orientation:
 ---------------------------------------------------------------------
 Center     Atomic      Atomic             Coordinates (Angstroms)
 Number     Number       Type             X           Y           Z
 ---------------------------------------------------------------------
      1         11           0        2.489927   -1.782949    0.001199
      2         11           0       -3.277125   -0.052806   -0.530526
      3         11           0       -0.767035   -2.599787   -0.132084
      4         11           0        0.346153    0.183599   -1.661462
      5         11           0        0.222579   -0.304739    2.070762
      6         11           0        2.446513    2.286327   -0.348136
      7         11           0       -1.461013    2.270354    0.600245
 ---------------------------------------------------------------------

 SCF Done:  E(UB3LYP) =  -1136.13559121     A.U. after   19 cycles

 The electronic state is 2-A.
 Alpha  occ. eigenvalues --  -38.44018 -38.43859 -38.43772 -38.43713 -38.43548
 Alpha  occ. eigenvalues --  -38.43337 -38.43224  -2.19876  -2.19692  -2.19682
 Alpha  occ. eigenvalues --   -2.19510  -2.19413  -2.19297  -2.19114  -1.13561
 Alpha  occ. eigenvalues --   -1.13557  -1.13497  -1.13390  -1.13351  -1.13349
 Alpha  occ. eigenvalues --   -1.13332  -1.13310  -1.13304  -1.13211  -1.13159
 Alpha  occ. eigenvalues --   -1.13150  -1.13090  -1.13075  -1.13027  -1.12983
 Alpha  occ. eigenvalues --   -1.12935  -1.12916  -1.12794  -1.12786  -1.12727
 Alpha  occ. eigenvalues --   -0.18643  -0.13028  -0.12325  -0.11026
 Alpha virt. eigenvalues --   -0.05551  -0.05358  -0.04397  -0.03296  -0.02951
 Alpha virt. eigenvalues --   -0.02726  -0.01541  -0.01231  -0.00302  -0.00108
 Alpha virt. eigenvalues --   -0.00001   0.00332   0.00785   0.00848   0.00912

  Beta  occ. eigenvalues --  -38.44012 -38.43853 -38.43710 -38.43675 -38.43532
  Beta  occ. eigenvalues --  -38.43278 -38.43216  -2.19870  -2.19681  -2.19508
  Beta  occ. eigenvalues --   -2.19503  -2.19388  -2.19190  -2.19103  -1.13557
  Beta  occ. eigenvalues --   -1.13529  -1.13493  -1.13384  -1.13331  -1.13324
  Beta  occ. eigenvalues --   -1.13234  -1.13197  -1.13187  -1.13177  -1.13157
  Beta  occ. eigenvalues --   -1.13145  -1.13068  -1.13033  -1.13017  -1.12914
  Beta  occ. eigenvalues --   -1.12863  -1.12839  -1.12782  -1.12753  -1.12714
  Beta  occ. eigenvalues --   -0.17907  -0.12805  -0.12068
  Beta virt. eigenvalues --   -0.07116  -0.05512  -0.05253  -0.04328  -0.02567
  Beta virt. eigenvalues --   -0.02236  -0.01699  -0.01441  -0.01162  -0.00270
  Beta virt. eigenvalues --   -0.00111   0.00104   0.00366   0.00840   0.00861

 Mulliken charges and spin densities:
               1          2
     1  Na   0.235767  -0.090243
     2  Na  -0.050819  -0.019499
     3  Na   0.188935   0.067429
     4  Na  -0.336496   0.525275
     5  Na  -0.253373   0.516736
     6  Na   0.030513  -0.095805
     7  Na   0.185473   0.096107
 Sum of Mulliken charges =  -0.00000   1.00000

 Dipole moment (field-independent basis, Debye):
    X=              0.2748    Y=             -0.1240    Z=              0.0947  Tot=              0.3159
 Quadrupole moment (field-independent basis, Debye-Ang):
   XX=            -56.5827   YY=            -64.4625   ZZ=            -72.9579
   XY=             -0.1481   XZ=              1.1350   YZ=              1.2166

 Normal termination of Gaussian 16 at Wed Dec  6 00:44:24 2023.
