 Gaussian 16, Revision B.01,
 Gaussian 16:  ES64L-G16RevB.01 20-Dec-2017

 -------------------------
 #P B3LYP/6-311+g(d) force
 -------------------------

 -----
 DPGEN
 -----
 Symbolic Z-matrix:
 Charge =  0 Multiplicity = 2

                         Standard orientation:
 ---------------------------------------------------------------------
 Center     Atomic      Atomic             Coordinates (Angstroms)
 Number     Number       Type             X           Y           Z
 ---------------------------------------------------------------------
      1         11           0       -0.038824   -0.222224   -1.522459
      2         11           0        0.441983   -2.640504    0.309629
      3         11           0        3.192420   -0.689139   -0.250644
      4         11           0       -2.633635   -1.510290   -0.242236
      5         11           0       -2.328578    1.979412   -0.287517
      6         11           0        1.554556    2.622375   -0.188636
      7         11           0       -0.187921    0.460370    2.181863
 ---------------------------------------------------------------------

 SCF Done:  E(UB3LYP) =  -1136.13696975     A.U. after   19 cycles

 The electronic state is 2-A.
 Alpha  occ. eigenvalues --  -38.44002 -38.43811 -38.43757 -38.43689 -38.43653
 Alpha  occ. eigenvalues --  -38.43129 -38.43101  -2.19816  -2.19643  -2.19563
 Alpha  occ. eigenvalues --   -2.19554  -2.19531  -2.19149  -2.19012  -1.13490
 Alpha  occ. eigenvalues --   -1.13478  -1.13457  -1.13329  -1.13316  -1.13278
 Alpha  occ. eigenvalues --   -1.13246  -1.13242  -1.13237  -1.13209  -1.13190
 Alpha  occ. eigenvalues --   -1.13185  -1.13176  -1.13166  -1.13159  -1.12898
 Alpha  occ. eigenvalues --   -1.12801  -1.12764  -1.12667  -1.12654  -1.12630
 Alpha  occ. eigenvalues --   -0.18659  -0.12958  -0.12473  -0.10808
 Alpha virt. eigenvalues --   -0.05642  -0.05261  -0.04531  -0.03071  -0.03038
 Alpha virt. eigenvalues --   -0.02586  -0.01537  -0.01161  -0.00434  -0.00211
 Alpha virt. eigenvalues --   -0.00018   0.00342   0.00773   0.00855   0.00916

  Beta  occ. eigenvalues --  -38.44000 -38.43804 -38.43754 -38.43646 -38.43585
  Beta  occ. eigenvalues --  -38.43092 -38.43076  -2.19814  -2.19634  -2.19559
  Beta  occ. eigenvalues --   -2.19523  -2.19363  -2.19055  -2.18997  -1.13482
  Beta  occ. eigenvalues --   -1.13469  -1.13458  -1.13320  -1.13293  -1.13269
  Beta  occ. eigenvalues --   -1.13236  -1.13232  -1.13221  -1.13189  -1.13159
  Beta  occ. eigenvalues --   -1.13156  -1.13084  -1.13047  -1.13032  -1.12846
  Beta  occ. eigenvalues --   -1.12738  -1.12694  -1.12642  -1.12626  -1.12609
  Beta  occ. eigenvalues --   -0.17939  -0.12722  -0.12258
  Beta virt. eigenvalues --   -0.06847  -0.05638  -0.05221  -0.04474  -0.02326
  Beta virt. eigenvalues --   -0.02238  -0.01529  -0.01448  -0.01108  -0.00481
  Beta virt. eigenvalues --   -0.00224   0.00131   0.00377   0.00823   0.00870

 Mulliken charges and spin densities:
               1          2
     1  Na  -0.407504   0.241049
     2  Na   0.278162   0.140038
     3  Na   0.091125  -0.025185
     4  Na   0.367312   0.050578
     5  Na   0.192710  -0.043276
     6  Na   0.075990  -0.069696
     7  Na  -0.597795   0.706492
 Sum of Mulliken charges =  -0.00000   1.00000

 Dipole moment (field-independent basis, Debye):
    X=              0.0521    Y=              0.2720    Z=              0.1409  Tot=              0.3107
 Quadrupole moment (field-independent basis, Debye-Ang):
   XX=            -56.0218   YY=            -63.2212   ZZ=            -74.0582
   XY=              0.0229   XZ=              0.2256   YZ=             -1.3123

 Normal termination of Gaussian 16 at Fri Dec  8 04:26:34 2023.
