 Gaussian 16, Revision B.01,
 Gaussian 16:  ES64L-G16RevB.01 20-Dec-2017

 -------------------------
 #P B3LYP/6-311+g(d) force
 -------------------------

 -----
 DPGEN
 -----
 Symbolic Z-matrix:
 Charge =  0 Multiplicity = 2

                         Standard orientation:
 ---------------------------------------------------------------------
 Center     Atomic      Atomic             Coordinates (Angstroms)
 Number     Number       Type             X           Y           Z
 ---------------------------------------------------------------------
      1         11           0        2.439183   -1.905137   -0.257445
      2         11           0       -1.518704    0.376270    2.272474
      3         11           0       -3.990656   -1.035023   -0.175276
      4         11           0       -2.639725    2.216822   -0.723185
      5         11           0        1.667617    1.346012   -1.103165
      6         11           0       -0.663623   -1.749894   -0.628253
      7         11           0        4.705908    0.750949    0.614850
 ---------------------------------------------------------------------

 SCF Done:  E(UB3LYP) =  -1136.10783807     A.U. after   35 cycles

 The electronic state is 2-A.
 Alpha  occ. eigenvalues --  -38.47827 -38.44501 -38.44232 -38.44178 -38.43759
 Alpha  occ. eigenvalues --  -38.43363 -38.42116  -2.23552  -2.20340  -2.20017
 Alpha  occ. eigenvalues --   -2.19973  -2.19618  -2.19184  -2.18004  -1.17230
 Alpha  occ. eigenvalues --   -1.17200  -1.17189  -1.14015  -1.13970  -1.13953
 Alpha  occ. eigenvalues --   -1.13700  -1.13667  -1.13664  -1.13653  -1.13648
 Alpha  occ. eigenvalues --   -1.13601  -1.13310  -1.13297  -1.13237  -1.12834
 Alpha  occ. eigenvalues --   -1.12830  -1.12796  -1.11697  -1.11660  -1.11657
 Alpha  occ. eigenvalues --   -0.17356  -0.14478  -0.10897  -0.10354
 Alpha virt. eigenvalues --   -0.07896  -0.05825  -0.04489  -0.03197  -0.03077
 Alpha virt. eigenvalues --   -0.02251  -0.02031  -0.01855  -0.01250  -0.00789
 Alpha virt. eigenvalues --   -0.00566   0.00033   0.00175   0.00417   0.00532

  Beta  occ. eigenvalues --  -38.47837 -38.44433 -38.44208 -38.44166 -38.43753
  Beta  occ. eigenvalues --  -38.43287 -38.42107  -2.23573  -2.20212  -2.19976
  Beta  occ. eigenvalues --   -2.19955  -2.19610  -2.19042  -2.17993  -1.17236
  Beta  occ. eigenvalues --   -1.17208  -1.17205  -1.13926  -1.13884  -1.13869
  Beta  occ. eigenvalues --   -1.13674  -1.13659  -1.13633  -1.13631  -1.13609
  Beta  occ. eigenvalues --   -1.13564  -1.13297  -1.13285  -1.13224  -1.12737
  Beta  occ. eigenvalues --   -1.12731  -1.12707  -1.11688  -1.11657  -1.11622
  Beta  occ. eigenvalues --   -0.16848  -0.13939  -0.10530
  Beta virt. eigenvalues --   -0.07745  -0.06926  -0.05683  -0.03953  -0.02937
  Beta virt. eigenvalues --   -0.02818  -0.02087  -0.01852  -0.01401  -0.00685
  Beta virt. eigenvalues --   -0.00602  -0.00263   0.00098   0.00291   0.00492

 Mulliken charges and spin densities:
               1          2
     1  Na  -0.263960  -0.020782
     2  Na   0.095095  -0.054469
     3  Na   0.980764   0.554961
     4  Na  -0.150952   0.128309
     5  Na  -0.237561   0.037909
     6  Na  -0.567611  -0.076247
     7  Na   0.144226   0.430319
 Sum of Mulliken charges =  -0.00000   1.00000

 Dipole moment (field-independent basis, Debye):
    X=             -1.3734    Y=              0.2371    Z=              1.5383  Tot=              2.0758
 Quadrupole moment (field-independent basis, Debye-Ang):
   XX=            -68.6612   YY=            -79.8705   ZZ=            -57.7181
   XY=             -3.4695   XZ=              1.6272   YZ=             -1.3112

 Normal termination of Gaussian 16 at Fri Dec  8 16:58:55 2023.
