 Gaussian 16, Revision B.01,
 Gaussian 16:  ES64L-G16RevB.01 20-Dec-2017

 -------------------------
 #P B3LYP/6-311+g(d) force
 -------------------------

 -----
 DPGEN
 -----
 Symbolic Z-matrix:
 Charge =  0 Multiplicity = 2

                         Standard orientation:
 ---------------------------------------------------------------------
 Center     Atomic      Atomic             Coordinates (Angstroms)
 Number     Number       Type             X           Y           Z
 ---------------------------------------------------------------------
      1         11           0       -2.567230    2.068188    1.093814
      2         11           0        1.193530    3.788630    0.359794
      3         11           0        3.475312    1.600426   -0.747233
      4         11           0       -4.240530    0.482394   -1.062920
      5         11           0       -2.265695   -2.802600   -0.326034
      6         11           0        3.558742   -1.744744   -0.312546
      7         11           0        0.845871   -3.392294    0.995125
 ---------------------------------------------------------------------

 SCF Done:  E(UB3LYP) =  -1136.10829173     A.U. after   23 cycles

 The electronic state is 2-A.
 Alpha  occ. eigenvalues --  -38.45650 -38.45037 -38.44496 -38.44435 -38.44210
 Alpha  occ. eigenvalues --  -38.43883 -38.43667  -2.21414  -2.20808  -2.20305
 Alpha  occ. eigenvalues --   -2.20218  -2.19991  -2.19700  -2.19460  -1.15095
 Alpha  occ. eigenvalues --   -1.15075  -1.15052  -1.14479  -1.14467  -1.14423
 Alpha  occ. eigenvalues --   -1.13966  -1.13955  -1.13938  -1.13900  -1.13894
 Alpha  occ. eigenvalues --   -1.13877  -1.13669  -1.13662  -1.13642  -1.13353
 Alpha  occ. eigenvalues --   -1.13348  -1.13325  -1.13112  -1.13102  -1.13094
 Alpha  occ. eigenvalues --   -0.15543  -0.14000  -0.13253  -0.10689
 Alpha virt. eigenvalues --   -0.07620  -0.05105  -0.04305  -0.03585  -0.03503
 Alpha virt. eigenvalues --   -0.02306  -0.01999  -0.01634  -0.01414  -0.01100
 Alpha virt. eigenvalues --   -0.00814  -0.00066   0.00132   0.00348   0.00715

  Beta  occ. eigenvalues --  -38.45637 -38.44983 -38.44465 -38.44435 -38.44212
  Beta  occ. eigenvalues --  -38.43822 -38.43605  -2.21393  -2.20712  -2.20248
  Beta  occ. eigenvalues --   -2.20224  -2.19999  -2.19586  -2.19344  -1.15079
  Beta  occ. eigenvalues --   -1.15066  -1.15018  -1.14414  -1.14403  -1.14345
  Beta  occ. eigenvalues --   -1.13923  -1.13914  -1.13911  -1.13903  -1.13902
  Beta  occ. eigenvalues --   -1.13835  -1.13678  -1.13672  -1.13617  -1.13275
  Beta  occ. eigenvalues --   -1.13271  -1.13252  -1.13032  -1.13027  -1.13016
  Beta  occ. eigenvalues --   -0.15039  -0.13383  -0.12491
  Beta virt. eigenvalues --   -0.07742  -0.07502  -0.04694  -0.03863  -0.03330
  Beta virt. eigenvalues --   -0.03233  -0.02025  -0.01794  -0.01452  -0.01163
  Beta virt. eigenvalues --   -0.00901  -0.00545   0.00145   0.00185   0.00378

 Mulliken charges and spin densities:
               1          2
     1  Na  -0.327153   0.075964
     2  Na   0.046191   0.307492
     3  Na   0.112877   0.002718
     4  Na   0.348221   0.131345
     5  Na  -0.162999   0.267464
     6  Na   0.050836   0.258613
     7  Na  -0.067974  -0.043598
 Sum of Mulliken charges =  -0.00000   1.00000

 Dipole moment (field-independent basis, Debye):
    X=             -1.5364    Y=             -0.1741    Z=             -0.0489  Tot=              1.5470
 Quadrupole moment (field-independent basis, Debye-Ang):
   XX=            -64.1897   YY=            -70.9553   ZZ=            -67.0321
   XY=             -0.5776   XZ=              1.9058   YZ=              1.5338

 Normal termination of Gaussian 16 at Mon Dec  4 04:15:53 2023.
