 Gaussian 16, Revision B.01,
 Gaussian 16:  ES64L-G16RevB.01 20-Dec-2017

 -------------------------
 #P B3LYP/6-311+g(d) force
 -------------------------

 -----
 DPGEN
 -----
 Symbolic Z-matrix:
 Charge =  0 Multiplicity = 2

                         Standard orientation:
 ---------------------------------------------------------------------
 Center     Atomic      Atomic             Coordinates (Angstroms)
 Number     Number       Type             X           Y           Z
 ---------------------------------------------------------------------
      1         11           0       -1.441026    3.166430   -0.752494
      2         11           0       -3.165085    0.717564   -1.270612
      3         11           0        4.407761    0.533293    0.413733
      4         11           0        1.309290    3.337191    1.046421
      5         11           0        2.977406   -2.627360   -1.056528
      6         11           0       -0.479257   -3.376357    0.220744
      7         11           0       -3.609089   -1.750762    1.398735
 ---------------------------------------------------------------------

 SCF Done:  E(UB3LYP) =  -1136.10179730     A.U. after   27 cycles

 The electronic state is 2-A.
 Alpha  occ. eigenvalues --  -38.45697 -38.45673 -38.45019 -38.44633 -38.44123
 Alpha  occ. eigenvalues --  -38.44004 -38.43777  -2.21402  -2.21401  -2.20839
 Alpha  occ. eigenvalues --   -2.20399  -2.19909  -2.19773  -2.19622  -1.15096
 Alpha  occ. eigenvalues --   -1.15095  -1.15082  -1.15070  -1.15035  -1.15011
 Alpha  occ. eigenvalues --   -1.14536  -1.14499  -1.14456  -1.14070  -1.14065
 Alpha  occ. eigenvalues --   -1.14026  -1.13567  -1.13555  -1.13533  -1.13440
 Alpha  occ. eigenvalues --   -1.13426  -1.13399  -1.13304  -1.13271  -1.13264
 Alpha  occ. eigenvalues --   -0.15556  -0.13556  -0.13223  -0.10629
 Alpha virt. eigenvalues --   -0.07913  -0.05260  -0.04503  -0.03523  -0.03445
 Alpha virt. eigenvalues --   -0.02352  -0.01948  -0.01629  -0.01327  -0.01269
 Alpha virt. eigenvalues --   -0.00987  -0.00341  -0.00024   0.00375   0.00593

  Beta  occ. eigenvalues --  -38.45705 -38.45654 -38.44974 -38.44605 -38.44069
  Beta  occ. eigenvalues --  -38.43957 -38.43759  -2.21416  -2.21369  -2.20761
  Beta  occ. eigenvalues --   -2.20346  -2.19810  -2.19686  -2.19593  -1.15106
  Beta  occ. eigenvalues --   -1.15081  -1.15079  -1.15066  -1.15032  -1.14953
  Beta  occ. eigenvalues --   -1.14474  -1.14450  -1.14384  -1.14037  -1.14030
  Beta  occ. eigenvalues --   -1.13989  -1.13499  -1.13487  -1.13466  -1.13381
  Beta  occ. eigenvalues --   -1.13366  -1.13342  -1.13272  -1.13256  -1.13235
  Beta  occ. eigenvalues --   -0.15012  -0.12982  -0.12698
  Beta virt. eigenvalues --   -0.07988  -0.07429  -0.04713  -0.04014  -0.03382
  Beta virt. eigenvalues --   -0.03192  -0.02146  -0.01746  -0.01337  -0.01177
  Beta virt. eigenvalues --   -0.01061  -0.00798  -0.00064   0.00199   0.00426

 Mulliken charges and spin densities:
               1          2
     1  Na   0.157050   0.059190
     2  Na  -0.109958   0.155708
     3  Na   0.046452  -0.028072
     4  Na  -0.086877   0.186641
     5  Na  -0.010127   0.199072
     6  Na  -0.156705   0.168718
     7  Na   0.160166   0.258742
 Sum of Mulliken charges =  -0.00000   1.00000

 Dipole moment (field-independent basis, Debye):
    X=              0.0303    Y=             -0.2494    Z=              0.1491  Tot=              0.2921
 Quadrupole moment (field-independent basis, Debye-Ang):
   XX=            -60.6406   YY=            -70.0285   ZZ=            -70.2000
   XY=              0.7345   XZ=              0.2332   YZ=              1.7335

 Normal termination of Gaussian 16 at Mon Dec  4 04:21:51 2023.
