 Gaussian 16, Revision B.01,
 Gaussian 16:  ES64L-G16RevB.01 20-Dec-2017

 -------------------------
 #P B3LYP/6-311+g(d) force
 -------------------------

 -----
 DPGEN
 -----
 Symbolic Z-matrix:
 Charge =  0 Multiplicity = 2

                         Standard orientation:
 ---------------------------------------------------------------------
 Center     Atomic      Atomic             Coordinates (Angstroms)
 Number     Number       Type             X           Y           Z
 ---------------------------------------------------------------------
      1         11           0        2.784231   -1.026342    1.478391
      2         11           0       -0.686979    0.586758    1.542199
      3         11           0       -2.928869    1.449674   -0.304064
      4         11           0       -0.421187   -0.934523   -0.905966
      5         11           0        4.119674   -0.646358   -1.138213
      6         11           0        1.645638    2.005707   -0.434186
      7         11           0       -4.512507   -1.434917   -0.238162
 ---------------------------------------------------------------------

 SCF Done:  E(UB3LYP) =  -1136.10763062     A.U. after   28 cycles

 The electronic state is 2-A.
 Alpha  occ. eigenvalues --  -38.46509 -38.44759 -38.44045 -38.43739 -38.43455
 Alpha  occ. eigenvalues --  -38.43425 -38.43349  -2.22372  -2.20652  -2.19922
 Alpha  occ. eigenvalues --   -2.19600  -2.19349  -2.19278  -2.19239  -1.16128
 Alpha  occ. eigenvalues --   -1.16028  -1.15951  -1.14382  -1.14320  -1.14232
 Alpha  occ. eigenvalues --   -1.13637  -1.13586  -1.13544  -1.13296  -1.13265
 Alpha  occ. eigenvalues --   -1.13195  -1.13072  -1.13002  -1.12947  -1.12926
 Alpha  occ. eigenvalues --   -1.12919  -1.12915  -1.12907  -1.12905  -1.12878
 Alpha  occ. eigenvalues --   -0.18377  -0.14593  -0.10866  -0.10560
 Alpha virt. eigenvalues --   -0.07227  -0.05849  -0.04660  -0.03273  -0.02786
 Alpha virt. eigenvalues --   -0.02304  -0.01992  -0.01521  -0.00991  -0.00454
 Alpha virt. eigenvalues --   -0.00221   0.00174   0.00315   0.00351   0.00534

  Beta  occ. eigenvalues --  -38.46492 -38.44744 -38.44012 -38.43687 -38.43464
  Beta  occ. eigenvalues --  -38.43404 -38.43315  -2.22344  -2.20624  -2.19863
  Beta  occ. eigenvalues --   -2.19505  -2.19293  -2.19256  -2.19241  -1.16099
  Beta  occ. eigenvalues --   -1.15983  -1.15936  -1.14363  -1.14302  -1.14212
  Beta  occ. eigenvalues --   -1.13592  -1.13543  -1.13493  -1.13227  -1.13199
  Beta  occ. eigenvalues --   -1.13122  -1.13036  -1.12945  -1.12926  -1.12924
  Beta  occ. eigenvalues --   -1.12917  -1.12894  -1.12890  -1.12869  -1.12867
  Beta  occ. eigenvalues --   -0.17738  -0.14336  -0.10780
  Beta virt. eigenvalues --   -0.07066  -0.06703  -0.05664  -0.04130  -0.03162
  Beta virt. eigenvalues --   -0.02582  -0.01802  -0.01614  -0.01109  -0.00565
  Beta virt. eigenvalues --   -0.00342  -0.00143   0.00207   0.00398   0.00472

 Mulliken charges and spin densities:
               1          2
     1  Na  -0.047027   0.071278
     2  Na   0.023798   0.222515
     3  Na   0.760186   0.123545
     4  Na  -0.912840   0.045134
     5  Na   0.320015   0.215587
     6  Na  -0.240467   0.402414
     7  Na   0.096334  -0.080473
 Sum of Mulliken charges =  -0.00000   1.00000

 Dipole moment (field-independent basis, Debye):
    X=             -0.3909    Y=              0.3808    Z=              0.1467  Tot=              0.5651
 Quadrupole moment (field-independent basis, Debye-Ang):
   XX=            -70.5462   YY=            -69.5260   ZZ=            -66.6817
   XY=             -1.4112   XZ=             -1.0159   YZ=              2.7092

 Normal termination of Gaussian 16 at Fri Dec  8 05:58:00 2023.
