 Gaussian 16, Revision B.01,
 Gaussian 16:  ES64L-G16RevB.01 20-Dec-2017

 -------------------------
 #P B3LYP/6-311+g(d) force
 -------------------------

 -----
 DPGEN
 -----
 Symbolic Z-matrix:
 Charge =  0 Multiplicity = 2

                         Standard orientation:
 ---------------------------------------------------------------------
 Center     Atomic      Atomic             Coordinates (Angstroms)
 Number     Number       Type             X           Y           Z
 ---------------------------------------------------------------------
      1         11           0        2.148634   -2.172580   -0.035723
      2         11           0       -3.938818   -0.467078   -0.547457
      3         11           0        1.352879    0.837767    1.842769
      4         11           0       -0.078217   -0.310048   -1.593130
      5         11           0        3.377333    1.085790   -0.911267
      6         11           0       -1.576240    2.329769    0.066365
      7         11           0       -1.285570   -1.303621    1.178445
 ---------------------------------------------------------------------

 SCF Done:  E(UB3LYP) =  -1136.12358134     A.U. after   27 cycles

 The electronic state is 2-A.
 Alpha  occ. eigenvalues --  -38.45267 -38.44646 -38.44536 -38.43425 -38.43273
 Alpha  occ. eigenvalues --  -38.43196 -38.43180  -2.21064  -2.20455  -2.20440
 Alpha  occ. eigenvalues --   -2.19311  -2.19108  -2.19084  -2.19048  -1.14748
 Alpha  occ. eigenvalues --   -1.14711  -1.14685  -1.14170  -1.14128  -1.14096
 Alpha  occ. eigenvalues --   -1.14089  -1.14084  -1.14048  -1.12998  -1.12955
 Alpha  occ. eigenvalues --   -1.12928  -1.12820  -1.12785  -1.12758  -1.12755
 Alpha  occ. eigenvalues --   -1.12735  -1.12716  -1.12703  -1.12698  -1.12675
 Alpha  occ. eigenvalues --   -0.18458  -0.14018  -0.11072  -0.10831
 Alpha virt. eigenvalues --   -0.07101  -0.05156  -0.04373  -0.02958  -0.02887
 Alpha virt. eigenvalues --   -0.02417  -0.02307  -0.01071  -0.00865  -0.00304
 Alpha virt. eigenvalues --    0.00090   0.00192   0.00318   0.00643   0.00783

  Beta  occ. eigenvalues --  -38.45253 -38.44612 -38.44506 -38.43359 -38.43271
  Beta  occ. eigenvalues --  -38.43191 -38.43140  -2.21038  -2.20393  -2.20385
  Beta  occ. eigenvalues --   -2.19193  -2.19084  -2.19043  -2.19038  -1.14729
  Beta  occ. eigenvalues --   -1.14693  -1.14667  -1.14122  -1.14082  -1.14056
  Beta  occ. eigenvalues --   -1.14049  -1.14041  -1.14005  -1.12910  -1.12871
  Beta  occ. eigenvalues --   -1.12841  -1.12788  -1.12777  -1.12743  -1.12730
  Beta  occ. eigenvalues --   -1.12702  -1.12695  -1.12674  -1.12670  -1.12648
  Beta  occ. eigenvalues --   -0.17746  -0.13726  -0.10656
  Beta virt. eigenvalues --   -0.07252  -0.06867  -0.05102  -0.03820  -0.02849
  Beta virt. eigenvalues --   -0.02575  -0.01791  -0.01516  -0.00997  -0.00564
  Beta virt. eigenvalues --   -0.00223   0.00136   0.00200   0.00436   0.00718

 Mulliken charges and spin densities:
               1          2
     1  Na   0.057448   0.110536
     2  Na   0.386180   0.091033
     3  Na   0.197296   0.257233
     4  Na  -0.054942   0.240797
     5  Na  -0.036860   0.108276
     6  Na  -0.389408  -0.012422
     7  Na  -0.159715   0.204547
 Sum of Mulliken charges =  -0.00000   1.00000

 Dipole moment (field-independent basis, Debye):
    X=             -0.5546    Y=             -0.0491    Z=             -0.3615  Tot=              0.6639
 Quadrupole moment (field-independent basis, Debye-Ang):
   XX=            -46.1747   YY=            -76.4370   ZZ=            -69.4544
   XY=              0.5386   XZ=              0.9023   YZ=             -1.6276

 Normal termination of Gaussian 16 at Wed Dec  6 00:11:10 2023.
