 Gaussian 16, Revision B.01,
 Gaussian 16:  ES64L-G16RevB.01 20-Dec-2017

 -------------------------
 #P B3LYP/6-311+g(d) force
 -------------------------

 -----
 DPGEN
 -----
 Symbolic Z-matrix:
 Charge =  0 Multiplicity = 2

                         Standard orientation:
 ---------------------------------------------------------------------
 Center     Atomic      Atomic             Coordinates (Angstroms)
 Number     Number       Type             X           Y           Z
 ---------------------------------------------------------------------
      1         11           0        2.552497    1.660346   -0.292138
      2         11           0        0.112553   -0.197694   -1.822086
      3         11           0        0.436070   -0.007497    1.915684
      4         11           0       -1.252476   -2.083861    0.783158
      5         11           0       -0.955122    2.492640    0.475499
      6         11           0        2.210926   -1.924268   -0.327473
      7         11           0       -3.104448    0.060334   -0.732645
 ---------------------------------------------------------------------

 SCF Done:  E(UB3LYP) =  -1136.13348830     A.U. after   19 cycles

 The electronic state is 2-A.
 Alpha  occ. eigenvalues --  -38.43826 -38.43773 -38.43726 -38.43721 -38.43481
 Alpha  occ. eigenvalues --  -38.43242 -38.43132  -2.19783  -2.19697  -2.19690
 Alpha  occ. eigenvalues --   -2.19570  -2.19368  -2.19186  -2.18996  -1.13531
 Alpha  occ. eigenvalues --   -1.13427  -1.13410  -1.13396  -1.13382  -1.13357
 Alpha  occ. eigenvalues --   -1.13340  -1.13324  -1.13309  -1.13246  -1.13224
 Alpha  occ. eigenvalues --   -1.13194  -1.13049  -1.13020  -1.12979  -1.12883
 Alpha  occ. eigenvalues --   -1.12819  -1.12776  -1.12698  -1.12655  -1.12608
 Alpha  occ. eigenvalues --   -0.19182  -0.13219  -0.12170  -0.11603
 Alpha virt. eigenvalues --   -0.05399  -0.04985  -0.04039  -0.03520  -0.03101
 Alpha virt. eigenvalues --   -0.03041  -0.01443  -0.00896  -0.00254   0.00178
 Alpha virt. eigenvalues --    0.00289   0.00373   0.00826   0.00915   0.00932

  Beta  occ. eigenvalues --  -38.43812 -38.43722 -38.43681 -38.43649 -38.43474
  Beta  occ. eigenvalues --  -38.43218 -38.43124  -2.19665  -2.19616  -2.19567
  Beta  occ. eigenvalues --   -2.19565  -2.19358  -2.19147  -2.18983  -1.13419
  Beta  occ. eigenvalues --   -1.13357  -1.13337  -1.13327  -1.13309  -1.13299
  Beta  occ. eigenvalues --   -1.13281  -1.13264  -1.13241  -1.13224  -1.13196
  Beta  occ. eigenvalues --   -1.13182  -1.13024  -1.13006  -1.12966  -1.12839
  Beta  occ. eigenvalues --   -1.12769  -1.12757  -1.12679  -1.12634  -1.12603
  Beta  occ. eigenvalues --   -0.18427  -0.12937  -0.11897
  Beta virt. eigenvalues --   -0.07613  -0.05331  -0.04963  -0.03940  -0.02839
  Beta virt. eigenvalues --   -0.02304  -0.01955  -0.01329  -0.00860  -0.00111
  Beta virt. eigenvalues --    0.00188   0.00264   0.00401   0.00912   0.00930

 Mulliken charges and spin densities:
               1          2
     1  Na  -0.131998  -0.097579
     2  Na  -0.141104   0.639893
     3  Na   0.253783   0.489311
     4  Na   0.071418   0.011900
     5  Na  -0.213082  -0.050972
     6  Na   0.063669  -0.065122
     7  Na   0.097314   0.072568
 Sum of Mulliken charges =  -0.00000   1.00000

 Dipole moment (field-independent basis, Debye):
    X=              0.2221    Y=              0.0802    Z=             -0.2477  Tot=              0.3422
 Quadrupole moment (field-independent basis, Debye-Ang):
   XX=            -56.8120   YY=            -67.7488   ZZ=            -70.1359
   XY=             -0.1926   XZ=              0.1698   YZ=             -0.3737

 Normal termination of Gaussian 16 at Fri Dec  8 03:00:53 2023.
