 Gaussian 16, Revision B.01,
 Gaussian 16:  ES64L-G16RevB.01 20-Dec-2017

 -------------------------
 #P B3LYP/6-311+g(d) force
 -------------------------

 -----
 DPGEN
 -----
 Symbolic Z-matrix:
 Charge =  0 Multiplicity = 2

                         Standard orientation:
 ---------------------------------------------------------------------
 Center     Atomic      Atomic             Coordinates (Angstroms)
 Number     Number       Type             X           Y           Z
 ---------------------------------------------------------------------
      1         11           0       -0.789368    1.176655   -0.150219
      2         11           0        0.522734    4.155824    0.228556
      3         11           0        2.601109    1.021563   -0.361426
      4         11           0        4.966089   -2.318111    0.029497
      5         11           0        1.129337   -1.725620   -0.049704
      6         11           0       -2.675278   -1.212915    0.765440
      7         11           0       -5.754623   -1.097395   -0.462145
 ---------------------------------------------------------------------

 SCF Done:  E(UB3LYP) =  -1136.11998823     A.U. after   20 cycles

 The electronic state is 2-A.
 Alpha  occ. eigenvalues --  -38.44952 -38.44780 -38.44409 -38.44092 -38.43792
 Alpha  occ. eigenvalues --  -38.43706 -38.43323  -2.20780  -2.20533  -2.20209
 Alpha  occ. eigenvalues --   -2.19952  -2.19631  -2.19599  -2.19165  -1.14536
 Alpha  occ. eigenvalues --   -1.14483  -1.14334  -1.14199  -1.14196  -1.14132
 Alpha  occ. eigenvalues --   -1.13847  -1.13845  -1.13829  -1.13677  -1.13633
 Alpha  occ. eigenvalues --   -1.13520  -1.13331  -1.13321  -1.13305  -1.13255
 Alpha  occ. eigenvalues --   -1.13244  -1.13190  -1.12866  -1.12833  -1.12798
 Alpha  occ. eigenvalues --   -0.17140  -0.13627  -0.12644  -0.10931
 Alpha virt. eigenvalues --   -0.06660  -0.04949  -0.04568  -0.03861  -0.02797
 Alpha virt. eigenvalues --   -0.02345  -0.01851  -0.01579  -0.01476  -0.00887
 Alpha virt. eigenvalues --   -0.00337  -0.00007   0.00111   0.00381   0.00629

  Beta  occ. eigenvalues --  -38.44956 -38.44736 -38.44316 -38.44059 -38.43770
  Beta  occ. eigenvalues --  -38.43690 -38.43324  -2.20788  -2.20449  -2.20034
  Beta  occ. eigenvalues --   -2.19896  -2.19607  -2.19557  -2.19176  -1.14529
  Beta  occ. eigenvalues --   -1.14489  -1.14343  -1.14141  -1.14137  -1.14079
  Beta  occ. eigenvalues --   -1.13728  -1.13726  -1.13716  -1.13645  -1.13600
  Beta  occ. eigenvalues --   -1.13450  -1.13322  -1.13298  -1.13276  -1.13226
  Beta  occ. eigenvalues --   -1.13210  -1.13160  -1.12879  -1.12848  -1.12745
  Beta  occ. eigenvalues --   -0.16622  -0.13018  -0.12220
  Beta virt. eigenvalues --   -0.07654  -0.06193  -0.04676  -0.04323  -0.03610
  Beta virt. eigenvalues --   -0.02578  -0.02102  -0.01590  -0.01199  -0.01144
  Beta virt. eigenvalues --   -0.00586  -0.00127   0.00185   0.00267   0.00481

 Mulliken charges and spin densities:
               1          2
     1  Na  -1.572906  -0.133357
     2  Na   0.772365   0.144799
     3  Na   0.392220   0.161667
     4  Na   0.843875   0.235938
     5  Na  -0.815039   0.144986
     6  Na   0.021641  -0.002547
     7  Na   0.357844   0.448513
 Sum of Mulliken charges =  -0.00000   1.00000

 Dipole moment (field-independent basis, Debye):
    X=              1.0849    Y=              0.0624    Z=             -0.0477  Tot=              1.0878
 Quadrupole moment (field-independent basis, Debye-Ang):
   XX=            -59.1792   YY=            -62.3644   ZZ=            -72.0224
   XY=             -4.2870   XZ=              2.1685   YZ=              0.1619

 Normal termination of Gaussian 16 at Tue Nov 28 23:59:33 2023.
