 Gaussian 16, Revision B.01,
 Gaussian 16:  ES64L-G16RevB.01 20-Dec-2017

 -------------------------
 #P B3LYP/6-311+g(d) force
 -------------------------

 -----
 DPGEN
 -----
 Symbolic Z-matrix:
 Charge =  0 Multiplicity = 2

                         Standard orientation:
 ---------------------------------------------------------------------
 Center     Atomic      Atomic             Coordinates (Angstroms)
 Number     Number       Type             X           Y           Z
 ---------------------------------------------------------------------
      1         11           0        2.490298   -2.532214    0.770746
      2         11           0        2.745337    0.103459   -1.805228
      3         11           0       -1.038162   -1.759970   -0.405776
      4         11           0        0.627573    3.147668   -0.785020
      5         11           0       -2.043325    1.909845    1.034414
      6         11           0       -4.024033   -1.367391   -0.710586
      7         11           0        1.242310    0.498604    1.901450
 ---------------------------------------------------------------------

 SCF Done:  E(UB3LYP) =  -1136.12694971     A.U. after   20 cycles

 The electronic state is 2-A.
 Alpha  occ. eigenvalues --  -38.44528 -38.44360 -38.44337 -38.44026 -38.43930
 Alpha  occ. eigenvalues --  -38.43661 -38.43563  -2.20324  -2.20192  -2.20125
 Alpha  occ. eigenvalues --   -2.19833  -2.19717  -2.19492  -2.19378  -1.13993
 Alpha  occ. eigenvalues --   -1.13967  -1.13930  -1.13885  -1.13852  -1.13818
 Alpha  occ. eigenvalues --   -1.13803  -1.13785  -1.13730  -1.13499  -1.13493
 Alpha  occ. eigenvalues --   -1.13466  -1.13400  -1.13377  -1.13347  -1.13223
 Alpha  occ. eigenvalues --   -1.13179  -1.13166  -1.13024  -1.13010  -1.12968
 Alpha  occ. eigenvalues --   -0.17204  -0.13119  -0.12439  -0.10956
 Alpha virt. eigenvalues --   -0.05741  -0.05532  -0.05288  -0.03325  -0.03195
 Alpha virt. eigenvalues --   -0.02256  -0.01805  -0.01438  -0.00727  -0.00534
 Alpha virt. eigenvalues --   -0.00265   0.00199   0.00299   0.00410   0.00718

  Beta  occ. eigenvalues --  -38.44448 -38.44323 -38.44305 -38.44014 -38.43919
  Beta  occ. eigenvalues --  -38.43657 -38.43552  -2.20174  -2.20100  -2.20091
  Beta  occ. eigenvalues --   -2.19813  -2.19698  -2.19487  -2.19357  -1.13891
  Beta  occ. eigenvalues --   -1.13867  -1.13821  -1.13817  -1.13791  -1.13780
  Beta  occ. eigenvalues --   -1.13778  -1.13723  -1.13707  -1.13485  -1.13463
  Beta  occ. eigenvalues --   -1.13456  -1.13390  -1.13364  -1.13316  -1.13214
  Beta  occ. eigenvalues --   -1.13169  -1.13158  -1.13009  -1.12995  -1.12958
  Beta  occ. eigenvalues --   -0.16594  -0.12850  -0.12165
  Beta virt. eigenvalues --   -0.07305  -0.05543  -0.05380  -0.04824  -0.02980
  Beta virt. eigenvalues --   -0.02598  -0.01799  -0.01616  -0.01273  -0.00537
  Beta virt. eigenvalues --   -0.00353   0.00022   0.00291   0.00445   0.00501

 Mulliken charges and spin densities:
               1          2
     1  Na   0.975180   0.113283
     2  Na   0.103900   0.405445
     3  Na  -1.315916   0.071729
     4  Na  -0.013019   0.052450
     5  Na   0.079732   0.035844
     6  Na   0.298011  -0.001072
     7  Na  -0.127888   0.322320
 Sum of Mulliken charges =  -0.00000   1.00000

 Dipole moment (field-independent basis, Debye):
    X=              0.2495    Y=              0.1910    Z=              0.2957  Tot=              0.4314
 Quadrupole moment (field-independent basis, Debye-Ang):
   XX=            -59.3734   YY=            -66.2058   ZZ=            -70.6845
   XY=             -5.8986   XZ=              0.1366   YZ=             -0.6349

 Normal termination of Gaussian 16 at Sun Dec  3 16:33:18 2023.
