 Gaussian 16, Revision B.01,
 Gaussian 16:  ES64L-G16RevB.01 20-Dec-2017

 -------------------------
 #P B3LYP/6-311+g(d) force
 -------------------------

 -----
 DPGEN
 -----
 Symbolic Z-matrix:
 Charge =  0 Multiplicity = 2

                         Standard orientation:
 ---------------------------------------------------------------------
 Center     Atomic      Atomic             Coordinates (Angstroms)
 Number     Number       Type             X           Y           Z
 ---------------------------------------------------------------------
      1         11           0       -0.880431   -2.836919   -0.330926
      2         11           0        3.590210   -1.353189    0.000672
      3         11           0        1.785260    2.780319    0.026636
      4         11           0       -2.101609    2.317107   -0.250777
      5         11           0        0.543107   -0.039804   -1.710978
      6         11           0        0.416482   -0.164634    2.031230
      7         11           0       -3.353019   -0.702878    0.234143
 ---------------------------------------------------------------------

 SCF Done:  E(UB3LYP) =  -1136.12551173     A.U. after   22 cycles

 The electronic state is 2-A.
 Alpha  occ. eigenvalues --  -38.45442 -38.44305 -38.44163 -38.43844 -38.43798
 Alpha  occ. eigenvalues --  -38.43749 -38.43412  -2.21166  -2.20075  -2.19978
 Alpha  occ. eigenvalues --   -2.19637  -2.19625  -2.19569  -2.19289  -1.14843
 Alpha  occ. eigenvalues --   -1.14827  -1.14803  -1.13754  -1.13738  -1.13708
 Alpha  occ. eigenvalues --   -1.13659  -1.13640  -1.13633  -1.13312  -1.13306
 Alpha  occ. eigenvalues --   -1.13298  -1.13268  -1.13260  -1.13254  -1.13239
 Alpha  occ. eigenvalues --   -1.13226  -1.13200  -1.12974  -1.12926  -1.12905
 Alpha  occ. eigenvalues --   -0.17660  -0.12964  -0.12033  -0.10278
 Alpha virt. eigenvalues --   -0.06796  -0.05644  -0.04477  -0.03157  -0.02694
 Alpha virt. eigenvalues --   -0.02482  -0.02217  -0.01464  -0.00916  -0.00468
 Alpha virt. eigenvalues --   -0.00117   0.00258   0.00572   0.00649   0.00701

  Beta  occ. eigenvalues --  -38.45447 -38.44302 -38.44163 -38.43842 -38.43739
  Beta  occ. eigenvalues --  -38.43707 -38.43344  -2.21177  -2.20072  -2.19979
  Beta  occ. eigenvalues --   -2.19633  -2.19555  -2.19457  -2.19166  -1.14839
  Beta  occ. eigenvalues --   -1.14831  -1.14812  -1.13741  -1.13731  -1.13708
  Beta  occ. eigenvalues --   -1.13662  -1.13636  -1.13625  -1.13308  -1.13291
  Beta  occ. eigenvalues --   -1.13268  -1.13244  -1.13203  -1.13195  -1.13179
  Beta  occ. eigenvalues --   -1.13136  -1.13120  -1.12888  -1.12836  -1.12816
  Beta  occ. eigenvalues --   -0.16965  -0.12817  -0.11831
  Beta virt. eigenvalues --   -0.06788  -0.06415  -0.05548  -0.04426  -0.02493
  Beta virt. eigenvalues --   -0.02214  -0.01972  -0.01388  -0.01361  -0.00973
  Beta virt. eigenvalues --   -0.00488   0.00056   0.00293   0.00668   0.00690

 Mulliken charges and spin densities:
               1          2
     1  Na   0.209497  -0.042460
     2  Na   0.042057  -0.159192
     3  Na   0.006286  -0.099908
     4  Na  -0.016830  -0.011765
     5  Na   0.088503   0.516309
     6  Na  -0.293948   0.780247
     7  Na  -0.035565   0.016769
 Sum of Mulliken charges =  -0.00000   1.00000

 Dipole moment (field-independent basis, Debye):
    X=              0.8624    Y=             -0.1030    Z=              0.0597  Tot=              0.8706
 Quadrupole moment (field-independent basis, Debye-Ang):
   XX=            -51.1225   YY=            -63.5971   ZZ=            -77.5147
   XY=             -0.4230   XZ=             -0.1668   YZ=              0.1985

 Normal termination of Gaussian 16 at Thu Dec  7 03:58:26 2023.
