 Gaussian 16, Revision B.01,
 Gaussian 16:  ES64L-G16RevB.01 20-Dec-2017

 -------------------------
 #P B3LYP/6-311+g(d) force
 -------------------------

 -----
 DPGEN
 -----
 Symbolic Z-matrix:
 Charge =  0 Multiplicity = 2

                         Standard orientation:
 ---------------------------------------------------------------------
 Center     Atomic      Atomic             Coordinates (Angstroms)
 Number     Number       Type             X           Y           Z
 ---------------------------------------------------------------------
      1         11           0        1.931665    2.099256   -0.156219
      2         11           0        3.148557   -1.129820   -0.606933
      3         11           0       -3.372675   -0.873094   -0.639732
      4         11           0        0.058302    0.504938    2.329684
      5         11           0        0.074386   -0.473498   -1.698528
      6         11           0       -0.233371   -2.651610    0.936082
      7         11           0       -1.606862    2.523828   -0.164353
 ---------------------------------------------------------------------

 SCF Done:  E(UB3LYP) =  -1136.13465131     A.U. after   19 cycles

 The electronic state is 2-A.
 Alpha  occ. eigenvalues --  -38.44300 -38.44199 -38.43846 -38.43697 -38.43634
 Alpha  occ. eigenvalues --  -38.43437 -38.43377  -2.20156  -2.19969  -2.19662
 Alpha  occ. eigenvalues --   -2.19604  -2.19457  -2.19247  -2.19231  -1.13811
 Alpha  occ. eigenvalues --   -1.13796  -1.13767  -1.13647  -1.13616  -1.13607
 Alpha  occ. eigenvalues --   -1.13361  -1.13321  -1.13305  -1.13288  -1.13260
 Alpha  occ. eigenvalues --   -1.13206  -1.13143  -1.13108  -1.13071  -1.12936
 Alpha  occ. eigenvalues --   -1.12924  -1.12916  -1.12904  -1.12877  -1.12835
 Alpha  occ. eigenvalues --   -0.18074  -0.12700  -0.12117  -0.11453
 Alpha virt. eigenvalues --   -0.05693  -0.05070  -0.04486  -0.03311  -0.03210
 Alpha virt. eigenvalues --   -0.03027  -0.01705  -0.01019  -0.00402  -0.00154
 Alpha virt. eigenvalues --   -0.00050   0.00317   0.00713   0.00849   0.00893

  Beta  occ. eigenvalues --  -38.44198 -38.44188 -38.43838 -38.43654 -38.43603
  Beta  occ. eigenvalues --  -38.43436 -38.43373  -2.19969  -2.19949  -2.19649
  Beta  occ. eigenvalues --   -2.19525  -2.19403  -2.19246  -2.19226  -1.13687
  Beta  occ. eigenvalues --   -1.13670  -1.13625  -1.13624  -1.13602  -1.13596
  Beta  occ. eigenvalues --   -1.13338  -1.13313  -1.13288  -1.13242  -1.13208
  Beta  occ. eigenvalues --   -1.13147  -1.13099  -1.13056  -1.13039  -1.12931
  Beta  occ. eigenvalues --   -1.12920  -1.12905  -1.12897  -1.12869  -1.12829
  Beta  occ. eigenvalues --   -0.17356  -0.12409  -0.11927
  Beta virt. eigenvalues --   -0.07526  -0.05560  -0.05073  -0.04235  -0.02665
  Beta virt. eigenvalues --   -0.02586  -0.02047  -0.01567  -0.01011  -0.00232
  Beta virt. eigenvalues --   -0.00179   0.00043   0.00361   0.00821   0.00855

 Mulliken charges and spin densities:
               1          2
     1  Na   0.081112   0.022907
     2  Na   0.299246  -0.003050
     3  Na   0.093908  -0.014914
     4  Na  -0.166637   0.440237
     5  Na  -0.202537   0.361268
     6  Na  -0.044411   0.200544
     7  Na  -0.060680  -0.006993
 Sum of Mulliken charges =  -0.00000   1.00000

 Dipole moment (field-independent basis, Debye):
    X=             -0.0580    Y=             -0.0996    Z=              0.1137  Tot=              0.1619
 Quadrupole moment (field-independent basis, Debye-Ang):
   XX=            -57.2644   YY=            -67.0643   ZZ=            -70.5095
   XY=             -0.5029   XZ=              0.4463   YZ=             -1.3361

 Normal termination of Gaussian 16 at Tue Dec  5 23:01:56 2023.
