 Gaussian 16, Revision B.01,
 Gaussian 16:  ES64L-G16RevB.01 20-Dec-2017

 -------------------------
 #P B3LYP/6-311+g(d) force
 -------------------------

 -----
 DPGEN
 -----
 Symbolic Z-matrix:
 Charge =  0 Multiplicity = 2

                         Standard orientation:
 ---------------------------------------------------------------------
 Center     Atomic      Atomic             Coordinates (Angstroms)
 Number     Number       Type             X           Y           Z
 ---------------------------------------------------------------------
      1         11           0        0.301616   -0.222940   -1.511397
      2         11           0        0.643262    2.694816    0.169544
      3         11           0        1.518662   -2.559578   -0.005452
      4         11           0        3.300441    0.444177    0.083243
      5         11           0       -2.555162   -1.727016   -0.148219
      6         11           0       -0.771431   -0.190487    1.887141
      7         11           0       -2.437388    1.561028   -0.474860
 ---------------------------------------------------------------------

 SCF Done:  E(UB3LYP) =  -1136.13440287     A.U. after   19 cycles

 The electronic state is 2-A.
 Alpha  occ. eigenvalues --  -38.44477 -38.43979 -38.43701 -38.43664 -38.43266
 Alpha  occ. eigenvalues --  -38.43003 -38.42964  -2.20293  -2.19858  -2.19570
 Alpha  occ. eigenvalues --   -2.19553  -2.19211  -2.19021  -2.18836  -1.13967
 Alpha  occ. eigenvalues --   -1.13951  -1.13937  -1.13568  -1.13522  -1.13488
 Alpha  occ. eigenvalues --   -1.13296  -1.13248  -1.13230  -1.13208  -1.13206
 Alpha  occ. eigenvalues --   -1.13162  -1.12879  -1.12843  -1.12819  -1.12706
 Alpha  occ. eigenvalues --   -1.12671  -1.12633  -1.12509  -1.12495  -1.12473
 Alpha  occ. eigenvalues --   -0.18907  -0.13497  -0.12351  -0.10468
 Alpha virt. eigenvalues --   -0.05995  -0.05316  -0.04422  -0.03298  -0.02667
 Alpha virt. eigenvalues --   -0.02196  -0.01735  -0.01113  -0.00467  -0.00222
 Alpha virt. eigenvalues --    0.00012   0.00340   0.00788   0.00840   0.00908

  Beta  occ. eigenvalues --  -38.44478 -38.43970 -38.43697 -38.43647 -38.43180
  Beta  occ. eigenvalues --  -38.42958 -38.42943  -2.20297  -2.19847  -2.19549
  Beta  occ. eigenvalues --   -2.19544  -2.19053  -2.18914  -2.18828  -1.13962
  Beta  occ. eigenvalues --   -1.13950  -1.13940  -1.13558  -1.13489  -1.13478
  Beta  occ. eigenvalues --   -1.13286  -1.13234  -1.13194  -1.13190  -1.13177
  Beta  occ. eigenvalues --   -1.13162  -1.12776  -1.12730  -1.12707  -1.12630
  Beta  occ. eigenvalues --   -1.12599  -1.12554  -1.12499  -1.12473  -1.12463
  Beta  occ. eigenvalues --   -0.18195  -0.13276  -0.12100
  Beta virt. eigenvalues --   -0.06566  -0.05923  -0.05286  -0.04410  -0.02543
  Beta virt. eigenvalues --   -0.01912  -0.01657  -0.01197  -0.01019  -0.00509
  Beta virt. eigenvalues --   -0.00242   0.00165   0.00382   0.00837   0.00853

 Mulliken charges and spin densities:
               1          2
     1  Na  -0.196133   0.405880
     2  Na  -0.013355  -0.043698
     3  Na   0.124862  -0.143095
     4  Na  -0.019229  -0.029021
     5  Na   0.405855  -0.051495
     6  Na  -0.527427   0.768270
     7  Na   0.225427   0.093160
 Sum of Mulliken charges =  -0.00000   1.00000

 Dipole moment (field-independent basis, Debye):
    X=              0.2660    Y=             -0.2435    Z=              0.0926  Tot=              0.3723
 Quadrupole moment (field-independent basis, Debye-Ang):
   XX=            -53.0260   YY=            -63.9567   ZZ=            -75.6307
   XY=              0.5762   XZ=              2.3755   YZ=             -0.0959

 Normal termination of Gaussian 16 at Tue Dec  5 13:01:29 2023.
