 Gaussian 16, Revision B.01,
 Gaussian 16:  ES64L-G16RevB.01 20-Dec-2017

 -------------------------
 #P B3LYP/6-311+g(d) force
 -------------------------

 -----
 DPGEN
 -----
 Symbolic Z-matrix:
 Charge =  0 Multiplicity = 2

                         Standard orientation:
 ---------------------------------------------------------------------
 Center     Atomic      Atomic             Coordinates (Angstroms)
 Number     Number       Type             X           Y           Z
 ---------------------------------------------------------------------
      1         11           0        0.146138   -0.295439    0.150401
      2         11           0        2.801650    1.873503   -0.105110
      3         11           0       -0.261527    3.336377   -0.203566
      4         11           0       -3.145828    1.771420    0.324880
      5         11           0       -3.228258   -2.091658   -0.298823
      6         11           0        0.413437   -3.331130    0.054642
      7         11           0        3.274388   -1.263072    0.077575
 ---------------------------------------------------------------------

 SCF Done:  E(UB3LYP) =  -1136.12554641     A.U. after   27 cycles

 The electronic state is 2-A.
 Alpha  occ. eigenvalues --  -38.44503 -38.44494 -38.44017 -38.44000 -38.43974
 Alpha  occ. eigenvalues --  -38.43285 -38.43086  -2.20366  -2.20303  -2.19953
 Alpha  occ. eigenvalues --   -2.19858  -2.19815  -2.19093  -2.18980  -1.14060
 Alpha  occ. eigenvalues --   -1.14037  -1.14005  -1.13980  -1.13963  -1.13937
 Alpha  occ. eigenvalues --   -1.13712  -1.13678  -1.13573  -1.13519  -1.13490
 Alpha  occ. eigenvalues --   -1.13487  -1.13466  -1.13457  -1.13455  -1.12751
 Alpha  occ. eigenvalues --   -1.12734  -1.12710  -1.12638  -1.12622  -1.12619
 Alpha  occ. eigenvalues --   -0.17494  -0.13864  -0.13531  -0.09622
 Alpha virt. eigenvalues --   -0.06779  -0.05643  -0.04384  -0.03056  -0.02516
 Alpha virt. eigenvalues --   -0.02226  -0.02050  -0.01875  -0.01665  -0.00045
 Alpha virt. eigenvalues --    0.00159   0.00462   0.00503   0.00637   0.00715

  Beta  occ. eigenvalues --  -38.44481 -38.44476 -38.44029 -38.43974 -38.43955
  Beta  occ. eigenvalues --  -38.43206 -38.43037  -2.20350  -2.20259  -2.19974
  Beta  occ. eigenvalues --   -2.19814  -2.19786  -2.18944  -2.18890  -1.14055
  Beta  occ. eigenvalues --   -1.14032  -1.13954  -1.13942  -1.13934  -1.13876
  Beta  occ. eigenvalues --   -1.13717  -1.13689  -1.13596  -1.13493  -1.13478
  Beta  occ. eigenvalues --   -1.13472  -1.13455  -1.13401  -1.13393  -1.12649
  Beta  occ. eigenvalues --   -1.12634  -1.12613  -1.12581  -1.12560  -1.12558
  Beta  occ. eigenvalues --   -0.17243  -0.13111  -0.12882
  Beta virt. eigenvalues --   -0.06846  -0.06346  -0.05364  -0.04284  -0.02429
  Beta virt. eigenvalues --   -0.02125  -0.01898  -0.01815  -0.01659  -0.01432
  Beta virt. eigenvalues --    0.00056   0.00411   0.00543   0.00652   0.00680

 Mulliken charges and spin densities:
               1          2
     1  Na  -5.546059  -0.191284
     2  Na   0.224154   0.283868
     3  Na   1.042253   0.141244
     4  Na   0.868613   0.155266
     5  Na   0.636765   0.493320
     6  Na   1.116755   0.098987
     7  Na   1.657518   0.018599
 Sum of Mulliken charges =  -0.00000   1.00000

 Dipole moment (field-independent basis, Debye):
    X=              0.6263    Y=             -0.0456    Z=              0.0399  Tot=              0.6293
 Quadrupole moment (field-independent basis, Debye-Ang):
   XX=            -61.9655   YY=            -63.4053   ZZ=            -72.3957
   XY=             -4.5032   XZ=             -0.8248   YZ=             -0.3169

 Normal termination of Gaussian 16 at Fri Dec  8 19:48:26 2023.
