 Gaussian 16, Revision B.01,
 Gaussian 16:  ES64L-G16RevB.01 20-Dec-2017

 -------------------------
 #P B3LYP/6-311+g(d) force
 -------------------------

 -----
 DPGEN
 -----
 Symbolic Z-matrix:
 Charge =  0 Multiplicity = 2

                         Standard orientation:
 ---------------------------------------------------------------------
 Center     Atomic      Atomic             Coordinates (Angstroms)
 Number     Number       Type             X           Y           Z
 ---------------------------------------------------------------------
      1         11           0       -2.273354    2.333994   -0.203273
      2         11           0        0.541685    3.227205    0.528514
      3         11           0        4.259526    0.313611    0.090252
      4         11           0       -3.556286   -0.770710   -0.587149
      5         11           0        1.344300   -3.141330   -0.455759
      6         11           0        1.139905    0.326196   -0.652948
      7         11           0       -1.455777   -2.288965    1.280364
 ---------------------------------------------------------------------

 SCF Done:  E(UB3LYP) =  -1136.12020782     A.U. after   19 cycles

 The electronic state is 2-A.
 Alpha  occ. eigenvalues --  -38.44477 -38.44287 -38.44069 -38.43916 -38.43868
 Alpha  occ. eigenvalues --  -38.43854 -38.43314  -2.20293  -2.20097  -2.19923
 Alpha  occ. eigenvalues --   -2.19746  -2.19738  -2.19735  -2.19168  -1.13980
 Alpha  occ. eigenvalues --   -1.13962  -1.13942  -1.13768  -1.13742  -1.13717
 Alpha  occ. eigenvalues --   -1.13657  -1.13596  -1.13575  -1.13491  -1.13456
 Alpha  occ. eigenvalues --   -1.13422  -1.13382  -1.13374  -1.13359  -1.13350
 Alpha  occ. eigenvalues --   -1.13330  -1.13302  -1.12821  -1.12804  -1.12802
 Alpha  occ. eigenvalues --   -0.17037  -0.13547  -0.13471  -0.10071
 Alpha virt. eigenvalues --   -0.06370  -0.05625  -0.04496  -0.03270  -0.02704
 Alpha virt. eigenvalues --   -0.02548  -0.01851  -0.01522  -0.00885  -0.00531
 Alpha virt. eigenvalues --   -0.00184   0.00016   0.00377   0.00501   0.00760

  Beta  occ. eigenvalues --  -38.44474 -38.44251 -38.44058 -38.43863 -38.43838
  Beta  occ. eigenvalues --  -38.43828 -38.43255  -2.20293  -2.20031  -2.19909
  Beta  occ. eigenvalues --   -2.19757  -2.19692  -2.19571  -2.19058  -1.13981
  Beta  occ. eigenvalues --   -1.13966  -1.13909  -1.13726  -1.13700  -1.13664
  Beta  occ. eigenvalues --   -1.13614  -1.13592  -1.13557  -1.13492  -1.13434
  Beta  occ. eigenvalues --   -1.13415  -1.13346  -1.13314  -1.13301  -1.13262
  Beta  occ. eigenvalues --   -1.13249  -1.13232  -1.12750  -1.12732  -1.12725
  Beta  occ. eigenvalues --   -0.16749  -0.12885  -0.12721
  Beta virt. eigenvalues --   -0.06866  -0.06368  -0.05259  -0.04296  -0.02891
  Beta virt. eigenvalues --   -0.02373  -0.02127  -0.01673  -0.01099  -0.00767
  Beta virt. eigenvalues --   -0.00435   0.00205   0.00277   0.00429   0.00568

 Mulliken charges and spin densities:
               1          2
     1  Na  -0.199209   0.047614
     2  Na   0.784112   0.075958
     3  Na   0.595004   0.338860
     4  Na   0.159418   0.378968
     5  Na   0.094425   0.146435
     6  Na  -1.721247   0.025798
     7  Na   0.287497  -0.013631
 Sum of Mulliken charges =  -0.00000   1.00000

 Dipole moment (field-independent basis, Debye):
    X=              0.3140    Y=             -0.2595    Z=              0.4430  Tot=              0.6018
 Quadrupole moment (field-independent basis, Debye-Ang):
   XX=            -70.5432   YY=            -63.4373   ZZ=            -67.1343
   XY=             -2.2073   XZ=              1.3044   YZ=              1.6615

 Normal termination of Gaussian 16 at Wed Nov 29 01:58:31 2023.
