 Gaussian 16, Revision B.01,
 Gaussian 16:  ES64L-G16RevB.01 20-Dec-2017

 -------------------------
 #P B3LYP/6-311+g(d) force
 -------------------------

 -----
 DPGEN
 -----
 Symbolic Z-matrix:
 Charge =  0 Multiplicity = 2

                         Standard orientation:
 ---------------------------------------------------------------------
 Center     Atomic      Atomic             Coordinates (Angstroms)
 Number     Number       Type             X           Y           Z
 ---------------------------------------------------------------------
      1         11           0        3.260219    0.775244   -0.172659
      2         11           0        0.175381    2.628623   -0.351315
      3         11           0       -2.880052    1.134478    0.105703
      4         11           0        1.823046   -2.304197    0.500678
      5         11           0        0.235546   -0.510905   -1.660892
      6         11           0       -0.251503    0.250330    1.959514
      7         11           0       -2.362636   -1.973574   -0.381028
 ---------------------------------------------------------------------

 SCF Done:  E(UB3LYP) =  -1136.13496888     A.U. after   20 cycles

 The electronic state is 2-A.
 Alpha  occ. eigenvalues --  -38.44588 -38.44015 -38.43654 -38.43592 -38.43583
 Alpha  occ. eigenvalues --  -38.43319 -38.42794  -2.20395  -2.19893  -2.19510
 Alpha  occ. eigenvalues --   -2.19497  -2.19441  -2.19281  -2.18675  -1.14069
 Alpha  occ. eigenvalues --   -1.14046  -1.14041  -1.13582  -1.13555  -1.13542
 Alpha  occ. eigenvalues --   -1.13205  -1.13178  -1.13159  -1.13150  -1.13141
 Alpha  occ. eigenvalues --   -1.13129  -1.13121  -1.13089  -1.13065  -1.12957
 Alpha  occ. eigenvalues --   -1.12915  -1.12890  -1.12366  -1.12344  -1.12294
 Alpha  occ. eigenvalues --   -0.18732  -0.13485  -0.12060  -0.10799
 Alpha virt. eigenvalues --   -0.06095  -0.05277  -0.04151  -0.03412  -0.02793
 Alpha virt. eigenvalues --   -0.02466  -0.01890  -0.01082  -0.00343  -0.00136
 Alpha virt. eigenvalues --   -0.00029   0.00335   0.00734   0.00854   0.00881

  Beta  occ. eigenvalues --  -38.44586 -38.44011 -38.43644 -38.43578 -38.43496
  Beta  occ. eigenvalues --  -38.43259 -38.42784  -2.20394  -2.19888  -2.19495
  Beta  occ. eigenvalues --   -2.19418  -2.19338  -2.19170  -2.18661  -1.14055
  Beta  occ. eigenvalues --   -1.14045  -1.14039  -1.13580  -1.13544  -1.13525
  Beta  occ. eigenvalues --   -1.13185  -1.13148  -1.13132  -1.13123  -1.13075
  Beta  occ. eigenvalues --   -1.13061  -1.13054  -1.13014  -1.12992  -1.12884
  Beta  occ. eigenvalues --   -1.12836  -1.12809  -1.12359  -1.12316  -1.12279
  Beta  occ. eigenvalues --   -0.18012  -0.13257  -0.11796
  Beta virt. eigenvalues --   -0.06914  -0.06034  -0.05238  -0.04075  -0.02673
  Beta virt. eigenvalues --   -0.02056  -0.01801  -0.01436  -0.01005  -0.00357
  Beta virt. eigenvalues --   -0.00161   0.00112   0.00368   0.00806   0.00861

 Mulliken charges and spin densities:
               1          2
     1  Na   0.073157  -0.067328
     2  Na  -0.000992  -0.034209
     3  Na   0.256112   0.035773
     4  Na   0.043288   0.015445
     5  Na  -0.227112   0.473193
     6  Na  -0.355179   0.611757
     7  Na   0.210726  -0.034631
 Sum of Mulliken charges =  -0.00000   1.00000

 Dipole moment (field-independent basis, Debye):
    X=              0.3085    Y=             -0.0336    Z=              0.1292  Tot=              0.3362
 Quadrupole moment (field-independent basis, Debye-Ang):
   XX=            -52.3666   YY=            -67.0836   ZZ=            -73.9409
   XY=              0.2379   XZ=              0.5015   YZ=             -1.4892

 Normal termination of Gaussian 16 at Fri Dec  8 04:38:11 2023.
