 Gaussian 16, Revision B.01,
 Gaussian 16:  ES64L-G16RevB.01 20-Dec-2017

 -------------------------
 #P B3LYP/6-311+g(d) force
 -------------------------

 -----
 DPGEN
 -----
 Symbolic Z-matrix:
 Charge =  0 Multiplicity = 2

                         Standard orientation:
 ---------------------------------------------------------------------
 Center     Atomic      Atomic             Coordinates (Angstroms)
 Number     Number       Type             X           Y           Z
 ---------------------------------------------------------------------
      1         11           0        0.028393    0.134213    1.969117
      2         11           0        1.754813    2.883275   -0.525854
      3         11           0        3.928432   -0.727847    0.543796
      4         11           0        1.213796   -2.106198   -0.895850
      5         11           0       -2.403486   -2.143820   -0.154236
      6         11           0       -1.073759    0.825243   -1.593472
      7         11           0       -3.448190    1.135134    0.656498
 ---------------------------------------------------------------------

 SCF Done:  E(UB3LYP) =  -1136.12054182     A.U. after   24 cycles

 The electronic state is 2-A.
 Alpha  occ. eigenvalues --  -38.45159 -38.45142 -38.44919 -38.43946 -38.43602
 Alpha  occ. eigenvalues --  -38.43404 -38.43183  -2.20943  -2.20899  -2.20735
 Alpha  occ. eigenvalues --   -2.19763  -2.19353  -2.19292  -2.19006  -1.14632
 Alpha  occ. eigenvalues --   -1.14589  -1.14575  -1.14555  -1.14551  -1.14529
 Alpha  occ. eigenvalues --   -1.14412  -1.14378  -1.14370  -1.13441  -1.13429
 Alpha  occ. eigenvalues --   -1.13402  -1.13028  -1.13009  -1.13000  -1.12975
 Alpha  occ. eigenvalues --   -1.12960  -1.12887  -1.12689  -1.12677  -1.12636
 Alpha  occ. eigenvalues --   -0.17716  -0.13421  -0.11401  -0.10635
 Alpha virt. eigenvalues --   -0.07115  -0.05669  -0.04408  -0.03201  -0.02729
 Alpha virt. eigenvalues --   -0.02500  -0.02376  -0.01439  -0.01024  -0.00430
 Alpha virt. eigenvalues --   -0.00039   0.00146   0.00248   0.00594   0.00623

  Beta  occ. eigenvalues --  -38.45131 -38.45103 -38.44896 -38.43939 -38.43593
  Beta  occ. eigenvalues --  -38.43348 -38.43168  -2.20879  -2.20839  -2.20694
  Beta  occ. eigenvalues --   -2.19754  -2.19338  -2.19189  -2.18980  -1.14561
  Beta  occ. eigenvalues --   -1.14558  -1.14538  -1.14521  -1.14517  -1.14472
  Beta  occ. eigenvalues --   -1.14379  -1.14350  -1.14336  -1.13430  -1.13422
  Beta  occ. eigenvalues --   -1.13379  -1.13012  -1.12997  -1.12987  -1.12908
  Beta  occ. eigenvalues --   -1.12882  -1.12810  -1.12675  -1.12654  -1.12604
  Beta  occ. eigenvalues --   -0.17046  -0.13244  -0.11088
  Beta virt. eigenvalues --   -0.07148  -0.06715  -0.05643  -0.03977  -0.02905
  Beta virt. eigenvalues --   -0.02437  -0.01945  -0.01591  -0.01357  -0.00910
  Beta virt. eigenvalues --   -0.00220  -0.00023   0.00182   0.00390   0.00666

 Mulliken charges and spin densities:
               1          2
     1  Na  -0.228605   0.400469
     2  Na  -0.172972  -0.005300
     3  Na   0.254370   0.089841
     4  Na  -0.327773  -0.043902
     5  Na   0.095799   0.076094
     6  Na   0.057604   0.320131
     7  Na   0.321578   0.162666
 Sum of Mulliken charges =  -0.00000   1.00000

 Dipole moment (field-independent basis, Debye):
    X=             -0.1705    Y=             -0.0232    Z=              0.6010  Tot=              0.6252
 Quadrupole moment (field-independent basis, Debye-Ang):
   XX=            -47.7254   YY=            -72.9240   ZZ=            -72.9585
   XY=              0.1469   XZ=              0.2451   YZ=              0.6206

 Normal termination of Gaussian 16 at Thu Dec  7 11:36:56 2023.
