 Gaussian 16, Revision B.01,
 Gaussian 16:  ES64L-G16RevB.01 20-Dec-2017

 -------------------------
 #P B3LYP/6-311+g(d) force
 -------------------------

 -----
 DPGEN
 -----
 Symbolic Z-matrix:
 Charge =  0 Multiplicity = 2

                         Standard orientation:
 ---------------------------------------------------------------------
 Center     Atomic      Atomic             Coordinates (Angstroms)
 Number     Number       Type             X           Y           Z
 ---------------------------------------------------------------------
      1         11           0        1.238480   -2.101190   -0.826183
      2         11           0       -1.372889   -0.984297   -1.421991
      3         11           0        4.138027   -0.106989    0.552135
      4         11           0       -3.507345   -1.025008    1.197412
      5         11           0        0.228025    0.264994    1.643411
      6         11           0        1.166407    1.802742   -0.508070
      7         11           0       -1.890705    2.149747   -0.636714
 ---------------------------------------------------------------------

 SCF Done:  E(UB3LYP) =  -1136.11624349     A.U. after   23 cycles

 The electronic state is 2-A.
 Alpha  occ. eigenvalues --  -38.45283 -38.45265 -38.44346 -38.43377 -38.43302
 Alpha  occ. eigenvalues --  -38.43060 -38.43053  -2.21189  -2.21030  -2.20154
 Alpha  occ. eigenvalues --   -2.19274  -2.19192  -2.19035  -2.19022  -1.14978
 Alpha  occ. eigenvalues --   -1.14833  -1.14764  -1.14706  -1.14685  -1.14644
 Alpha  occ. eigenvalues --   -1.13810  -1.13791  -1.13780  -1.13037  -1.12994
 Alpha  occ. eigenvalues --   -1.12937  -1.12907  -1.12840  -1.12799  -1.12778
 Alpha  occ. eigenvalues --   -1.12671  -1.12652  -1.12645  -1.12633  -1.12584
 Alpha  occ. eigenvalues --   -0.18670  -0.13746  -0.11613  -0.11028
 Alpha virt. eigenvalues --   -0.07104  -0.04798  -0.04291  -0.03369  -0.02850
 Alpha virt. eigenvalues --   -0.02435  -0.02163  -0.01211  -0.00798  -0.00082
 Alpha virt. eigenvalues --    0.00015   0.00241   0.00355   0.00707   0.00775

  Beta  occ. eigenvalues --  -38.45261 -38.45246 -38.44281 -38.43365 -38.43266
  Beta  occ. eigenvalues --  -38.43045 -38.43017  -2.21148  -2.20995  -2.20032
  Beta  occ. eigenvalues --   -2.19255  -2.19129  -2.19010  -2.18963  -1.14941
  Beta  occ. eigenvalues --   -1.14809  -1.14732  -1.14682  -1.14660  -1.14621
  Beta  occ. eigenvalues --   -1.13726  -1.13708  -1.13698  -1.12977  -1.12966
  Beta  occ. eigenvalues --   -1.12929  -1.12882  -1.12791  -1.12774  -1.12759
  Beta  occ. eigenvalues --   -1.12630  -1.12622  -1.12584  -1.12570  -1.12563
  Beta  occ. eigenvalues --   -0.18068  -0.13368  -0.11282
  Beta virt. eigenvalues --   -0.07403  -0.06799  -0.04675  -0.03839  -0.03109
  Beta virt. eigenvalues --   -0.02581  -0.01941  -0.01404  -0.01066  -0.00510
  Beta virt. eigenvalues --   -0.00022   0.00112   0.00272   0.00490   0.00790

 Mulliken charges and spin densities:
               1          2
     1  Na  -0.638222   0.031398
     2  Na   0.487480   0.044351
     3  Na   0.772565   0.156532
     4  Na  -0.184934   0.374680
     5  Na  -0.263463   0.247430
     6  Na  -0.254010   0.112289
     7  Na   0.080583   0.033320
 Sum of Mulliken charges =  -0.00000   1.00000

 Dipole moment (field-independent basis, Debye):
    X=              0.8488    Y=              0.2286    Z=              0.3936  Tot=              0.9632
 Quadrupole moment (field-independent basis, Debye-Ang):
   XX=            -48.3843   YY=            -76.1448   ZZ=            -69.3614
   XY=             -2.2106   XZ=              0.8694   YZ=             -2.6590

 Normal termination of Gaussian 16 at Fri Dec  8 04:06:24 2023.
