 Gaussian 16, Revision B.01,
 Gaussian 16:  ES64L-G16RevB.01 20-Dec-2017

 -------------------------
 #P B3LYP/6-311+g(d) force
 -------------------------

 -----
 DPGEN
 -----
 Symbolic Z-matrix:
 Charge =  0 Multiplicity = 2

                         Standard orientation:
 ---------------------------------------------------------------------
 Center     Atomic      Atomic             Coordinates (Angstroms)
 Number     Number       Type             X           Y           Z
 ---------------------------------------------------------------------
      1         11           0       -3.507229   -2.386855   -0.140489
      2         11           0        3.543277    0.527658    0.119020
      3         11           0        0.510449    0.520207   -1.420387
      4         11           0       -0.448216   -1.310768    1.364397
      5         11           0       -0.211918    3.131514    0.765587
      6         11           0       -2.676637    1.662013   -0.458109
      7         11           0        2.790275   -2.143768   -0.230020
 ---------------------------------------------------------------------

 SCF Done:  E(UB3LYP) =  -1136.11296783     A.U. after   27 cycles

 The electronic state is 2-A.
 Alpha  occ. eigenvalues --  -38.45053 -38.45027 -38.44931 -38.44448 -38.43800
 Alpha  occ. eigenvalues --  -38.43601 -38.42720  -2.20944  -2.20891  -2.20801
 Alpha  occ. eigenvalues --   -2.20284  -2.19553  -2.19445  -2.18573  -1.14882
 Alpha  occ. eigenvalues --   -1.14598  -1.14565  -1.14530  -1.14503  -1.14497
 Alpha  occ. eigenvalues --   -1.14466  -1.14412  -1.14408  -1.13977  -1.13958
 Alpha  occ. eigenvalues --   -1.13900  -1.13228  -1.13213  -1.13187  -1.13120
 Alpha  occ. eigenvalues --   -1.13084  -1.13082  -1.12273  -1.12216  -1.12172
 Alpha  occ. eigenvalues --   -0.17874  -0.14077  -0.12022  -0.09399
 Alpha virt. eigenvalues --   -0.06777  -0.06376  -0.04683  -0.03288  -0.02840
 Alpha virt. eigenvalues --   -0.02363  -0.01929  -0.01414  -0.01024  -0.00553
 Alpha virt. eigenvalues --   -0.00077   0.00072   0.00466   0.00550   0.00651

  Beta  occ. eigenvalues --  -38.45036 -38.45018 -38.44912 -38.44432 -38.43790
  Beta  occ. eigenvalues --  -38.43584 -38.42655  -2.20921  -2.20875  -2.20768
  Beta  occ. eigenvalues --   -2.20256  -2.19534  -2.19412  -2.18454  -1.14872
  Beta  occ. eigenvalues --   -1.14584  -1.14527  -1.14515  -1.14459  -1.14457
  Beta  occ. eigenvalues --   -1.14444  -1.14395  -1.14388  -1.13946  -1.13934
  Beta  occ. eigenvalues --   -1.13883  -1.13216  -1.13192  -1.13176  -1.13101
  Beta  occ. eigenvalues --   -1.13063  -1.13049  -1.12195  -1.12132  -1.12082
  Beta  occ. eigenvalues --   -0.17315  -0.13751  -0.11774
  Beta virt. eigenvalues --   -0.06506  -0.06256  -0.06022  -0.04474  -0.02789
  Beta virt. eigenvalues --   -0.02411  -0.02022  -0.01845  -0.01108  -0.00709
  Beta virt. eigenvalues --   -0.00507   0.00123   0.00208   0.00577   0.00628

 Mulliken charges and spin densities:
               1          2
     1  Na   0.022483   0.136084
     2  Na   0.237647   0.251398
     3  Na  -0.205791   0.028503
     4  Na  -0.601666   0.200551
     5  Na  -0.159830   0.142931
     6  Na   0.230734   0.167230
     7  Na   0.476423   0.073303
 Sum of Mulliken charges =  -0.00000   1.00000

 Dipole moment (field-independent basis, Debye):
    X=              1.2522    Y=              0.3378    Z=              0.2243  Tot=              1.3162
 Quadrupole moment (field-independent basis, Debye-Ang):
   XX=            -59.4748   YY=            -62.8088   ZZ=            -75.2159
   XY=             -2.6467   XZ=              2.6327   YZ=              4.7663

 Normal termination of Gaussian 16 at Tue Dec  5 13:25:41 2023.
