 Gaussian 16, Revision B.01,
 Gaussian 16:  ES64L-G16RevB.01 20-Dec-2017

 -------------------------
 #P B3LYP/6-311+g(d) force
 -------------------------

 -----
 DPGEN
 -----
 Symbolic Z-matrix:
 Charge =  0 Multiplicity = 2

                         Standard orientation:
 ---------------------------------------------------------------------
 Center     Atomic      Atomic             Coordinates (Angstroms)
 Number     Number       Type             X           Y           Z
 ---------------------------------------------------------------------
      1         11           0        1.523959   -2.193484   -0.636296
      2         11           0       -5.375792   -0.522149    0.194074
      3         11           0       -2.390363   -1.323048   -0.110886
      4         11           0       -2.815478    2.401524   -0.194692
      5         11           0        0.167557    1.036624   -0.087749
      6         11           0        3.251670   -0.240880    1.465038
      7         11           0        5.638448    0.841412   -0.629488
 ---------------------------------------------------------------------

 SCF Done:  E(UB3LYP) =  -1136.11551437     A.U. after   26 cycles

 The electronic state is 2-A.
 Alpha  occ. eigenvalues --  -38.44816 -38.44357 -38.44222 -38.44091 -38.44069
 Alpha  occ. eigenvalues --  -38.43839 -38.43469  -2.20646  -2.20178  -2.20089
 Alpha  occ. eigenvalues --   -2.19950  -2.19926  -2.19669  -2.19227  -1.14321
 Alpha  occ. eigenvalues --   -1.14311  -1.14241  -1.13862  -1.13835  -1.13789
 Alpha  occ. eigenvalues --   -1.13783  -1.13772  -1.13722  -1.13641  -1.13626
 Alpha  occ. eigenvalues --   -1.13613  -1.13585  -1.13554  -1.13530  -1.13332
 Alpha  occ. eigenvalues --   -1.13313  -1.13275  -1.12898  -1.12898  -1.12867
 Alpha  occ. eigenvalues --   -0.17092  -0.14444  -0.11818  -0.10900
 Alpha virt. eigenvalues --   -0.06176  -0.05889  -0.04549  -0.03509  -0.03188
 Alpha virt. eigenvalues --   -0.02451  -0.01871  -0.01489  -0.01095  -0.00752
 Alpha virt. eigenvalues --   -0.00424  -0.00068   0.00350   0.00399   0.00598

  Beta  occ. eigenvalues --  -38.44747 -38.44326 -38.44188 -38.44086 -38.44028
  Beta  occ. eigenvalues --  -38.43793 -38.43481  -2.20522  -2.20119  -2.20028
  Beta  occ. eigenvalues --   -2.19917  -2.19879  -2.19585  -2.19250  -1.14230
  Beta  occ. eigenvalues --   -1.14226  -1.14144  -1.13821  -1.13795  -1.13748
  Beta  occ. eigenvalues --   -1.13745  -1.13716  -1.13671  -1.13613  -1.13595
  Beta  occ. eigenvalues --   -1.13582  -1.13566  -1.13531  -1.13465  -1.13264
  Beta  occ. eigenvalues --   -1.13257  -1.13226  -1.12914  -1.12913  -1.12881
  Beta  occ. eigenvalues --   -0.16452  -0.14110  -0.10779
  Beta virt. eigenvalues --   -0.07791  -0.06124  -0.05431  -0.04301  -0.03286
  Beta virt. eigenvalues --   -0.02535  -0.02012  -0.01602  -0.01263  -0.00920
  Beta virt. eigenvalues --   -0.00433  -0.00317   0.00073   0.00415   0.00514

 Mulliken charges and spin densities:
               1          2
     1  Na   0.343041   0.177216
     2  Na   1.515824   0.077122
     3  Na  -1.638989   0.302270
     4  Na   0.066032   0.018979
     5  Na  -1.046512   0.469321
     6  Na   0.637573   0.025452
     7  Na   0.123031  -0.070360
 Sum of Mulliken charges =  -0.00000   1.00000

 Dipole moment (field-independent basis, Debye):
    X=             -1.1028    Y=             -0.0982    Z=             -0.2882  Tot=              1.1441
 Quadrupole moment (field-independent basis, Debye-Ang):
   XX=            -71.5011   YY=            -65.5192   ZZ=            -67.6448
   XY=             -5.8928   XZ=             -4.0536   YZ=             -0.3673

 Normal termination of Gaussian 16 at Tue Nov 28 21:59:31 2023.
