 Gaussian 16, Revision B.01,
 Gaussian 16:  ES64L-G16RevB.01 20-Dec-2017

 -------------------------
 #P B3LYP/6-311+g(d) force
 -------------------------

 -----
 DPGEN
 -----
 Symbolic Z-matrix:
 Charge =  0 Multiplicity = 2

                         Standard orientation:
 ---------------------------------------------------------------------
 Center     Atomic      Atomic             Coordinates (Angstroms)
 Number     Number       Type             X           Y           Z
 ---------------------------------------------------------------------
      1         11           0       -3.774223    1.870860    0.388381
      2         11           0        2.599370    2.361361   -0.679223
      3         11           0        0.112974    3.746638   -0.268925
      4         11           0        2.499164   -2.918022   -0.277570
      5         11           0       -1.354683   -3.000975   -0.830684
      6         11           0       -4.236306   -1.464006    0.488475
      7         11           0        4.153705   -0.595856    1.179545
 ---------------------------------------------------------------------

 SCF Done:  E(UB3LYP) =  -1136.10582296     A.U. after   20 cycles

 The electronic state is 2-A.
 Alpha  occ. eigenvalues --  -38.45033 -38.44785 -38.44703 -38.44470 -38.44409
 Alpha  occ. eigenvalues --  -38.44354 -38.43977  -2.20810  -2.20553  -2.20476
 Alpha  occ. eigenvalues --   -2.20300  -2.20221  -2.20138  -2.19802  -1.14465
 Alpha  occ. eigenvalues --   -1.14450  -1.14440  -1.14241  -1.14227  -1.14211
 Alpha  occ. eigenvalues --   -1.14155  -1.14143  -1.14129  -1.14068  -1.13951
 Alpha  occ. eigenvalues --   -1.13929  -1.13869  -1.13856  -1.13852  -1.13794
 Alpha  occ. eigenvalues --   -1.13784  -1.13751  -1.13453  -1.13438  -1.13425
 Alpha  occ. eigenvalues --   -0.15462  -0.14066  -0.13276  -0.10987
 Alpha virt. eigenvalues --   -0.07508  -0.04846  -0.04589  -0.03563  -0.03427
 Alpha virt. eigenvalues --   -0.02384  -0.02087  -0.01909  -0.01286  -0.01179
 Alpha virt. eigenvalues --   -0.00710  -0.00061  -0.00028   0.00364   0.00702

  Beta  occ. eigenvalues --  -38.44962 -38.44791 -38.44713 -38.44453 -38.44358
  Beta  occ. eigenvalues --  -38.44271 -38.43959  -2.20679  -2.20569  -2.20501
  Beta  occ. eigenvalues --   -2.20272  -2.20126  -2.19983  -2.19773  -1.14376
  Beta  occ. eigenvalues --   -1.14366  -1.14347  -1.14252  -1.14242  -1.14188
  Beta  occ. eigenvalues --   -1.14177  -1.14164  -1.14106  -1.14033  -1.13934
  Beta  occ. eigenvalues --   -1.13907  -1.13805  -1.13792  -1.13791  -1.13688
  Beta  occ. eigenvalues --   -1.13679  -1.13651  -1.13428  -1.13420  -1.13399
  Beta  occ. eigenvalues --   -0.14938  -0.13424  -0.12604
  Beta virt. eigenvalues --   -0.07814  -0.07461  -0.04413  -0.04210  -0.03328
  Beta virt. eigenvalues --   -0.03028  -0.02157  -0.01985  -0.01763  -0.01174
  Beta virt. eigenvalues --   -0.00830  -0.00354   0.00147   0.00212   0.00351

 Mulliken charges and spin densities:
               1          2
     1  Na  -0.108875   0.372065
     2  Na  -0.387643   0.042852
     3  Na   0.278949   0.053520
     4  Na   0.062700  -0.009783
     5  Na  -0.218345   0.380423
     6  Na   0.313028  -0.058817
     7  Na   0.060186   0.219740
 Sum of Mulliken charges =  -0.00000   1.00000

 Dipole moment (field-independent basis, Debye):
    X=             -0.0710    Y=             -0.0097    Z=              0.2718  Tot=              0.2811
 Quadrupole moment (field-independent basis, Debye-Ang):
   XX=            -61.3111   YY=            -67.9232   ZZ=            -71.7683
   XY=             -0.6845   XZ=             -0.2418   YZ=              1.4903

 Normal termination of Gaussian 16 at Mon Dec  4 03:07:01 2023.
