 Gaussian 16, Revision B.01,
 Gaussian 16:  ES64L-G16RevB.01 20-Dec-2017

 -------------------------
 #P B3LYP/6-311+g(d) force
 -------------------------

 -----
 DPGEN
 -----
 Symbolic Z-matrix:
 Charge =  0 Multiplicity = 2

                         Standard orientation:
 ---------------------------------------------------------------------
 Center     Atomic      Atomic             Coordinates (Angstroms)
 Number     Number       Type             X           Y           Z
 ---------------------------------------------------------------------
      1         11           0       -1.730754   -2.213910    0.482700
      2         11           0        4.100358    0.146638   -0.908226
      3         11           0       -2.027762    2.415923    0.116925
      4         11           0       -4.095062   -0.200703   -0.561300
      5         11           0        1.241947    1.959568    0.840605
      6         11           0        1.609882   -1.256133    2.015030
      7         11           0        0.901392   -0.851384   -1.985734
 ---------------------------------------------------------------------

 SCF Done:  E(UB3LYP) =  -1136.11701099     A.U. after   23 cycles

 The electronic state is 2-A.
 Alpha  occ. eigenvalues --  -38.45602 -38.45529 -38.44796 -38.44641 -38.43299
 Alpha  occ. eigenvalues --  -38.43224 -38.42904  -2.21370  -2.21313  -2.20598
 Alpha  occ. eigenvalues --   -2.20460  -2.19100  -2.19055  -2.18697  -1.15049
 Alpha  occ. eigenvalues --   -1.15025  -1.15006  -1.14973  -1.14955  -1.14926
 Alpha  occ. eigenvalues --   -1.14270  -1.14248  -1.14239  -1.14129  -1.14082
 Alpha  occ. eigenvalues --   -1.14081  -1.12773  -1.12770  -1.12749  -1.12748
 Alpha  occ. eigenvalues --   -1.12732  -1.12674  -1.12376  -1.12370  -1.12341
 Alpha  occ. eigenvalues --   -0.17307  -0.13859  -0.11431  -0.11213
 Alpha virt. eigenvalues --   -0.07299  -0.05377  -0.04624  -0.03165  -0.03122
 Alpha virt. eigenvalues --   -0.02602  -0.02522  -0.01230  -0.01114  -0.00301
 Alpha virt. eigenvalues --   -0.00105   0.00015   0.00135   0.00495   0.00635

  Beta  occ. eigenvalues --  -38.45562 -38.45484 -38.44785 -38.44554 -38.43294
  Beta  occ. eigenvalues --  -38.43204 -38.42912  -2.21299  -2.21232  -2.20576
  Beta  occ. eigenvalues --   -2.20300  -2.19093  -2.19020  -2.18715  -1.15001
  Beta  occ. eigenvalues --   -1.14979  -1.14937  -1.14917  -1.14887  -1.14875
  Beta  occ. eigenvalues --   -1.14256  -1.14233  -1.14227  -1.14013  -1.13976
  Beta  occ. eigenvalues --   -1.13965  -1.12770  -1.12767  -1.12730  -1.12725
  Beta  occ. eigenvalues --   -1.12687  -1.12660  -1.12389  -1.12380  -1.12348
  Beta  occ. eigenvalues --   -0.16655  -0.13549  -0.11085
  Beta virt. eigenvalues --   -0.07663  -0.07006  -0.05198  -0.04146  -0.02999
  Beta virt. eigenvalues --   -0.02653  -0.02058  -0.02036  -0.01153  -0.00760
  Beta virt. eigenvalues --   -0.00184  -0.00006   0.00035   0.00305   0.00644

 Mulliken charges and spin densities:
               1          2
     1  Na  -0.223011   0.063855
     2  Na   0.465808   0.136955
     3  Na  -0.173594  -0.151633
     4  Na   0.211353   0.084729
     5  Na  -0.189138   0.326766
     6  Na   0.097058   0.256037
     7  Na  -0.188476   0.283292
 Sum of Mulliken charges =  -0.00000   1.00000

 Dipole moment (field-independent basis, Debye):
    X=              1.1971    Y=             -0.6979    Z=             -0.5368  Tot=              1.4860
 Quadrupole moment (field-independent basis, Debye-Ang):
   XX=            -47.2169   YY=            -79.5291   ZZ=            -69.4267
   XY=              1.1503   XZ=              3.1553   YZ=             -2.2056

 Normal termination of Gaussian 16 at Sun Dec  3 19:23:02 2023.
