 Gaussian 16, Revision B.01,
 Gaussian 16:  ES64L-G16RevB.01 20-Dec-2017

 -------------------------
 #P B3LYP/6-311+g(d) force
 -------------------------

 -----
 DPGEN
 -----
 Symbolic Z-matrix:
 Charge =  0 Multiplicity = 2

                         Standard orientation:
 ---------------------------------------------------------------------
 Center     Atomic      Atomic             Coordinates (Angstroms)
 Number     Number       Type             X           Y           Z
 ---------------------------------------------------------------------
      1         11           0        2.762603   -1.577001   -0.012765
      2         11           0       -1.263493    2.648577   -0.206371
      3         11           0        2.387822    1.798410    0.129628
      4         11           0       -0.160500    0.017377    1.963256
      5         11           0       -1.053315   -2.543691   -0.037201
      6         11           0       -2.902689   -0.258976   -0.051888
      7         11           0        0.229572   -0.084696   -1.784658
 ---------------------------------------------------------------------

 SCF Done:  E(UB3LYP) =  -1136.13718889     A.U. after   19 cycles

 The electronic state is 2-A.
 Alpha  occ. eigenvalues --  -38.43950 -38.43876 -38.43807 -38.43552 -38.43318
 Alpha  occ. eigenvalues --  -38.43200 -38.43137  -2.19774  -2.19738  -2.19718
 Alpha  occ. eigenvalues --   -2.19478  -2.19284  -2.19126  -2.18990  -1.13479
 Alpha  occ. eigenvalues --   -1.13458  -1.13445  -1.13420  -1.13395  -1.13392
 Alpha  occ. eigenvalues --   -1.13383  -1.13381  -1.13333  -1.13153  -1.13105
 Alpha  occ. eigenvalues --   -1.13096  -1.12974  -1.12930  -1.12902  -1.12793
 Alpha  occ. eigenvalues --   -1.12767  -1.12746  -1.12661  -1.12652  -1.12629
 Alpha  occ. eigenvalues --   -0.18997  -0.13340  -0.12306  -0.10923
 Alpha virt. eigenvalues --   -0.05486  -0.05366  -0.04386  -0.03404  -0.02828
 Alpha virt. eigenvalues --   -0.02628  -0.01463  -0.01083  -0.00211  -0.00159
 Alpha virt. eigenvalues --   -0.00020   0.00376   0.00795   0.00889   0.00940

  Beta  occ. eigenvalues --  -38.43949 -38.43871 -38.43801 -38.43463 -38.43243
  Beta  occ. eigenvalues --  -38.43192 -38.43132  -2.19774  -2.19731  -2.19713
  Beta  occ. eigenvalues --   -2.19315  -2.19146  -2.19116  -2.18984  -1.13479
  Beta  occ. eigenvalues --   -1.13459  -1.13428  -1.13420  -1.13388  -1.13383
  Beta  occ. eigenvalues --   -1.13366  -1.13343  -1.13335  -1.13048  -1.12988
  Beta  occ. eigenvalues --   -1.12979  -1.12891  -1.12838  -1.12802  -1.12780
  Beta  occ. eigenvalues --   -1.12744  -1.12717  -1.12657  -1.12630  -1.12622
  Beta  occ. eigenvalues --   -0.18233  -0.13099  -0.12055
  Beta virt. eigenvalues --   -0.06984  -0.05431  -0.05374  -0.04378  -0.02561
  Beta virt. eigenvalues --   -0.02047  -0.01570  -0.01367  -0.01020  -0.00263
  Beta virt. eigenvalues --   -0.00218   0.00119   0.00388   0.00866   0.00876

 Mulliken charges and spin densities:
               1          2
     1  Na   0.107206  -0.115747
     2  Na   0.087284  -0.079561
     3  Na   0.053407  -0.090495
     4  Na  -0.476402   0.697604
     5  Na   0.277648  -0.074244
     6  Na   0.278462   0.034391
     7  Na  -0.327605   0.628051
 Sum of Mulliken charges =  -0.00000   1.00000

 Dipole moment (field-independent basis, Debye):
    X=              0.4134    Y=              0.0372    Z=              0.0983  Tot=              0.4265
 Quadrupole moment (field-independent basis, Debye-Ang):
   XX=            -56.8765   YY=            -63.9354   ZZ=            -73.4008
   XY=             -0.5061   XZ=              0.8278   YZ=             -0.2135

 Normal termination of Gaussian 16 at Tue Dec  5 13:12:50 2023.
