 Gaussian 16, Revision B.01,
 Gaussian 16:  ES64L-G16RevB.01 20-Dec-2017

 -------------------------
 #P B3LYP/6-311+g(d) force
 -------------------------

 -----
 DPGEN
 -----
 Symbolic Z-matrix:
 Charge =  0 Multiplicity = 2

                         Standard orientation:
 ---------------------------------------------------------------------
 Center     Atomic      Atomic             Coordinates (Angstroms)
 Number     Number       Type             X           Y           Z
 ---------------------------------------------------------------------
      1         11           0       -3.575890   -0.972606    0.356698
      2         11           0        1.144491    1.942841   -1.141564
      3         11           0        2.985562   -1.704487   -1.202246
      4         11           0       -0.031900   -1.050943    2.524952
      5         11           0       -2.556996    1.889088   -0.941842
      6         11           0        2.234598    1.710217    1.612023
      7         11           0       -0.199865   -1.814110   -1.208021
 ---------------------------------------------------------------------

 SCF Done:  E(UB3LYP) =  -1136.11823460     A.U. after   21 cycles

 The electronic state is 2-A.
 Alpha  occ. eigenvalues --  -38.45440 -38.44430 -38.44201 -38.44134 -38.44127
 Alpha  occ. eigenvalues --  -38.43550 -38.43499  -2.21225  -2.20216  -2.19987
 Alpha  occ. eigenvalues --   -2.19965  -2.19926  -2.19396  -2.19326  -1.14873
 Alpha  occ. eigenvalues --   -1.14856  -1.14839  -1.13892  -1.13884  -1.13859
 Alpha  occ. eigenvalues --   -1.13692  -1.13661  -1.13641  -1.13614  -1.13612
 Alpha  occ. eigenvalues --   -1.13605  -1.13594  -1.13574  -1.13556  -1.13073
 Alpha  occ. eigenvalues --   -1.13053  -1.13014  -1.13007  -1.13001  -1.12948
 Alpha  occ. eigenvalues --   -0.17278  -0.13164  -0.11986  -0.11637
 Alpha virt. eigenvalues --   -0.06133  -0.05626  -0.04662  -0.03445  -0.03129
 Alpha virt. eigenvalues --   -0.02979  -0.01876  -0.01256  -0.00601  -0.00339
 Alpha virt. eigenvalues --   -0.00086   0.00216   0.00286   0.00428   0.00696

  Beta  occ. eigenvalues --  -38.45333 -38.44432 -38.44183 -38.44112 -38.44102
  Beta  occ. eigenvalues --  -38.43538 -38.43489  -2.21026  -2.20220  -2.19954
  Beta  occ. eigenvalues --   -2.19925  -2.19879  -2.19374  -2.19310  -1.14739
  Beta  occ. eigenvalues --   -1.14725  -1.14691  -1.13896  -1.13882  -1.13858
  Beta  occ. eigenvalues --   -1.13669  -1.13635  -1.13620  -1.13594  -1.13575
  Beta  occ. eigenvalues --   -1.13567  -1.13563  -1.13543  -1.13526  -1.13056
  Beta  occ. eigenvalues --   -1.13036  -1.13003  -1.12992  -1.12980  -1.12928
  Beta  occ. eigenvalues --   -0.16594  -0.13039  -0.11375
  Beta virt. eigenvalues --   -0.08100  -0.05870  -0.05337  -0.03987  -0.03249
  Beta virt. eigenvalues --   -0.02700  -0.02241  -0.01776  -0.01081  -0.00340
  Beta virt. eigenvalues --   -0.00212  -0.00006   0.00323   0.00360   0.00581

 Mulliken charges and spin densities:
               1          2
     1  Na   0.492639   0.084600
     2  Na   0.038199   0.241632
     3  Na   0.174752  -0.097117
     4  Na  -0.089196   0.505365
     5  Na  -0.121307   0.008954
     6  Na   0.054524   0.046674
     7  Na  -0.549611   0.209892
 Sum of Mulliken charges =  -0.00000   1.00000

 Dipole moment (field-independent basis, Debye):
    X=             -0.1796    Y=             -0.3611    Z=              0.6190  Tot=              0.7388
 Quadrupole moment (field-independent basis, Debye-Ang):
   XX=            -56.1547   YY=            -75.1824   ZZ=            -66.9025
   XY=              0.7478   XZ=             -0.3106   YZ=             -2.4998

 Normal termination of Gaussian 16 at Mon Dec  4 01:39:03 2023.
