 Gaussian 16, Revision B.01,
 Gaussian 16:  ES64L-G16RevB.01 20-Dec-2017

 -------------------------
 #P B3LYP/6-311+g(d) force
 -------------------------

 -----
 DPGEN
 -----
 Symbolic Z-matrix:
 Charge =  0 Multiplicity = 2

                         Standard orientation:
 ---------------------------------------------------------------------
 Center     Atomic      Atomic             Coordinates (Angstroms)
 Number     Number       Type             X           Y           Z
 ---------------------------------------------------------------------
      1         11           0       -0.015174   -0.062328    2.083984
      2         11           0       -1.783783   -2.622865   -0.078139
      3         11           0       -0.298197   -0.035211   -1.504591
      4         11           0        1.963880   -1.954213   -0.287904
      5         11           0       -0.241369    2.910831   -0.248310
      6         11           0       -3.075148    0.955463    0.026292
      7         11           0        3.449791    0.808324    0.008667
 ---------------------------------------------------------------------

 SCF Done:  E(UB3LYP) =  -1136.13331747     A.U. after   19 cycles

 The electronic state is 2-A.
 Alpha  occ. eigenvalues --  -38.44484 -38.44475 -38.43575 -38.43540 -38.43398
 Alpha  occ. eigenvalues --  -38.43386 -38.43080  -2.20314  -2.20267  -2.19444
 Alpha  occ. eigenvalues --   -2.19428  -2.19227  -2.19222  -2.19087  -1.13999
 Alpha  occ. eigenvalues --   -1.13975  -1.13959  -1.13943  -1.13927  -1.13900
 Alpha  occ. eigenvalues --   -1.13148  -1.13118  -1.13090  -1.13062  -1.13055
 Alpha  occ. eigenvalues --   -1.13045  -1.12955  -1.12913  -1.12883  -1.12878
 Alpha  occ. eigenvalues --   -1.12864  -1.12847  -1.12762  -1.12718  -1.12692
 Alpha  occ. eigenvalues --   -0.18483  -0.13229  -0.12168  -0.10511
 Alpha virt. eigenvalues --   -0.06159  -0.05165  -0.04561  -0.03179  -0.02624
 Alpha virt. eigenvalues --   -0.02457  -0.01899  -0.01275  -0.00560  -0.00275
 Alpha virt. eigenvalues --   -0.00030   0.00310   0.00734   0.00824   0.00870

  Beta  occ. eigenvalues --  -38.44480 -38.44478 -38.43530 -38.43473 -38.43395
  Beta  occ. eigenvalues --  -38.43380 -38.43023  -2.20310  -2.20274  -2.19414
  Beta  occ. eigenvalues --   -2.19256  -2.19221  -2.19217  -2.18984  -1.13989
  Beta  occ. eigenvalues --   -1.13966  -1.13958  -1.13943  -1.13918  -1.13905
  Beta  occ. eigenvalues --   -1.13131  -1.13056  -1.13042  -1.12989  -1.12942
  Beta  occ. eigenvalues --   -1.12931  -1.12923  -1.12903  -1.12866  -1.12860
  Beta  occ. eigenvalues --   -1.12859  -1.12844  -1.12688  -1.12645  -1.12622
  Beta  occ. eigenvalues --   -0.17761  -0.13036  -0.11942
  Beta virt. eigenvalues --   -0.06569  -0.06097  -0.05179  -0.04531  -0.02426
  Beta virt. eigenvalues --   -0.01896  -0.01813  -0.01356  -0.01217  -0.00604
  Beta virt. eigenvalues --   -0.00306   0.00128   0.00342   0.00782   0.00831

 Mulliken charges and spin densities:
               1          2
     1  Na  -0.571670   0.815177
     2  Na   0.178372  -0.042266
     3  Na  -0.222547   0.355225
     4  Na   0.301178   0.000106
     5  Na   0.074048  -0.066545
     6  Na   0.251632  -0.011985
     7  Na  -0.011014  -0.049713
 Sum of Mulliken charges =  -0.00000   1.00000

 Dipole moment (field-independent basis, Debye):
    X=             -0.1239    Y=              0.2342    Z=              0.2061  Tot=              0.3357
 Quadrupole moment (field-independent basis, Debye-Ang):
   XX=            -52.5148   YY=            -63.6472   ZZ=            -76.1464
   XY=              1.7069   XZ=             -0.5412   YZ=              0.1569

 Normal termination of Gaussian 16 at Thu Dec  7 10:40:20 2023.
