 Gaussian 16, Revision B.01,
 Gaussian 16:  ES64L-G16RevB.01 20-Dec-2017

 -------------------------
 #P B3LYP/6-311+g(d) force
 -------------------------

 -----
 DPGEN
 -----
 Symbolic Z-matrix:
 Charge =  0 Multiplicity = 2

                         Standard orientation:
 ---------------------------------------------------------------------
 Center     Atomic      Atomic             Coordinates (Angstroms)
 Number     Number       Type             X           Y           Z
 ---------------------------------------------------------------------
      1         11           0       -1.174621   -3.074977   -1.626814
      2         11           0       -2.971268   -0.398225    0.667293
      3         11           0        2.477150    0.670440    1.231606
      4         11           0       -2.795269    3.203358   -0.490106
      5         11           0        5.215141    0.440796   -0.797626
      6         11           0       -0.316548   -1.407756    2.135661
      7         11           0       -0.434584    0.566363   -1.120014
 ---------------------------------------------------------------------

 SCF Done:  E(UB3LYP) =  -1136.11197941     A.U. after   24 cycles

 The electronic state is 2-A.
 Alpha  occ. eigenvalues --  -38.45178 -38.45036 -38.44837 -38.44393 -38.43926
 Alpha  occ. eigenvalues --  -38.43796 -38.43011  -2.21028  -2.20791  -2.20679
 Alpha  occ. eigenvalues --   -2.20188  -2.19722  -2.19657  -2.18781  -1.14749
 Alpha  occ. eigenvalues --   -1.14726  -1.14608  -1.14450  -1.14449  -1.14415
 Alpha  occ. eigenvalues --   -1.14378  -1.14353  -1.14280  -1.13844  -1.13836
 Alpha  occ. eigenvalues --   -1.13784  -1.13413  -1.13396  -1.13358  -1.13336
 Alpha  occ. eigenvalues --   -1.13296  -1.13257  -1.12456  -1.12454  -1.12412
 Alpha  occ. eigenvalues --   -0.17406  -0.13215  -0.11643  -0.11198
 Alpha virt. eigenvalues --   -0.07429  -0.05407  -0.04265  -0.03160  -0.02771
 Alpha virt. eigenvalues --   -0.02709  -0.02424  -0.01433  -0.01232  -0.00810
 Alpha virt. eigenvalues --   -0.00357  -0.00165   0.00018   0.00542   0.00628

  Beta  occ. eigenvalues --  -38.45176 -38.45006 -38.44824 -38.44304 -38.43920
  Beta  occ. eigenvalues --  -38.43731 -38.43021  -2.21028  -2.20733  -2.20657
  Beta  occ. eigenvalues --   -2.20022  -2.19715  -2.19537  -2.18800  -1.14749
  Beta  occ. eigenvalues --   -1.14698  -1.14619  -1.14410  -1.14409  -1.14379
  Beta  occ. eigenvalues --   -1.14353  -1.14332  -1.14264  -1.13730  -1.13716
  Beta  occ. eigenvalues --   -1.13679  -1.13414  -1.13393  -1.13320  -1.13255
  Beta  occ. eigenvalues --   -1.13218  -1.13172  -1.12469  -1.12467  -1.12424
  Beta  occ. eigenvalues --   -0.16819  -0.12894  -0.11398
  Beta virt. eigenvalues --   -0.07542  -0.07048  -0.05056  -0.04045  -0.02950
  Beta virt. eigenvalues --   -0.02460  -0.02323  -0.02026  -0.01179  -0.00746
  Beta virt. eigenvalues --   -0.00661  -0.00214   0.00041   0.00085   0.00608

 Mulliken charges and spin densities:
               1          2
     1  Na  -0.108125   0.316391
     2  Na   0.558441   0.159700
     3  Na   0.051192  -0.056915
     4  Na   0.098661  -0.135482
     5  Na   0.001595   0.195165
     6  Na  -0.022865   0.160223
     7  Na  -0.578899   0.360918
 Sum of Mulliken charges =  -0.00000   1.00000

 Dipole moment (field-independent basis, Debye):
    X=              0.2833    Y=             -0.8202    Z=             -0.0437  Tot=              0.8689
 Quadrupole moment (field-independent basis, Debye-Ang):
   XX=            -56.1256   YY=            -69.4380   ZZ=            -69.7731
   XY=              1.4825   XZ=             -7.2866   YZ=              1.3153

 Normal termination of Gaussian 16 at Wed Nov 29 01:25:15 2023.
