 Gaussian 16, Revision B.01,
 Gaussian 16:  ES64L-G16RevB.01 20-Dec-2017

 -------------------------
 #P B3LYP/6-311+g(d) force
 -------------------------

 -----
 DPGEN
 -----
 Symbolic Z-matrix:
 Charge =  0 Multiplicity = 2

                         Standard orientation:
 ---------------------------------------------------------------------
 Center     Atomic      Atomic             Coordinates (Angstroms)
 Number     Number       Type             X           Y           Z
 ---------------------------------------------------------------------
      1         11           0        0.672450   -2.610788    0.543763
      2         11           0       -2.597564   -1.735643   -0.312507
      3         11           0        0.256811    0.493259    2.101687
      4         11           0       -2.598068    1.608372   -0.131216
      5         11           0       -0.064143   -0.168471   -1.491025
      6         11           0        3.521518   -0.244777   -0.582019
      7         11           0        0.808996    2.658049   -0.128682
 ---------------------------------------------------------------------

 SCF Done:  E(UB3LYP) =  -1136.13457168     A.U. after   20 cycles

 The electronic state is 2-A.
 Alpha  occ. eigenvalues --  -38.44541 -38.43762 -38.43642 -38.43526 -38.43337
 Alpha  occ. eigenvalues --  -38.43277 -38.43252  -2.20308  -2.19616  -2.19545
 Alpha  occ. eigenvalues --   -2.19389  -2.19258  -2.19219  -2.19138  -1.13982
 Alpha  occ. eigenvalues --   -1.13958  -1.13939  -1.13305  -1.13291  -1.13252
 Alpha  occ. eigenvalues --   -1.13224  -1.13191  -1.13152  -1.13106  -1.13043
 Alpha  occ. eigenvalues --   -1.13024  -1.12977  -1.12953  -1.12893  -1.12876
 Alpha  occ. eigenvalues --   -1.12847  -1.12815  -1.12812  -1.12794  -1.12747
 Alpha  occ. eigenvalues --   -0.18631  -0.12936  -0.12431  -0.10839
 Alpha virt. eigenvalues --   -0.05982  -0.04954  -0.04474  -0.03115  -0.02993
 Alpha virt. eigenvalues --   -0.02509  -0.01907  -0.01035  -0.00282  -0.00227
 Alpha virt. eigenvalues --   -0.00028   0.00294   0.00773   0.00841   0.00904

  Beta  occ. eigenvalues --  -38.44523 -38.43758 -38.43544 -38.43523 -38.43331
  Beta  occ. eigenvalues --  -38.43262 -38.43207  -2.20275  -2.19612  -2.19387
  Beta  occ. eigenvalues --   -2.19363  -2.19211  -2.19176  -2.19113  -1.13948
  Beta  occ. eigenvalues --   -1.13936  -1.13919  -1.13302  -1.13280  -1.13239
  Beta  occ. eigenvalues --   -1.13115  -1.13094  -1.13063  -1.13038  -1.13027
  Beta  occ. eigenvalues --   -1.13014  -1.12943  -1.12904  -1.12858  -1.12836
  Beta  occ. eigenvalues --   -1.12813  -1.12792  -1.12780  -1.12754  -1.12734
  Beta  occ. eigenvalues --   -0.17944  -0.12631  -0.12209
  Beta virt. eigenvalues --   -0.06991  -0.05836  -0.04935  -0.04401  -0.02465
  Beta virt. eigenvalues --   -0.02239  -0.01748  -0.01496  -0.00997  -0.00301
  Beta virt. eigenvalues --   -0.00189   0.00098   0.00343   0.00836   0.00844

 Mulliken charges and spin densities:
               1          2
     1  Na   0.148462   0.098470
     2  Na   0.225776  -0.000016
     3  Na  -0.362321   0.522032
     4  Na   0.191752  -0.012082
     5  Na  -0.453422   0.355359
     6  Na  -0.000113   0.041173
     7  Na   0.249866  -0.004937
 Sum of Mulliken charges =  -0.00000   1.00000

 Dipole moment (field-independent basis, Debye):
    X=              0.2203    Y=              0.1013    Z=              0.1404  Tot=              0.2801
 Quadrupole moment (field-independent basis, Debye-Ang):
   XX=            -54.4973   YY=            -64.9499   ZZ=            -73.5400
   XY=             -0.1946   XZ=             -0.9188   YZ=             -1.1211

 Normal termination of Gaussian 16 at Thu Dec  7 14:00:02 2023.
