 Gaussian 16, Revision B.01,
 Gaussian 16:  ES64L-G16RevB.01 20-Dec-2017

 -------------------------
 #P B3LYP/6-311+g(d) force
 -------------------------

 -----
 DPGEN
 -----
 Symbolic Z-matrix:
 Charge =  0 Multiplicity = 2

                         Standard orientation:
 ---------------------------------------------------------------------
 Center     Atomic      Atomic             Coordinates (Angstroms)
 Number     Number       Type             X           Y           Z
 ---------------------------------------------------------------------
      1         11           0       -3.163832   -0.869031   -0.733934
      2         11           0        2.001909    2.904519   -0.618020
      3         11           0       -1.503805    2.208584    0.685905
      4         11           0       -0.452550   -0.135514   -2.049855
      5         11           0        2.442184   -0.501932    0.715811
      6         11           0       -0.870908   -0.620852    2.408406
      7         11           0        1.547001   -2.985774   -0.408313
 ---------------------------------------------------------------------

 SCF Done:  E(UB3LYP) =  -1136.12406191     A.U. after   20 cycles

 The electronic state is 2-A.
 Alpha  occ. eigenvalues --  -38.44995 -38.44557 -38.44218 -38.43973 -38.43803
 Alpha  occ. eigenvalues --  -38.43591 -38.43163  -2.20822  -2.20418  -2.20030
 Alpha  occ. eigenvalues --   -2.19798  -2.19642  -2.19468  -2.18935  -1.14489
 Alpha  occ. eigenvalues --   -1.14440  -1.14435  -1.14105  -1.14056  -1.14042
 Alpha  occ. eigenvalues --   -1.13733  -1.13698  -1.13633  -1.13488  -1.13482
 Alpha  occ. eigenvalues --   -1.13445  -1.13418  -1.13283  -1.13267  -1.13131
 Alpha  occ. eigenvalues --   -1.13108  -1.13042  -1.12607  -1.12598  -1.12573
 Alpha  occ. eigenvalues --   -0.17823  -0.12938  -0.11976  -0.11754
 Alpha virt. eigenvalues --   -0.05572  -0.05212  -0.04595  -0.03679  -0.03463
 Alpha virt. eigenvalues --   -0.03114  -0.01367  -0.01103  -0.00506  -0.00064
 Alpha virt. eigenvalues --   -0.00020   0.00383   0.00512   0.00683   0.00756

  Beta  occ. eigenvalues --  -38.44893 -38.44485 -38.44203 -38.43961 -38.43807
  Beta  occ. eigenvalues --  -38.43586 -38.43160  -2.20634  -2.20285  -2.20006
  Beta  occ. eigenvalues --   -2.19780  -2.19650  -2.19461  -2.18929  -1.14358
  Beta  occ. eigenvalues --   -1.14314  -1.14300  -1.14019  -1.13959  -1.13946
  Beta  occ. eigenvalues --   -1.13704  -1.13671  -1.13621  -1.13488  -1.13459
  Beta  occ. eigenvalues --   -1.13434  -1.13402  -1.13277  -1.13273  -1.13117
  Beta  occ. eigenvalues --   -1.13095  -1.13043  -1.12600  -1.12594  -1.12570
  Beta  occ. eigenvalues --   -0.17038  -0.12770  -0.11645
  Beta virt. eigenvalues --   -0.07929  -0.05443  -0.04902  -0.04424  -0.03044
  Beta virt. eigenvalues --   -0.02632  -0.02531  -0.01281  -0.01042  -0.00245
  Beta virt. eigenvalues --   -0.00094   0.00090   0.00445   0.00687   0.00786

 Mulliken charges and spin densities:
               1          2
     1  Na  -0.057612  -0.128070
     2  Na   0.118928  -0.098235
     3  Na  -0.264972   0.086806
     4  Na   0.240005   0.663250
     5  Na  -0.255341   0.176006
     6  Na   0.236126   0.445292
     7  Na  -0.017134  -0.145048
 Sum of Mulliken charges =  -0.00000   1.00000

 Dipole moment (field-independent basis, Debye):
    X=             -0.8403    Y=             -0.5194    Z=              0.1447  Tot=              0.9984
 Quadrupole moment (field-independent basis, Debye-Ang):
   XX=            -64.7498   YY=            -66.1032   ZZ=            -67.3807
   XY=              0.3750   XZ=             -1.0967   YZ=              0.3507

 Normal termination of Gaussian 16 at Sun Dec  3 17:21:52 2023.
