 Gaussian 16, Revision B.01,
 Gaussian 16:  ES64L-G16RevB.01 20-Dec-2017

 -------------------------
 #P B3LYP/6-311+g(d) force
 -------------------------

 -----
 DPGEN
 -----
 Symbolic Z-matrix:
 Charge =  0 Multiplicity = 2

                         Standard orientation:
 ---------------------------------------------------------------------
 Center     Atomic      Atomic             Coordinates (Angstroms)
 Number     Number       Type             X           Y           Z
 ---------------------------------------------------------------------
      1         11           0        0.900928   -2.075314   -0.892000
      2         11           0        0.879115   -1.028431    2.215760
      3         11           0       -4.944836   -0.274800   -0.396835
      4         11           0       -2.110331   -0.196075    0.222452
      5         11           0        3.986778   -0.158453   -0.160571
      6         11           0        0.153770    2.653475    0.892200
      7         11           0        1.134576    1.079598   -1.881006
 ---------------------------------------------------------------------

 SCF Done:  E(UB3LYP) =  -1136.10799242     A.U. after   36 cycles

 The electronic state is 2-A.
 Alpha  occ. eigenvalues --  -38.46328 -38.44748 -38.44476 -38.44435 -38.43813
 Alpha  occ. eigenvalues --  -38.42983 -38.42528  -2.22082  -2.20567  -2.20329
 Alpha  occ. eigenvalues --   -2.20293  -2.19682  -2.18869  -2.18350  -1.15764
 Alpha  occ. eigenvalues --   -1.15734  -1.15709  -1.14279  -1.14191  -1.14186
 Alpha  occ. eigenvalues --   -1.14031  -1.13996  -1.13967  -1.13947  -1.13910
 Alpha  occ. eigenvalues --   -1.13890  -1.13378  -1.13330  -1.13291  -1.12579
 Alpha  occ. eigenvalues --   -1.12548  -1.12483  -1.12011  -1.12005  -1.11993
 Alpha  occ. eigenvalues --   -0.17993  -0.13439  -0.11535  -0.11055
 Alpha virt. eigenvalues --   -0.08056  -0.04252  -0.04020  -0.03406  -0.03139
 Alpha virt. eigenvalues --   -0.02956  -0.02492  -0.01205  -0.00837  -0.00773
 Alpha virt. eigenvalues --   -0.00170  -0.00028   0.00140   0.00645   0.00954

  Beta  occ. eigenvalues --  -38.46324 -38.44706 -38.44416 -38.44383 -38.43784
  Beta  occ. eigenvalues --  -38.42978 -38.42509  -2.22078  -2.20489  -2.20261
  Beta  occ. eigenvalues --   -2.20157  -2.19630  -2.18866  -2.18315  -1.15751
  Beta  occ. eigenvalues --   -1.15726  -1.15709  -1.14228  -1.14137  -1.14133
  Beta  occ. eigenvalues --   -1.13983  -1.13945  -1.13877  -1.13854  -1.13838
  Beta  occ. eigenvalues --   -1.13798  -1.13344  -1.13298  -1.13242  -1.12569
  Beta  occ. eigenvalues --   -1.12515  -1.12487  -1.11986  -1.11984  -1.11963
  Beta  occ. eigenvalues --   -0.17305  -0.12903  -0.10874
  Beta virt. eigenvalues --   -0.08066  -0.07629  -0.03933  -0.03656  -0.03035
  Beta virt. eigenvalues --   -0.02814  -0.02740  -0.01821  -0.00900  -0.00690
  Beta virt. eigenvalues --   -0.00608  -0.00096   0.00135   0.00145   0.00714

 Mulliken charges and spin densities:
               1          2
     1  Na   0.877361  -0.005709
     2  Na   1.500555   0.042693
     3  Na  -1.540726   0.310550
     4  Na  -1.302105   0.484184
     5  Na  -0.437247   0.029668
     6  Na   0.267119  -0.026068
     7  Na   0.635043   0.164682
 Sum of Mulliken charges =  -0.00000   1.00000

 Dipole moment (field-independent basis, Debye):
    X=              1.6016    Y=             -0.2115    Z=              0.1619  Tot=              1.6236
 Quadrupole moment (field-independent basis, Debye-Ang):
   XX=            -48.2384   YY=            -79.2577   ZZ=            -65.9167
   XY=              0.5646   XZ=              4.0831   YZ=              3.5577

 Normal termination of Gaussian 16 at Fri Dec  8 00:09:28 2023.
