 Gaussian 16, Revision B.01,
 Gaussian 16:  ES64L-G16RevB.01 20-Dec-2017

 -------------------------
 #P B3LYP/6-311+g(d) force
 -------------------------

 -----
 DPGEN
 -----
 Symbolic Z-matrix:
 Charge =  0 Multiplicity = 2

                         Standard orientation:
 ---------------------------------------------------------------------
 Center     Atomic      Atomic             Coordinates (Angstroms)
 Number     Number       Type             X           Y           Z
 ---------------------------------------------------------------------
      1         11           0       -0.477351    2.955400   -0.554577
      2         11           0       -5.212435   -0.437228    1.505153
      3         11           0       -3.019469    0.630460   -0.641234
      4         11           0       -1.013585   -2.266317   -1.635338
      5         11           0        0.367433   -0.309091    0.120384
      6         11           0        3.231707   -0.816778    1.189488
      7         11           0        6.123699    0.243554    0.016124
 ---------------------------------------------------------------------

 SCF Done:  E(UB3LYP) =  -1136.10111506     A.U. after   27 cycles

 The electronic state is 2-A.
 Alpha  occ. eigenvalues --  -38.45976 -38.45238 -38.44404 -38.43908 -38.43834
 Alpha  occ. eigenvalues --  -38.43608 -38.43289  -2.21807  -2.21090  -2.20145
 Alpha  occ. eigenvalues --   -2.19770  -2.19738  -2.19399  -2.19152  -1.15437
 Alpha  occ. eigenvalues --   -1.15423  -1.15422  -1.14774  -1.14715  -1.14699
 Alpha  occ. eigenvalues --   -1.13822  -1.13820  -1.13809  -1.13536  -1.13455
 Alpha  occ. eigenvalues --   -1.13426  -1.13391  -1.13375  -1.13316  -1.13058
 Alpha  occ. eigenvalues --   -1.13046  -1.13043  -1.12847  -1.12838  -1.12776
 Alpha  occ. eigenvalues --   -0.17430  -0.13423  -0.12520  -0.11296
 Alpha virt. eigenvalues --   -0.07260  -0.05114  -0.04337  -0.03777  -0.03316
 Alpha virt. eigenvalues --   -0.02273  -0.02058  -0.01552  -0.01173  -0.00797
 Alpha virt. eigenvalues --   -0.00645  -0.00390   0.00320   0.00366   0.00493

  Beta  occ. eigenvalues --  -38.45848 -38.45157 -38.44443 -38.43898 -38.43840
  Beta  occ. eigenvalues --  -38.43562 -38.43289  -2.21569  -2.20939  -2.20219
  Beta  occ. eigenvalues --   -2.19789  -2.19717  -2.19313  -2.19161  -1.15274
  Beta  occ. eigenvalues --   -1.15262  -1.15261  -1.14676  -1.14611  -1.14596
  Beta  occ. eigenvalues --   -1.13872  -1.13870  -1.13855  -1.13543  -1.13446
  Beta  occ. eigenvalues --   -1.13413  -1.13372  -1.13362  -1.13326  -1.13003
  Beta  occ. eigenvalues --   -1.12988  -1.12985  -1.12854  -1.12818  -1.12760
  Beta  occ. eigenvalues --   -0.16594  -0.13414  -0.10898
  Beta virt. eigenvalues --   -0.08459  -0.07226  -0.04337  -0.04171  -0.03304
  Beta virt. eigenvalues --   -0.02935  -0.02016  -0.01657  -0.01532  -0.00983
  Beta virt. eigenvalues --   -0.00641  -0.00338  -0.00151   0.00349   0.00563

 Mulliken charges and spin densities:
               1          2
     1  Na   0.668819   0.505594
     2  Na   0.328861   0.262422
     3  Na   0.453578   0.000063
     4  Na   1.083345   0.390951
     5  Na  -1.389642   0.152692
     6  Na  -1.241043  -0.089731
     7  Na   0.096082  -0.221991
 Sum of Mulliken charges =  -0.00000   1.00000

 Dipole moment (field-independent basis, Debye):
    X=              0.7951    Y=              0.3306    Z=             -1.0693  Tot=              1.3729
 Quadrupole moment (field-independent basis, Debye-Ang):
   XX=            -74.6140   YY=            -62.3177   ZZ=            -66.8135
   XY=              7.1535   XZ=             -2.9017   YZ=             -0.9543

 Normal termination of Gaussian 16 at Tue Nov 28 21:56:11 2023.
