 Gaussian 16, Revision B.01,
 Gaussian 16:  ES64L-G16RevB.01 20-Dec-2017

 -------------------------
 #P B3LYP/6-311+g(d) force
 -------------------------

 -----
 DPGEN
 -----
 Symbolic Z-matrix:
 Charge =  0 Multiplicity = 2

                         Standard orientation:
 ---------------------------------------------------------------------
 Center     Atomic      Atomic             Coordinates (Angstroms)
 Number     Number       Type             X           Y           Z
 ---------------------------------------------------------------------
      1         11           0       -0.196926    0.064376   -1.724138
      2         11           0        0.402405   -2.216306    0.097625
      3         11           0       -2.461003   -1.184264   -0.101540
      4         11           0       -1.827835    1.699130    0.310512
      5         11           0        1.076001    2.003059   -0.235521
      6         11           0        0.369358    0.041443    1.837441
      7         11           0        2.638000   -0.407437   -0.184379
 ---------------------------------------------------------------------

 SCF Done:  E(UB3LYP) =  -1136.10099872     A.U. after   19 cycles

 The electronic state is 2-A.
 Alpha  occ. eigenvalues --  -38.43958 -38.43846 -38.43807 -38.43611 -38.43340
 Alpha  occ. eigenvalues --  -38.43315 -38.43114  -2.20113  -2.20060  -2.19873
 Alpha  occ. eigenvalues --   -2.19604  -2.19460  -2.19386  -2.19219  -1.13946
 Alpha  occ. eigenvalues --   -1.13861  -1.13813  -1.13762  -1.13734  -1.13700
 Alpha  occ. eigenvalues --   -1.13604  -1.13552  -1.13469  -1.13334  -1.13290
 Alpha  occ. eigenvalues --   -1.13236  -1.13189  -1.13066  -1.13058  -1.13017
 Alpha  occ. eigenvalues --   -1.13002  -1.12915  -1.12886  -1.12852  -1.12791
 Alpha  occ. eigenvalues --   -0.21165  -0.13801  -0.12845  -0.12012
 Alpha virt. eigenvalues --   -0.05221  -0.04465  -0.04061  -0.03629  -0.03145
 Alpha virt. eigenvalues --   -0.02830  -0.01158  -0.00549  -0.00074   0.00363
 Alpha virt. eigenvalues --    0.00636   0.00696   0.01008   0.01119   0.01127

  Beta  occ. eigenvalues --  -38.43864 -38.43796 -38.43758 -38.43606 -38.43328
  Beta  occ. eigenvalues --  -38.43297 -38.43100  -2.19944  -2.19903  -2.19858
  Beta  occ. eigenvalues --   -2.19598  -2.19434  -2.19369  -2.19199  -1.13866
  Beta  occ. eigenvalues --   -1.13757  -1.13694  -1.13668  -1.13636  -1.13593
  Beta  occ. eigenvalues --   -1.13589  -1.13505  -1.13406  -1.13330  -1.13282
  Beta  occ. eigenvalues --   -1.13199  -1.13171  -1.13047  -1.12999  -1.12983
  Beta  occ. eigenvalues --   -1.12958  -1.12906  -1.12875  -1.12789  -1.12779
  Beta  occ. eigenvalues --   -0.20348  -0.13467  -0.12494
  Beta virt. eigenvalues --   -0.07847  -0.05228  -0.04452  -0.04055  -0.02714
  Beta virt. eigenvalues --   -0.02231  -0.01719  -0.01083  -0.00506   0.00073
  Beta virt. eigenvalues --    0.00388   0.00605   0.00667   0.01043   0.01117

 Mulliken charges and spin densities:
               1          2
     1  Na  -0.315508   0.390329
     2  Na   0.225224   0.078819
     3  Na  -0.028404  -0.033915
     4  Na   0.115117   0.047363
     5  Na   0.256234   0.065216
     6  Na  -0.371201   0.486679
     7  Na   0.118540  -0.034491
 Sum of Mulliken charges =  -0.00000   1.00000

 Dipole moment (field-independent basis, Debye):
    X=             -0.1563    Y=             -0.0872    Z=              0.1387  Tot=              0.2264
 Quadrupole moment (field-independent basis, Debye-Ang):
   XX=            -58.9041   YY=            -68.8368   ZZ=            -69.2339
   XY=             -0.0260   XZ=             -1.0403   YZ=              0.3173

 Normal termination of Gaussian 16 at Fri Dec  8 19:50:46 2023.
