 Gaussian 16, Revision B.01,
 Gaussian 16:  ES64L-G16RevB.01 20-Dec-2017

 -------------------------
 #P B3LYP/6-311+g(d) force
 -------------------------

 -----
 DPGEN
 -----
 Symbolic Z-matrix:
 Charge =  0 Multiplicity = 2

                         Standard orientation:
 ---------------------------------------------------------------------
 Center     Atomic      Atomic             Coordinates (Angstroms)
 Number     Number       Type             X           Y           Z
 ---------------------------------------------------------------------
      1         11           0       -2.811479    1.828433   -0.103602
      2         11           0        2.998780    0.432827   -0.075651
      3         11           0       -0.076081   -0.304577   -1.353128
      4         11           0        0.997094    2.766211   -0.137033
      5         11           0        1.906299   -2.279105   -0.016092
      6         11           0       -0.512751   -0.355971    2.119968
      7         11           0       -2.501863   -2.087818   -0.434461
 ---------------------------------------------------------------------

 SCF Done:  E(UB3LYP) =  -1136.12682036     A.U. after   21 cycles

 The electronic state is 2-A.
 Alpha  occ. eigenvalues --  -38.44756 -38.44297 -38.43921 -38.43859 -38.43518
 Alpha  occ. eigenvalues --  -38.43327 -38.43025  -2.20520  -2.20116  -2.19854
 Alpha  occ. eigenvalues --   -2.19761  -2.19381  -2.19172  -2.19051  -1.14201
 Alpha  occ. eigenvalues --   -1.14173  -1.14158  -1.13819  -1.13765  -1.13738
 Alpha  occ. eigenvalues --   -1.13683  -1.13537  -1.13486  -1.13437  -1.13381
 Alpha  occ. eigenvalues --   -1.13334  -1.13050  -1.13003  -1.12993  -1.12860
 Alpha  occ. eigenvalues --   -1.12833  -1.12802  -1.12740  -1.12687  -1.12681
 Alpha  occ. eigenvalues --   -0.18596  -0.13459  -0.12204  -0.10460
 Alpha virt. eigenvalues --   -0.06172  -0.05623  -0.04324  -0.03312  -0.02542
 Alpha virt. eigenvalues --   -0.02367  -0.01821  -0.01475  -0.00525  -0.00329
 Alpha virt. eigenvalues --   -0.00014   0.00308   0.00712   0.00748   0.00898

  Beta  occ. eigenvalues --  -38.44754 -38.44283 -38.43917 -38.43854 -38.43415
  Beta  occ. eigenvalues --  -38.43326 -38.42978  -2.20520  -2.20094  -2.19851
  Beta  occ. eigenvalues --   -2.19755  -2.19191  -2.19171  -2.18967  -1.14185
  Beta  occ. eigenvalues --   -1.14173  -1.14161  -1.13796  -1.13736  -1.13726
  Beta  occ. eigenvalues --   -1.13686  -1.13536  -1.13461  -1.13430  -1.13352
  Beta  occ. eigenvalues --   -1.13334  -1.12924  -1.12872  -1.12859  -1.12856
  Beta  occ. eigenvalues --   -1.12823  -1.12797  -1.12670  -1.12624  -1.12620
  Beta  occ. eigenvalues --   -0.17915  -0.13220  -0.11999
  Beta virt. eigenvalues --   -0.06536  -0.06158  -0.05540  -0.04302  -0.02536
  Beta virt. eigenvalues --   -0.01872  -0.01721  -0.01409  -0.01284  -0.00571
  Beta virt. eigenvalues --   -0.00352   0.00166   0.00362   0.00751   0.00798

 Mulliken charges and spin densities:
               1          2
     1  Na   0.041568  -0.005120
     2  Na  -0.003789   0.054502
     3  Na  -0.662419   0.051173
     4  Na   0.150220   0.036540
     5  Na   0.816154   0.142022
     6  Na  -0.615233   0.691333
     7  Na   0.273499   0.029550
 Sum of Mulliken charges =  -0.00000   1.00000

 Dipole moment (field-independent basis, Debye):
    X=             -0.7427    Y=             -0.1097    Z=              0.1612  Tot=              0.7679
 Quadrupole moment (field-independent basis, Debye-Ang):
   XX=            -53.7142   YY=            -62.8857   ZZ=            -76.4310
   XY=             -1.0355   XZ=              0.8224   YZ=              0.1398

 Normal termination of Gaussian 16 at Thu Dec  7 15:09:50 2023.
