 Gaussian 16, Revision B.01,
 Gaussian 16:  ES64L-G16RevB.01 20-Dec-2017

 -------------------------
 #P B3LYP/6-311+g(d) force
 -------------------------

 -----
 DPGEN
 -----
 Symbolic Z-matrix:
 Charge =  0 Multiplicity = 2

                         Standard orientation:
 ---------------------------------------------------------------------
 Center     Atomic      Atomic             Coordinates (Angstroms)
 Number     Number       Type             X           Y           Z
 ---------------------------------------------------------------------
      1         11           0       -2.411572   -2.038636    0.255769
      2         11           0       -2.740553    1.439393   -0.251929
      3         11           0        0.294283    2.630763   -0.424155
      4         11           0        1.513933   -2.028959    0.149628
      5         11           0        3.943116    0.324783    0.025019
      6         11           0       -0.347192    0.391027    2.228092
      7         11           0       -0.252015   -0.718371   -1.982424
 ---------------------------------------------------------------------

 SCF Done:  E(UB3LYP) =  -1136.12843390     A.U. after   21 cycles

 The electronic state is 2-A.
 Alpha  occ. eigenvalues --  -38.44975 -38.44248 -38.43988 -38.43933 -38.43608
 Alpha  occ. eigenvalues --  -38.43402 -38.43142  -2.20719  -2.20099  -2.19843
 Alpha  occ. eigenvalues --   -2.19837  -2.19439  -2.19271  -2.18976  -1.14393
 Alpha  occ. eigenvalues --   -1.14384  -1.14356  -1.13761  -1.13727  -1.13721
 Alpha  occ. eigenvalues --   -1.13552  -1.13521  -1.13503  -1.13488  -1.13463
 Alpha  occ. eigenvalues --   -1.13450  -1.13108  -1.13099  -1.13080  -1.12981
 Alpha  occ. eigenvalues --   -1.12943  -1.12862  -1.12657  -1.12643  -1.12602
 Alpha  occ. eigenvalues --   -0.18238  -0.12985  -0.11886  -0.11183
 Alpha virt. eigenvalues --   -0.06602  -0.04916  -0.04038  -0.03404  -0.03199
 Alpha virt. eigenvalues --   -0.02808  -0.02116  -0.01145  -0.00287  -0.00195
 Alpha virt. eigenvalues --    0.00007   0.00268   0.00396   0.00702   0.00869

  Beta  occ. eigenvalues --  -38.44983 -38.44156 -38.43981 -38.43863 -38.43602
  Beta  occ. eigenvalues --  -38.43393 -38.43132  -2.20735  -2.19929  -2.19833
  Beta  occ. eigenvalues --   -2.19708  -2.19431  -2.19259  -2.18958  -1.14401
  Beta  occ. eigenvalues --   -1.14394  -1.14367  -1.13649  -1.13609  -1.13597
  Beta  occ. eigenvalues --   -1.13506  -1.13489  -1.13471  -1.13465  -1.13378
  Beta  occ. eigenvalues --   -1.13358  -1.13102  -1.13079  -1.13067  -1.12964
  Beta  occ. eigenvalues --   -1.12913  -1.12859  -1.12647  -1.12610  -1.12594
  Beta  occ. eigenvalues --   -0.17444  -0.12864  -0.11687
  Beta virt. eigenvalues --   -0.07219  -0.06484  -0.04925  -0.03866  -0.02683
  Beta virt. eigenvalues --   -0.02456  -0.02060  -0.01812  -0.01104  -0.00300
  Beta virt. eigenvalues --   -0.00041   0.00004   0.00295   0.00635   0.00778

 Mulliken charges and spin densities:
               1          2
     1  Na   0.343611   0.003006
     2  Na   0.273875   0.009095
     3  Na  -0.083757  -0.015612
     4  Na   0.245721   0.045739
     5  Na  -0.049592  -0.139619
     6  Na  -0.508835   0.640944
     7  Na  -0.221023   0.456446
 Sum of Mulliken charges =  -0.00000   1.00000

 Dipole moment (field-independent basis, Debye):
    X=              0.2257    Y=              0.1382    Z=              0.0988  Tot=              0.2825
 Quadrupole moment (field-independent basis, Debye-Ang):
   XX=            -52.3780   YY=            -71.1770   ZZ=            -71.0165
   XY=              2.3469   XZ=             -0.0748   YZ=             -1.8965

 Normal termination of Gaussian 16 at Sun Dec  3 22:46:17 2023.
