 Gaussian 16, Revision B.01,
 Gaussian 16:  ES64L-G16RevB.01 20-Dec-2017

 -------------------------
 #P B3LYP/6-311+g(d) force
 -------------------------

 -----
 DPGEN
 -----
 Symbolic Z-matrix:
 Charge =  0 Multiplicity = 2

                         Standard orientation:
 ---------------------------------------------------------------------
 Center     Atomic      Atomic             Coordinates (Angstroms)
 Number     Number       Type             X           Y           Z
 ---------------------------------------------------------------------
      1         11           0        2.550903    1.641378   -0.579217
      2         11           0        2.811798   -2.480271   -0.513124
      3         11           0       -2.806623   -2.740586   -0.884210
      4         11           0       -0.317089   -0.467160   -1.131089
      5         11           0        1.201802    0.059873    2.725741
      6         11           0       -2.444479    0.796037    1.944032
      7         11           0       -0.996312    3.190729   -1.562134
 ---------------------------------------------------------------------

 SCF Done:  E(UB3LYP) =  -1136.11117029     A.U. after   22 cycles

 The electronic state is 2-A.
 Alpha  occ. eigenvalues --  -38.45697 -38.45227 -38.44479 -38.44421 -38.43898
 Alpha  occ. eigenvalues --  -38.43837 -38.43244  -2.21472  -2.20967  -2.20208
 Alpha  occ. eigenvalues --   -2.20184  -2.19656  -2.19592  -2.19107  -1.15126
 Alpha  occ. eigenvalues --   -1.15118  -1.15068  -1.14639  -1.14612  -1.14596
 Alpha  occ. eigenvalues --   -1.13890  -1.13881  -1.13874  -1.13865  -1.13839
 Alpha  occ. eigenvalues --   -1.13785  -1.13331  -1.13310  -1.13289  -1.13269
 Alpha  occ. eigenvalues --   -1.13238  -1.13222  -1.12818  -1.12748  -1.12742
 Alpha  occ. eigenvalues --   -0.16780  -0.12192  -0.11972  -0.11463
 Alpha virt. eigenvalues --   -0.06422  -0.05421  -0.05012  -0.03519  -0.02882
 Alpha virt. eigenvalues --   -0.02852  -0.01693  -0.01525  -0.01027  -0.00291
 Alpha virt. eigenvalues --   -0.00188   0.00017   0.00242   0.00314   0.00519

  Beta  occ. eigenvalues --  -38.45596 -38.45185 -38.44485 -38.44420 -38.43883
  Beta  occ. eigenvalues --  -38.43812 -38.43219  -2.21285  -2.20891  -2.20219
  Beta  occ. eigenvalues --   -2.20182  -2.19628  -2.19547  -2.19063  -1.15002
  Beta  occ. eigenvalues --   -1.14993  -1.14926  -1.14581  -1.14564  -1.14536
  Beta  occ. eigenvalues --   -1.13894  -1.13882  -1.13871  -1.13867  -1.13848
  Beta  occ. eigenvalues --   -1.13783  -1.13307  -1.13291  -1.13272  -1.13235
  Beta  occ. eigenvalues --   -1.13209  -1.13192  -1.12781  -1.12721  -1.12708
  Beta  occ. eigenvalues --   -0.16062  -0.11982  -0.11149
  Beta virt. eigenvalues --   -0.08148  -0.06263  -0.04917  -0.04800  -0.02914
  Beta virt. eigenvalues --   -0.02450  -0.02384  -0.01640  -0.01378  -0.00671
  Beta virt. eigenvalues --   -0.00147  -0.00115   0.00095   0.00334   0.00445

 Mulliken charges and spin densities:
               1          2
     1  Na   0.725035  -0.042793
     2  Na  -0.078588  -0.057451
     3  Na  -0.090109   0.164649
     4  Na  -0.527941   0.062654
     5  Na  -0.197841   0.502024
     6  Na   0.077521   0.241914
     7  Na   0.091923   0.129001
 Sum of Mulliken charges =  -0.00000   1.00000

 Dipole moment (field-independent basis, Debye):
    X=              0.3945    Y=              0.0598    Z=              0.9851  Tot=              1.0628
 Quadrupole moment (field-independent basis, Debye-Ang):
   XX=            -60.8400   YY=            -66.3625   ZZ=            -67.2019
   XY=             -1.8852   XZ=             -0.7787   YZ=              0.6057

 Normal termination of Gaussian 16 at Tue Dec  5 21:19:29 2023.
