 Gaussian 16, Revision B.01,
 Gaussian 16:  ES64L-G16RevB.01 20-Dec-2017

 -------------------------
 #P B3LYP/6-311+g(d) force
 -------------------------

 -----
 DPGEN
 -----
 Symbolic Z-matrix:
 Charge =  0 Multiplicity = 2

                         Standard orientation:
 ---------------------------------------------------------------------
 Center     Atomic      Atomic             Coordinates (Angstroms)
 Number     Number       Type             X           Y           Z
 ---------------------------------------------------------------------
      1         11           0       -3.295672    3.103041   -0.640186
      2         11           0        4.818342    0.131523    0.355291
      3         11           0        7.406359   -0.168023   -1.008467
      4         11           0        1.298516   -0.435333    1.824614
      5         11           0       -1.001908   -0.052892   -0.229202
      6         11           0       -4.821014    0.016554    0.677318
      7         11           0       -4.404624   -2.594870   -0.979367
 ---------------------------------------------------------------------

 SCF Done:  E(UB3LYP) =  -1136.10614699     A.U. after   20 cycles

 The electronic state is 2-A.
 Alpha  occ. eigenvalues --  -38.46182 -38.45196 -38.45016 -38.44130 -38.43442
 Alpha  occ. eigenvalues --  -38.43181 -38.43114  -2.21977  -2.21011  -2.20829
 Alpha  occ. eigenvalues --   -2.19941  -2.19252  -2.18999  -2.18928  -1.15614
 Alpha  occ. eigenvalues --   -1.15599  -1.15582  -1.14701  -1.14648  -1.14644
 Alpha  occ. eigenvalues --   -1.14502  -1.14476  -1.14466  -1.13643  -1.13617
 Alpha  occ. eigenvalues --   -1.13574  -1.12911  -1.12900  -1.12897  -1.12803
 Alpha  occ. eigenvalues --   -1.12643  -1.12642  -1.12584  -1.12581  -1.12483
 Alpha  occ. eigenvalues --   -0.16541  -0.13448  -0.12574  -0.11540
 Alpha virt. eigenvalues --   -0.06468  -0.06024  -0.04242  -0.03349  -0.02979
 Alpha virt. eigenvalues --   -0.02744  -0.02396  -0.01821  -0.01281  -0.00962
 Alpha virt. eigenvalues --   -0.00686  -0.00644  -0.00057   0.00312   0.00451

  Beta  occ. eigenvalues --  -38.46054 -38.45132 -38.45021 -38.44130 -38.43426
  Beta  occ. eigenvalues --  -38.43172 -38.43115  -2.21738  -2.20890  -2.20844
  Beta  occ. eigenvalues --   -2.19943  -2.19224  -2.18984  -2.18931  -1.15451
  Beta  occ. eigenvalues --   -1.15436  -1.15421  -1.14635  -1.14567  -1.14563
  Beta  occ. eigenvalues --   -1.14515  -1.14486  -1.14422  -1.13642  -1.13604
  Beta  occ. eigenvalues --   -1.13578  -1.12890  -1.12883  -1.12878  -1.12795
  Beta  occ. eigenvalues --   -1.12634  -1.12634  -1.12585  -1.12582  -1.12477
  Beta  occ. eigenvalues --   -0.15762  -0.13248  -0.11365
  Beta virt. eigenvalues --   -0.08622  -0.06315  -0.05382  -0.03879  -0.02983
  Beta virt. eigenvalues --   -0.02789  -0.02534  -0.01707  -0.01568  -0.01248
  Beta virt. eigenvalues --   -0.00613  -0.00594  -0.00436   0.00236   0.00356

 Mulliken charges and spin densities:
               1          2
     1  Na   0.204280   0.600557
     2  Na  -0.742456   0.034730
     3  Na   0.241921   0.010941
     4  Na   0.832164   0.066350
     5  Na  -1.265116  -0.007585
     6  Na   0.479990  -0.055525
     7  Na   0.249218   0.350532
 Sum of Mulliken charges =  -0.00000   1.00000

 Dipole moment (field-independent basis, Debye):
    X=             -3.9106    Y=              0.3507    Z=             -0.5874  Tot=              3.9700
 Quadrupole moment (field-independent basis, Debye-Ang):
   XX=            -70.8717   YY=            -63.2143   ZZ=            -66.0120
   XY=             -2.4991   XZ=             -2.0508   YZ=              1.3316

 Normal termination of Gaussian 16 at Mon Dec  4 03:13:11 2023.
