 Gaussian 16, Revision B.01,
 Gaussian 16:  ES64L-G16RevB.01 20-Dec-2017

 -------------------------
 #P B3LYP/6-311+g(d) force
 -------------------------

 -----
 DPGEN
 -----
 Symbolic Z-matrix:
 Charge =  0 Multiplicity = 2

                         Standard orientation:
 ---------------------------------------------------------------------
 Center     Atomic      Atomic             Coordinates (Angstroms)
 Number     Number       Type             X           Y           Z
 ---------------------------------------------------------------------
      1         11           0        1.764396   -2.045321    0.221270
      2         11           0        4.750448    0.282557   -0.112361
      3         11           0       -1.191102   -1.877050   -1.483512
      4         11           0        1.282838    1.803460    0.177332
      5         11           0       -1.741027    2.377293   -0.971552
      6         11           0       -3.734874   -0.477876    0.418709
      7         11           0       -1.130679   -0.063063    1.750114
 ---------------------------------------------------------------------

 SCF Done:  E(UB3LYP) =  -1136.11553428     A.U. after   28 cycles

 The electronic state is 2-A.
 Alpha  occ. eigenvalues --  -38.45961 -38.44288 -38.44129 -38.43908 -38.43757
 Alpha  occ. eigenvalues --  -38.43517 -38.43130  -2.21857  -2.20080  -2.19951
 Alpha  occ. eigenvalues --   -2.19735  -2.19660  -2.19330  -2.18979  -1.15590
 Alpha  occ. eigenvalues --   -1.15512  -1.15458  -1.13729  -1.13724  -1.13684
 Alpha  occ. eigenvalues --   -1.13623  -1.13609  -1.13601  -1.13414  -1.13388
 Alpha  occ. eigenvalues --   -1.13371  -1.13364  -1.13276  -1.13254  -1.13030
 Alpha  occ. eigenvalues --   -1.13006  -1.12942  -1.12695  -1.12661  -1.12575
 Alpha  occ. eigenvalues --   -0.17981  -0.13865  -0.11878  -0.10466
 Alpha virt. eigenvalues --   -0.07802  -0.05139  -0.03905  -0.03537  -0.03131
 Alpha virt. eigenvalues --   -0.02685  -0.01878  -0.01596  -0.00825  -0.00679
 Alpha virt. eigenvalues --   -0.00412   0.00017   0.00222   0.00636   0.00759

  Beta  occ. eigenvalues --  -38.45941 -38.44196 -38.44120 -38.43892 -38.43695
  Beta  occ. eigenvalues --  -38.43508 -38.43123  -2.21827  -2.19938  -2.19906
  Beta  occ. eigenvalues --   -2.19707  -2.19546  -2.19317  -2.18970  -1.15556
  Beta  occ. eigenvalues --   -1.15467  -1.15446  -1.13613  -1.13610  -1.13605
  Beta  occ. eigenvalues --   -1.13594  -1.13584  -1.13571  -1.13391  -1.13365
  Beta  occ. eigenvalues --   -1.13349  -1.13280  -1.13205  -1.13180  -1.13025
  Beta  occ. eigenvalues --   -1.12993  -1.12914  -1.12694  -1.12645  -1.12558
  Beta  occ. eigenvalues --   -0.17585  -0.13116  -0.11518
  Beta virt. eigenvalues --   -0.07588  -0.06972  -0.05177  -0.03423  -0.03175
  Beta virt. eigenvalues --   -0.02762  -0.02508  -0.01723  -0.01095  -0.00440
  Beta virt. eigenvalues --   -0.00304  -0.00143   0.00068   0.00379   0.00701

 Mulliken charges and spin densities:
               1          2
     1  Na  -0.097708   0.024061
     2  Na   0.193257   0.505056
     3  Na  -0.179634  -0.009887
     4  Na  -0.437536   0.016969
     5  Na  -0.054387   0.072015
     6  Na   0.337904   0.327853
     7  Na   0.238105   0.063933
 Sum of Mulliken charges =  -0.00000   1.00000

 Dipole moment (field-independent basis, Debye):
    X=             -0.7630    Y=             -0.0917    Z=             -0.4555  Tot=              0.8934
 Quadrupole moment (field-independent basis, Debye-Ang):
   XX=            -66.8387   YY=            -75.8820   ZZ=            -61.9554
   XY=             -2.2514   XZ=              4.1760   YZ=             -1.6898

 Normal termination of Gaussian 16 at Fri Dec  8 20:21:30 2023.
