 Gaussian 16, Revision B.01,
 Gaussian 16:  ES64L-G16RevB.01 20-Dec-2017

 -------------------------
 #P B3LYP/6-311+g(d) force
 -------------------------

 -----
 DPGEN
 -----
 Symbolic Z-matrix:
 Charge =  0 Multiplicity = 2

                         Standard orientation:
 ---------------------------------------------------------------------
 Center     Atomic      Atomic             Coordinates (Angstroms)
 Number     Number       Type             X           Y           Z
 ---------------------------------------------------------------------
      1         11           0       -3.401709    1.524940   -0.414846
      2         11           0        3.066541   -0.955930   -1.545880
      3         11           0       -2.680243   -1.772037    0.729149
      4         11           0        3.077960    1.722811    0.872293
      5         11           0       -0.275488   -2.186311   -1.516445
      6         11           0        0.779465   -1.182479    2.409841
      7         11           0       -0.566525    2.849006   -0.534112
 ---------------------------------------------------------------------

 SCF Done:  E(UB3LYP) =  -1136.11711380     A.U. after   20 cycles

 The electronic state is 2-A.
 Alpha  occ. eigenvalues --  -38.45165 -38.44662 -38.44534 -38.44267 -38.44236
 Alpha  occ. eigenvalues --  -38.43951 -38.43776  -2.20928  -2.20447  -2.20291
 Alpha  occ. eigenvalues --   -2.20065  -2.20039  -2.19722  -2.19585  -1.14595
 Alpha  occ. eigenvalues --   -1.14564  -1.14534  -1.14115  -1.14100  -1.14073
 Alpha  occ. eigenvalues --   -1.13958  -1.13948  -1.13936  -1.13762  -1.13737
 Alpha  occ. eigenvalues --   -1.13722  -1.13701  -1.13685  -1.13654  -1.13436
 Alpha  occ. eigenvalues --   -1.13399  -1.13372  -1.13247  -1.13227  -1.13209
 Alpha  occ. eigenvalues --   -0.16656  -0.13302  -0.12148  -0.11333
 Alpha virt. eigenvalues --   -0.06503  -0.06092  -0.04572  -0.03598  -0.03088
 Alpha virt. eigenvalues --   -0.02686  -0.01805  -0.01575  -0.00675  -0.00533
 Alpha virt. eigenvalues --   -0.00323  -0.00133   0.00221   0.00345   0.00597

  Beta  occ. eigenvalues --  -38.45074 -38.44610 -38.44524 -38.44235 -38.44234
  Beta  occ. eigenvalues --  -38.43953 -38.43775  -2.20759  -2.20353  -2.20274
  Beta  occ. eigenvalues --   -2.20037  -2.20006  -2.19726  -2.19584  -1.14480
  Beta  occ. eigenvalues --   -1.14451  -1.14411  -1.14049  -1.14037  -1.14004
  Beta  occ. eigenvalues --   -1.13939  -1.13932  -1.13925  -1.13747  -1.13704
  Beta  occ. eigenvalues --   -1.13692  -1.13685  -1.13670  -1.13618  -1.13438
  Beta  occ. eigenvalues --   -1.13400  -1.13374  -1.13245  -1.13226  -1.13211
  Beta  occ. eigenvalues --   -0.16082  -0.13102  -0.11952
  Beta virt. eigenvalues --   -0.07536  -0.06294  -0.05825  -0.03958  -0.03445
  Beta virt. eigenvalues --   -0.02550  -0.02077  -0.01747  -0.01377  -0.00593
  Beta virt. eigenvalues --   -0.00255  -0.00231   0.00083   0.00349   0.00399

 Mulliken charges and spin densities:
               1          2
     1  Na   0.610434  -0.114264
     2  Na   0.255639   0.107068
     3  Na   0.011645   0.217615
     4  Na  -0.184403   0.194038
     5  Na  -0.324653   0.191506
     6  Na   0.065202   0.378847
     7  Na  -0.433863   0.025190
 Sum of Mulliken charges =  -0.00000   1.00000

 Dipole moment (field-independent basis, Debye):
    X=              0.3612    Y=             -0.3826    Z=              0.2666  Tot=              0.5898
 Quadrupole moment (field-independent basis, Debye-Ang):
   XX=            -57.2016   YY=            -72.9300   ZZ=            -70.0044
   XY=              4.6323   XZ=             -0.7521   YZ=              0.3338

 Normal termination of Gaussian 16 at Mon Dec  4 04:35:47 2023.
