 Gaussian 16, Revision B.01,
 Gaussian 16:  ES64L-G16RevB.01 20-Dec-2017

 -------------------------
 #P B3LYP/6-311+g(d) force
 -------------------------

 -----
 DPGEN
 -----
 Symbolic Z-matrix:
 Charge =  0 Multiplicity = 2

                         Standard orientation:
 ---------------------------------------------------------------------
 Center     Atomic      Atomic             Coordinates (Angstroms)
 Number     Number       Type             X           Y           Z
 ---------------------------------------------------------------------
      1         11           0        0.089124   -0.148795   -1.745626
      2         11           0       -0.515943   -1.075885    1.986234
      3         11           0        3.195210    0.788009   -1.369710
      4         11           0       -2.566436    1.788094    0.083210
      5         11           0       -3.470245   -1.751722   -0.876663
      6         11           0        2.735343   -2.162601    0.773508
      7         11           0        0.532947    2.562899    1.149048
 ---------------------------------------------------------------------

 SCF Done:  E(UB3LYP) =  -1136.12352125     A.U. after   22 cycles

 The electronic state is 2-A.
 Alpha  occ. eigenvalues --  -38.44726 -38.44706 -38.44375 -38.44297 -38.44119
 Alpha  occ. eigenvalues --  -38.43927 -38.42929  -2.20556  -2.20506  -2.20189
 Alpha  occ. eigenvalues --   -2.20068  -2.19928  -2.19690  -2.18739  -1.14243
 Alpha  occ. eigenvalues --   -1.14204  -1.14195  -1.14182  -1.14144  -1.14122
 Alpha  occ. eigenvalues --   -1.13867  -1.13824  -1.13810  -1.13741  -1.13728
 Alpha  occ. eigenvalues --   -1.13698  -1.13620  -1.13599  -1.13546  -1.13360
 Alpha  occ. eigenvalues --   -1.13352  -1.13317  -1.12412  -1.12395  -1.12380
 Alpha  occ. eigenvalues --   -0.17455  -0.13283  -0.11644  -0.11250
 Alpha virt. eigenvalues --   -0.06074  -0.05701  -0.04654  -0.03330  -0.03197
 Alpha virt. eigenvalues --   -0.02565  -0.02110  -0.01338  -0.00822  -0.00343
 Alpha virt. eigenvalues --    0.00144   0.00172   0.00254   0.00480   0.00606

  Beta  occ. eigenvalues --  -38.44680 -38.44633 -38.44339 -38.44278 -38.44118
  Beta  occ. eigenvalues --  -38.43911 -38.42917  -2.20472  -2.20372  -2.20124
  Beta  occ. eigenvalues --   -2.20036  -2.19929  -2.19661  -2.18718  -1.14181
  Beta  occ. eigenvalues --   -1.14153  -1.14124  -1.14096  -1.14047  -1.14018
  Beta  occ. eigenvalues --   -1.13808  -1.13784  -1.13771  -1.13720  -1.13697
  Beta  occ. eigenvalues --   -1.13669  -1.13618  -1.13597  -1.13541  -1.13339
  Beta  occ. eigenvalues --   -1.13330  -1.13300  -1.12392  -1.12385  -1.12359
  Beta  occ. eigenvalues --   -0.16776  -0.12990  -0.11061
  Beta virt. eigenvalues --   -0.07820  -0.05866  -0.05542  -0.04226  -0.03001
  Beta virt. eigenvalues --   -0.02593  -0.01918  -0.01888  -0.01180  -0.00661
  Beta virt. eigenvalues --   -0.00217   0.00174   0.00238   0.00377   0.00600

 Mulliken charges and spin densities:
               1          2
     1  Na  -0.625294   0.313471
     2  Na  -0.108078   0.475825
     3  Na   0.554809   0.167170
     4  Na   0.273305   0.015711
     5  Na   0.228541   0.020456
     6  Na  -0.048571   0.029707
     7  Na  -0.274712  -0.022341
 Sum of Mulliken charges =  -0.00000   1.00000

 Dipole moment (field-independent basis, Debye):
    X=              0.2679    Y=             -0.1071    Z=             -0.0658  Tot=              0.2959
 Quadrupole moment (field-independent basis, Debye-Ang):
   XX=            -54.5718   YY=            -72.2269   ZZ=            -69.5659
   XY=              0.3496   XZ=              0.0158   YZ=             -1.0788

 Normal termination of Gaussian 16 at Mon Dec  4 01:17:51 2023.
