 Gaussian 16, Revision B.01,
 Gaussian 16:  ES64L-G16RevB.01 20-Dec-2017

 -------------------------
 #P B3LYP/6-311+g(d) force
 -------------------------

 -----
 DPGEN
 -----
 Symbolic Z-matrix:
 Charge =  0 Multiplicity = 2

                         Standard orientation:
 ---------------------------------------------------------------------
 Center     Atomic      Atomic             Coordinates (Angstroms)
 Number     Number       Type             X           Y           Z
 ---------------------------------------------------------------------
      1         11           0       -0.580685    3.144785    0.054616
      2         11           0        2.549576   -1.891796    0.260623
      3         11           0       -3.379716    0.288821   -0.044389
      4         11           0        2.711017    1.448013    0.055357
      5         11           0       -1.332061   -2.642180   -0.433891
      6         11           0       -0.385245   -0.405570    1.938966
      7         11           0        0.417114    0.057926   -1.831282
 ---------------------------------------------------------------------

 SCF Done:  E(UB3LYP) =  -1136.13592157     A.U. after   19 cycles

 The electronic state is 2-A.
 Alpha  occ. eigenvalues --  -38.44577 -38.43893 -38.43819 -38.43637 -38.43619
 Alpha  occ. eigenvalues --  -38.43568 -38.43447  -2.20349  -2.19737  -2.19646
 Alpha  occ. eigenvalues --   -2.19505  -2.19455  -2.19352  -2.19342  -1.14028
 Alpha  occ. eigenvalues --   -1.14002  -1.13993  -1.13441  -1.13406  -1.13379
 Alpha  occ. eigenvalues --   -1.13312  -1.13300  -1.13281  -1.13196  -1.13158
 Alpha  occ. eigenvalues --   -1.13137  -1.13120  -1.13099  -1.13078  -1.13028
 Alpha  occ. eigenvalues --   -1.13022  -1.13006  -1.12985  -1.12982  -1.12962
 Alpha  occ. eigenvalues --   -0.18135  -0.13056  -0.12175  -0.10533
 Alpha virt. eigenvalues --   -0.05963  -0.05251  -0.04899  -0.03282  -0.02791
 Alpha virt. eigenvalues --   -0.02468  -0.01689  -0.01169  -0.00644  -0.00585
 Alpha virt. eigenvalues --   -0.00033   0.00361   0.00727   0.00827   0.00846

  Beta  occ. eigenvalues --  -38.44577 -38.43889 -38.43812 -38.43606 -38.43569
  Beta  occ. eigenvalues --  -38.43560 -38.43373  -2.20352  -2.19732  -2.19637
  Beta  occ. eigenvalues --   -2.19434  -2.19363  -2.19346  -2.19214  -1.14014
  Beta  occ. eigenvalues --   -1.14005  -1.13997  -1.13435  -1.13384  -1.13378
  Beta  occ. eigenvalues --   -1.13296  -1.13280  -1.13279  -1.13143  -1.13094
  Beta  occ. eigenvalues --   -1.13073  -1.13069  -1.13029  -1.13014  -1.13013
  Beta  occ. eigenvalues --   -1.13007  -1.12986  -1.12932  -1.12886  -1.12866
  Beta  occ. eigenvalues --   -0.17415  -0.12861  -0.11970
  Beta virt. eigenvalues --   -0.06680  -0.05913  -0.05261  -0.04761  -0.02530
  Beta virt. eigenvalues --   -0.02090  -0.01595  -0.01460  -0.01087  -0.00679
  Beta virt. eigenvalues --   -0.00635   0.00118   0.00391   0.00779   0.00841

 Mulliken charges and spin densities:
               1          2
     1  Na  -0.146329  -0.152530
     2  Na   0.192872  -0.012292
     3  Na  -0.001994  -0.116116
     4  Na   0.083043  -0.062944
     5  Na   0.113483  -0.057649
     6  Na  -0.238453   0.757513
     7  Na  -0.002622   0.644018
 Sum of Mulliken charges =  -0.00000   1.00000

 Dipole moment (field-independent basis, Debye):
    X=             -0.2347    Y=             -0.0945    Z=              0.0440  Tot=              0.2568
 Quadrupole moment (field-independent basis, Debye-Ang):
   XX=            -55.2671   YY=            -62.9435   ZZ=            -75.1810
   XY=             -0.7254   XZ=              1.5679   YZ=              0.9018

 Normal termination of Gaussian 16 at Tue Dec  5 15:31:08 2023.
