 Gaussian 16, Revision B.01,
 Gaussian 16:  ES64L-G16RevB.01 20-Dec-2017

 -------------------------
 #P B3LYP/6-311+g(d) force
 -------------------------

 -----
 DPGEN
 -----
 Symbolic Z-matrix:
 Charge =  0 Multiplicity = 2

                         Standard orientation:
 ---------------------------------------------------------------------
 Center     Atomic      Atomic             Coordinates (Angstroms)
 Number     Number       Type             X           Y           Z
 ---------------------------------------------------------------------
      1         11           0       -0.509631   -2.673752   -0.261698
      2         11           0       -2.919923   -0.184700   -0.583149
      3         11           0        2.856961   -1.355494   -0.113038
      4         11           0       -0.465286   -0.432930    2.420829
      5         11           0        0.236217    0.036276   -1.524501
      6         11           0       -1.278886    2.331323    0.046067
      7         11           0        2.080549    2.279277    0.015491
 ---------------------------------------------------------------------

 SCF Done:  E(UB3LYP) =  -1136.13412997     A.U. after   19 cycles

 The electronic state is 2-A.
 Alpha  occ. eigenvalues --  -38.44295 -38.43962 -38.43639 -38.43516 -38.43289
 Alpha  occ. eigenvalues --  -38.43149 -38.43130  -2.20135  -2.19778  -2.19541
 Alpha  occ. eigenvalues --   -2.19353  -2.19193  -2.19179  -2.19076  -1.13774
 Alpha  occ. eigenvalues --   -1.13763  -1.13753  -1.13469  -1.13439  -1.13407
 Alpha  occ. eigenvalues --   -1.13261  -1.13205  -1.13170  -1.13060  -1.13016
 Alpha  occ. eigenvalues --   -1.12989  -1.12977  -1.12895  -1.12842  -1.12816
 Alpha  occ. eigenvalues --   -1.12786  -1.12774  -1.12725  -1.12719  -1.12696
 Alpha  occ. eigenvalues --   -0.18848  -0.12903  -0.12546  -0.11278
 Alpha virt. eigenvalues --   -0.05473  -0.04982  -0.04476  -0.03287  -0.03142
 Alpha virt. eigenvalues --   -0.02917  -0.01378  -0.00983  -0.00164  -0.00111
 Alpha virt. eigenvalues --   -0.00019   0.00344   0.00804   0.00917   0.00960

  Beta  occ. eigenvalues --  -38.44180 -38.43962 -38.43626 -38.43516 -38.43280
  Beta  occ. eigenvalues --  -38.43143 -38.43079  -2.19922  -2.19780  -2.19520
  Beta  occ. eigenvalues --   -2.19355  -2.19171  -2.19098  -2.19067  -1.13634
  Beta  occ. eigenvalues --   -1.13613  -1.13606  -1.13463  -1.13434  -1.13412
  Beta  occ. eigenvalues --   -1.13248  -1.13181  -1.13142  -1.13055  -1.13007
  Beta  occ. eigenvalues --   -1.12993  -1.12949  -1.12850  -1.12808  -1.12788
  Beta  occ. eigenvalues --   -1.12755  -1.12720  -1.12708  -1.12694  -1.12673
  Beta  occ. eigenvalues --   -0.18122  -0.12701  -0.12328
  Beta virt. eigenvalues --   -0.07192  -0.05465  -0.04937  -0.04427  -0.02455
  Beta virt. eigenvalues --   -0.02314  -0.01886  -0.01294  -0.00933  -0.00199
  Beta virt. eigenvalues --   -0.00096   0.00122   0.00387   0.00870   0.00948

 Mulliken charges and spin densities:
               1          2
     1  Na   0.277739   0.057353
     2  Na   0.391754   0.091533
     3  Na   0.106995  -0.001220
     4  Na  -0.796751   0.683565
     5  Na  -0.221836  -0.000105
     6  Na   0.185621   0.144902
     7  Na   0.056478   0.023972
 Sum of Mulliken charges =  -0.00000   1.00000

 Dipole moment (field-independent basis, Debye):
    X=              0.2560    Y=             -0.2060    Z=              0.3924  Tot=              0.5118
 Quadrupole moment (field-independent basis, Debye-Ang):
   XX=            -58.3621   YY=            -64.8697   ZZ=            -71.6271
   XY=              0.1310   XZ=              1.6153   YZ=              0.8357

 Normal termination of Gaussian 16 at Thu Dec  7 04:18:55 2023.
