 Gaussian 16, Revision B.01,
 Gaussian 16:  ES64L-G16RevB.01 20-Dec-2017

 -------------------------
 #P B3LYP/6-311+g(d) force
 -------------------------

 -----
 DPGEN
 -----
 Symbolic Z-matrix:
 Charge =  0 Multiplicity = 2

                         Standard orientation:
 ---------------------------------------------------------------------
 Center     Atomic      Atomic             Coordinates (Angstroms)
 Number     Number       Type             X           Y           Z
 ---------------------------------------------------------------------
      1         11           0        1.319728    0.335726    1.769927
      2         11           0        3.242921   -1.641027   -0.628158
      3         11           0       -3.681450   -0.748943   -1.200859
      4         11           0       -2.063842   -0.467356    1.927138
      5         11           0       -1.284595    2.272142   -0.633647
      6         11           0        2.683932    1.423744   -0.628766
      7         11           0       -0.216693   -1.174284   -0.605635
 ---------------------------------------------------------------------

 SCF Done:  E(UB3LYP) =  -1136.11954052     A.U. after   27 cycles

 The electronic state is 2-A.
 Alpha  occ. eigenvalues --  -38.44500 -38.44473 -38.44235 -38.43915 -38.43743
 Alpha  occ. eigenvalues --  -38.43600 -38.43273  -2.20407  -2.20358  -2.20048
 Alpha  occ. eigenvalues --   -2.19842  -2.19698  -2.19411  -2.19135  -1.14153
 Alpha  occ. eigenvalues --   -1.14069  -1.14061  -1.14010  -1.13988  -1.13970
 Alpha  occ. eigenvalues --   -1.13718  -1.13696  -1.13675  -1.13595  -1.13525
 Alpha  occ. eigenvalues --   -1.13445  -1.13377  -1.13361  -1.13271  -1.13106
 Alpha  occ. eigenvalues --   -1.13057  -1.13015  -1.12814  -1.12786  -1.12778
 Alpha  occ. eigenvalues --   -0.18636  -0.14480  -0.11489  -0.10678
 Alpha virt. eigenvalues --   -0.06540  -0.05295  -0.05038  -0.03155  -0.02510
 Alpha virt. eigenvalues --   -0.02447  -0.02155  -0.01118  -0.00834  -0.00239
 Alpha virt. eigenvalues --    0.00141   0.00245   0.00371   0.00439   0.00699

  Beta  occ. eigenvalues --  -38.44482 -38.44413 -38.44204 -38.43904 -38.43706
  Beta  occ. eigenvalues --  -38.43556 -38.43276  -2.20374  -2.20253  -2.19991
  Beta  occ. eigenvalues --   -2.19829  -2.19634  -2.19328  -2.19142  -1.14134
  Beta  occ. eigenvalues --   -1.14038  -1.13992  -1.13983  -1.13918  -1.13880
  Beta  occ. eigenvalues --   -1.13677  -1.13649  -1.13641  -1.13554  -1.13499
  Beta  occ. eigenvalues --   -1.13445  -1.13333  -1.13291  -1.13232  -1.13046
  Beta  occ. eigenvalues --   -1.13002  -1.12953  -1.12812  -1.12793  -1.12782
  Beta  occ. eigenvalues --   -0.17959  -0.14197  -0.10509
  Beta virt. eigenvalues --   -0.07534  -0.06351  -0.05194  -0.04402  -0.02796
  Beta virt. eigenvalues --   -0.02409  -0.01896  -0.01623  -0.00877  -0.00440
  Beta virt. eigenvalues --   -0.00117   0.00181   0.00303   0.00443   0.00598

 Mulliken charges and spin densities:
               1          2
     1  Na   0.033347   0.084091
     2  Na   0.343271  -0.056771
     3  Na   0.971207   0.177402
     4  Na   0.339294   0.065568
     5  Na  -0.542377   0.302878
     6  Na   0.648471   0.167952
     7  Na  -1.793212   0.258880
 Sum of Mulliken charges =  -0.00000   1.00000

 Dipole moment (field-independent basis, Debye):
    X=             -0.4410    Y=              0.4476    Z=              0.2831  Tot=              0.6892
 Quadrupole moment (field-independent basis, Debye-Ang):
   XX=            -51.7859   YY=            -76.1707   ZZ=            -67.4855
   XY=              0.6851   XZ=             -0.7070   YZ=             -3.4960

 Normal termination of Gaussian 16 at Tue Dec  5 09:59:37 2023.
