 Gaussian 16, Revision B.01,
 Gaussian 16:  ES64L-G16RevB.01 20-Dec-2017

 -------------------------
 #P B3LYP/6-311+g(d) force
 -------------------------

 -----
 DPGEN
 -----
 Symbolic Z-matrix:
 Charge =  0 Multiplicity = 2

                         Standard orientation:
 ---------------------------------------------------------------------
 Center     Atomic      Atomic             Coordinates (Angstroms)
 Number     Number       Type             X           Y           Z
 ---------------------------------------------------------------------
      1         11           0       -0.100952   -0.498739    2.162032
      2         11           0       -3.099647   -0.037239   -0.222795
      3         11           0        2.509730    1.718705   -0.376978
      4         11           0       -0.923342    3.136072    0.305577
      5         11           0        0.060992    0.205930   -1.520163
      6         11           0        2.712979   -1.767162    0.115020
      7         11           0       -1.159760   -2.757568   -0.462692
 ---------------------------------------------------------------------

 SCF Done:  E(UB3LYP) =  -1136.13639167     A.U. after   19 cycles

 The electronic state is 2-A.
 Alpha  occ. eigenvalues --  -38.43954 -38.43872 -38.43821 -38.43769 -38.43736
 Alpha  occ. eigenvalues --  -38.43647 -38.43156  -2.19785  -2.19673  -2.19664
 Alpha  occ. eigenvalues --   -2.19617  -2.19519  -2.19496  -2.19131  -1.13471
 Alpha  occ. eigenvalues --   -1.13449  -1.13423  -1.13399  -1.13350  -1.13338
 Alpha  occ. eigenvalues --   -1.13325  -1.13312  -1.13276  -1.13263  -1.13249
 Alpha  occ. eigenvalues --   -1.13229  -1.13192  -1.13182  -1.13175  -1.13162
 Alpha  occ. eigenvalues --   -1.13149  -1.13122  -1.12815  -1.12779  -1.12745
 Alpha  occ. eigenvalues --   -0.18253  -0.12949  -0.12342  -0.10643
 Alpha virt. eigenvalues --   -0.05450  -0.05352  -0.05035  -0.03083  -0.02942
 Alpha virt. eigenvalues --   -0.02534  -0.01464  -0.01309  -0.00564  -0.00498
 Alpha virt. eigenvalues --   -0.00021   0.00343   0.00783   0.00830   0.00844

  Beta  occ. eigenvalues --  -38.43949 -38.43870 -38.43812 -38.43732 -38.43670
  Beta  occ. eigenvalues --  -38.43635 -38.43104  -2.19779  -2.19673  -2.19651
  Beta  occ. eigenvalues --   -2.19514  -2.19478  -2.19433  -2.19038  -1.13462
  Beta  occ. eigenvalues --   -1.13439  -1.13410  -1.13383  -1.13342  -1.13331
  Beta  occ. eigenvalues --   -1.13317  -1.13296  -1.13259  -1.13180  -1.13174
  Beta  occ. eigenvalues --   -1.13171  -1.13158  -1.13150  -1.13137  -1.13116
  Beta  occ. eigenvalues --   -1.13102  -1.13092  -1.12746  -1.12707  -1.12680
  Beta  occ. eigenvalues --   -0.17558  -0.12693  -0.12152
  Beta virt. eigenvalues --   -0.06761  -0.05442  -0.05294  -0.04921  -0.02353
  Beta virt. eigenvalues --   -0.02234  -0.01503  -0.01359  -0.01210  -0.00587
  Beta virt. eigenvalues --   -0.00549   0.00137   0.00383   0.00825   0.00842

 Mulliken charges and spin densities:
               1          2
     1  Na  -0.554868   0.827274
     2  Na   0.132499  -0.001384
     3  Na   0.185215  -0.019399
     4  Na  -0.080218   0.014056
     5  Na  -0.009890   0.220884
     6  Na   0.096569  -0.036318
     7  Na   0.230695  -0.005112
 Sum of Mulliken charges =  -0.00000   1.00000

 Dipole moment (field-independent basis, Debye):
    X=             -0.0204    Y=             -0.0775    Z=              0.1504  Tot=              0.1704
 Quadrupole moment (field-independent basis, Debye-Ang):
   XX=            -58.0212   YY=            -60.1679   ZZ=            -75.0445
   XY=             -0.7742   XZ=              0.1267   YZ=              1.6079

 Normal termination of Gaussian 16 at Thu Dec  7 21:44:50 2023.
