 Gaussian 16, Revision B.01,
 Gaussian 16:  ES64L-G16RevB.01 20-Dec-2017

 -------------------------
 #P B3LYP/6-311+g(d) force
 -------------------------

 -----
 DPGEN
 -----
 Symbolic Z-matrix:
 Charge =  0 Multiplicity = 2

                         Standard orientation:
 ---------------------------------------------------------------------
 Center     Atomic      Atomic             Coordinates (Angstroms)
 Number     Number       Type             X           Y           Z
 ---------------------------------------------------------------------
      1         11           0        0.177983   -0.163641   -1.570694
      2         11           0        0.021757   -0.292332    2.113198
      3         11           0        0.937766    2.745021   -0.023823
      4         11           0        0.538137   -2.875456   -0.391491
      5         11           0        3.177935    0.039032    0.034173
      6         11           0       -2.352976    1.716609   -0.308263
      7         11           0       -2.500601   -1.169233    0.146901
 ---------------------------------------------------------------------

 SCF Done:  E(UB3LYP) =  -1136.13458285     A.U. after   19 cycles

 The electronic state is 2-A.
 Alpha  occ. eigenvalues --  -38.44164 -38.43753 -38.43542 -38.43471 -38.43443
 Alpha  occ. eigenvalues --  -38.43430 -38.43078  -2.19979  -2.19650  -2.19489
 Alpha  occ. eigenvalues --   -2.19352  -2.19335  -2.19290  -2.19122  -1.13659
 Alpha  occ. eigenvalues --   -1.13641  -1.13614  -1.13335  -1.13293  -1.13278
 Alpha  occ. eigenvalues --   -1.13267  -1.13155  -1.13132  -1.13117  -1.13007
 Alpha  occ. eigenvalues --   -1.12991  -1.12977  -1.12967  -1.12963  -1.12948
 Alpha  occ. eigenvalues --   -1.12936  -1.12905  -1.12783  -1.12732  -1.12732
 Alpha  occ. eigenvalues --   -0.19043  -0.13075  -0.12601  -0.10993
 Alpha virt. eigenvalues --   -0.05632  -0.04793  -0.04727  -0.03243  -0.02934
 Alpha virt. eigenvalues --   -0.02711  -0.01443  -0.01059  -0.00171  -0.00153
 Alpha virt. eigenvalues --    0.00014   0.00363   0.00845   0.00922   0.00961

  Beta  occ. eigenvalues --  -38.44162 -38.43653 -38.43532 -38.43459 -38.43440
  Beta  occ. eigenvalues --  -38.43425 -38.43015  -2.19979  -2.19477  -2.19465
  Beta  occ. eigenvalues --   -2.19334  -2.19327  -2.19288  -2.19008  -1.13651
  Beta  occ. eigenvalues --   -1.13631  -1.13617  -1.13299  -1.13214  -1.13154
  Beta  occ. eigenvalues --   -1.13143  -1.13127  -1.13095  -1.13075  -1.13001
  Beta  occ. eigenvalues --   -1.12961  -1.12960  -1.12957  -1.12950  -1.12934
  Beta  occ. eigenvalues --   -1.12930  -1.12905  -1.12708  -1.12654  -1.12650
  Beta  occ. eigenvalues --   -0.18301  -0.12842  -0.12339
  Beta virt. eigenvalues --   -0.07015  -0.05624  -0.04739  -0.04720  -0.02427
  Beta virt. eigenvalues --   -0.02164  -0.01607  -0.01362  -0.00992  -0.00212
  Beta virt. eigenvalues --   -0.00180   0.00138   0.00389   0.00863   0.00926

 Mulliken charges and spin densities:
               1          2
     1  Na  -0.445502   0.310991
     2  Na  -0.610100   0.674966
     3  Na   0.087904  -0.008986
     4  Na   0.313891  -0.038218
     5  Na   0.073804  -0.068125
     6  Na   0.004023  -0.031043
     7  Na   0.575981   0.160415
 Sum of Mulliken charges =  -0.00000   1.00000

 Dipole moment (field-independent basis, Debye):
    X=              0.5057    Y=             -0.0607    Z=              0.2712  Tot=              0.5770
 Quadrupole moment (field-independent basis, Debye-Ang):
   XX=            -58.2947   YY=            -62.4468   ZZ=            -73.4198
   XY=             -0.3787   XZ=              0.4944   YZ=              0.1344

 Normal termination of Gaussian 16 at Thu Dec  7 09:37:49 2023.
