 Gaussian 16, Revision B.01,
 Gaussian 16:  ES64L-G16RevB.01 20-Dec-2017

 -------------------------
 #P B3LYP/6-311+g(d) force
 -------------------------

 -----
 DPGEN
 -----
 Symbolic Z-matrix:
 Charge =  0 Multiplicity = 2

                         Standard orientation:
 ---------------------------------------------------------------------
 Center     Atomic      Atomic             Coordinates (Angstroms)
 Number     Number       Type             X           Y           Z
 ---------------------------------------------------------------------
      1         11           0       -2.243389   -2.936637   -0.503183
      2         11           0       -2.590747    0.325140    0.864433
      3         11           0        3.645788    0.042136   -0.555429
      4         11           0        0.061221    0.028640   -1.431120
      5         11           0        1.307651   -2.311499    0.784479
      6         11           0       -1.291959    3.441522   -0.525482
      7         11           0        1.111435    1.410699    1.366302
 ---------------------------------------------------------------------

 SCF Done:  E(UB3LYP) =  -1136.13125144     A.U. after   20 cycles

 The electronic state is 2-A.
 Alpha  occ. eigenvalues --  -38.44380 -38.44290 -38.44185 -38.44074 -38.43690
 Alpha  occ. eigenvalues --  -38.43376 -38.43220  -2.20191  -2.20098  -2.19999
 Alpha  occ. eigenvalues --   -2.19859  -2.19472  -2.19258  -2.19138  -1.13887
 Alpha  occ. eigenvalues --   -1.13866  -1.13803  -1.13771  -1.13755  -1.13724
 Alpha  occ. eigenvalues --   -1.13691  -1.13676  -1.13610  -1.13529  -1.13522
 Alpha  occ. eigenvalues --   -1.13487  -1.13141  -1.13139  -1.13109  -1.12990
 Alpha  occ. eigenvalues --   -1.12922  -1.12846  -1.12841  -1.12760  -1.12754
 Alpha  occ. eigenvalues --   -0.17908  -0.13065  -0.12467  -0.09636
 Alpha virt. eigenvalues --   -0.05996  -0.05689  -0.05270  -0.03090  -0.02698
 Alpha virt. eigenvalues --   -0.01914  -0.01726  -0.01665  -0.00778  -0.00653
 Alpha virt. eigenvalues --    0.00087   0.00297   0.00602   0.00701   0.00715

  Beta  occ. eigenvalues --  -38.44362 -38.44282 -38.44170 -38.44069 -38.43689
  Beta  occ. eigenvalues --  -38.43330 -38.43163  -2.20162  -2.20085  -2.19973
  Beta  occ. eigenvalues --   -2.19852  -2.19472  -2.19175  -2.19033  -1.13869
  Beta  occ. eigenvalues --   -1.13823  -1.13786  -1.13763  -1.13729  -1.13715
  Beta  occ. eigenvalues --   -1.13675  -1.13638  -1.13596  -1.13526  -1.13503
  Beta  occ. eigenvalues --   -1.13483  -1.13141  -1.13130  -1.13109  -1.12933
  Beta  occ. eigenvalues --   -1.12841  -1.12789  -1.12758  -1.12686  -1.12678
  Beta  occ. eigenvalues --   -0.17245  -0.12866  -0.12314
  Beta virt. eigenvalues --   -0.05982  -0.05887  -0.05542  -0.05176  -0.02453
  Beta virt. eigenvalues --   -0.02194  -0.01805  -0.01584  -0.01025  -0.00700
  Beta virt. eigenvalues --   -0.00418   0.00216   0.00361   0.00658   0.00738

 Mulliken charges and spin densities:
               1          2
     1  Na   0.266161  -0.037071
     2  Na  -0.126039   0.075153
     3  Na   0.337274   0.007993
     4  Na  -0.526774   0.546691
     5  Na  -0.114956   0.082166
     6  Na   0.241903  -0.032629
     7  Na  -0.077570   0.357697
 Sum of Mulliken charges =  -0.00000   1.00000

 Dipole moment (field-independent basis, Debye):
    X=              0.2768    Y=              0.0726    Z=              0.0848  Tot=              0.2984
 Quadrupole moment (field-independent basis, Debye-Ang):
   XX=            -54.9958   YY=            -57.2474   ZZ=            -77.5961
   XY=             -0.7986   XZ=             -0.8494   YZ=             -1.0427

 Normal termination of Gaussian 16 at Sun Dec  3 19:44:53 2023.
