 Gaussian 16, Revision B.01,
 Gaussian 16:  ES64L-G16RevB.01 20-Dec-2017

 -------------------------
 #P B3LYP/6-311+g(d) force
 -------------------------

 -----
 DPGEN
 -----
 Symbolic Z-matrix:
 Charge =  0 Multiplicity = 2

                         Standard orientation:
 ---------------------------------------------------------------------
 Center     Atomic      Atomic             Coordinates (Angstroms)
 Number     Number       Type             X           Y           Z
 ---------------------------------------------------------------------
      1         11           0        2.398679   -2.214149   -0.161793
      2         11           0       -0.084849   -0.053700    1.833431
      3         11           0        2.408677    1.802116    0.057944
      4         11           0       -3.350825   -0.180276   -0.337824
      5         11           0       -0.707925    2.637923    0.191501
      6         11           0       -0.923111   -2.322055    0.153671
      7         11           0        0.259354    0.330142   -1.736928
 ---------------------------------------------------------------------

 SCF Done:  E(UB3LYP) =  -1136.13321087     A.U. after   19 cycles

 The electronic state is 2-A.
 Alpha  occ. eigenvalues --  -38.43922 -38.43899 -38.43641 -38.43483 -38.43436
 Alpha  occ. eigenvalues --  -38.43337 -38.43211  -2.19779  -2.19733  -2.19456
 Alpha  occ. eigenvalues --   -2.19422  -2.19403  -2.19317  -2.19162  -1.13491
 Alpha  occ. eigenvalues --   -1.13443  -1.13414  -1.13410  -1.13393  -1.13370
 Alpha  occ. eigenvalues --   -1.13203  -1.13165  -1.13132  -1.13116  -1.13113
 Alpha  occ. eigenvalues --   -1.13101  -1.13030  -1.13008  -1.12991  -1.12982
 Alpha  occ. eigenvalues --   -1.12943  -1.12914  -1.12823  -1.12812  -1.12747
 Alpha  occ. eigenvalues --   -0.19026  -0.13056  -0.12586  -0.10765
 Alpha virt. eigenvalues --   -0.05534  -0.05202  -0.04552  -0.03196  -0.02861
 Alpha virt. eigenvalues --   -0.02415  -0.01610  -0.01223  -0.00194  -0.00055
 Alpha virt. eigenvalues --    0.00042   0.00332   0.00794   0.00876   0.00938

  Beta  occ. eigenvalues --  -38.43918 -38.43893 -38.43641 -38.43472 -38.43347
  Beta  occ. eigenvalues --  -38.43266 -38.43200  -2.19773  -2.19728  -2.19459
  Beta  occ. eigenvalues --   -2.19387  -2.19261  -2.19186  -2.19146  -1.13484
  Beta  occ. eigenvalues --   -1.13413  -1.13411  -1.13409  -1.13373  -1.13368
  Beta  occ. eigenvalues --   -1.13138  -1.13133  -1.13115  -1.13103  -1.13094
  Beta  occ. eigenvalues --   -1.13051  -1.12997  -1.12941  -1.12899  -1.12888
  Beta  occ. eigenvalues --   -1.12858  -1.12822  -1.12793  -1.12756  -1.12743
  Beta  occ. eigenvalues --   -0.18282  -0.12789  -0.12354
  Beta virt. eigenvalues --   -0.06844  -0.05473  -0.05180  -0.04533  -0.02360
  Beta virt. eigenvalues --   -0.02149  -0.01507  -0.01390  -0.01152  -0.00245
  Beta virt. eigenvalues --   -0.00041   0.00133   0.00352   0.00825   0.00887

 Mulliken charges and spin densities:
               1          2
     1  Na  -0.044532  -0.132061
     2  Na  -0.195463   0.528954
     3  Na   0.197341  -0.129748
     4  Na  -0.059345  -0.049932
     5  Na   0.280866  -0.031501
     6  Na   0.293982   0.019392
     7  Na  -0.472849   0.794895
 Sum of Mulliken charges =  -0.00000   1.00000

 Dipole moment (field-independent basis, Debye):
    X=              0.1642    Y=              0.2485    Z=             -0.0477  Tot=              0.3016
 Quadrupole moment (field-independent basis, Debye-Ang):
   XX=            -55.1431   YY=            -63.4079   ZZ=            -74.3570
   XY=             -0.7484   XZ=              0.9870   YZ=              0.8736

 Normal termination of Gaussian 16 at Sat Dec  9 06:49:15 2023.
