 Gaussian 16, Revision B.01,
 Gaussian 16:  ES64L-G16RevB.01 20-Dec-2017

 -------------------------
 #P B3LYP/6-311+g(d) force
 -------------------------

 -----
 DPGEN
 -----
 Symbolic Z-matrix:
 Charge =  0 Multiplicity = 2

                         Standard orientation:
 ---------------------------------------------------------------------
 Center     Atomic      Atomic             Coordinates (Angstroms)
 Number     Number       Type             X           Y           Z
 ---------------------------------------------------------------------
      1         11           0       -0.156819   -0.812400   -1.488412
      2         11           0        2.998453   -0.882752    0.190161
      3         11           0       -1.459814    2.788063    0.446312
      4         11           0        0.157744   -2.858501    0.615462
      5         11           0        1.820526    2.023767   -1.141948
      6         11           0       -3.436881   -0.960807   -0.490638
      7         11           0        0.076791    0.702630    1.869062
 ---------------------------------------------------------------------

 SCF Done:  E(UB3LYP) =  -1136.12934459     A.U. after   20 cycles

 The electronic state is 2-A.
 Alpha  occ. eigenvalues --  -38.44318 -38.43891 -38.43797 -38.43771 -38.43661
 Alpha  occ. eigenvalues --  -38.43564 -38.43390  -2.20079  -2.19761  -2.19645
 Alpha  occ. eigenvalues --   -2.19612  -2.19577  -2.19421  -2.19353  -1.13759
 Alpha  occ. eigenvalues --   -1.13722  -1.13718  -1.13540  -1.13453  -1.13416
 Alpha  occ. eigenvalues --   -1.13366  -1.13318  -1.13315  -1.13281  -1.13258
 Alpha  occ. eigenvalues --   -1.13233  -1.13214  -1.13187  -1.13139  -1.13108
 Alpha  occ. eigenvalues --   -1.13068  -1.13034  -1.13031  -1.13001  -1.12939
 Alpha  occ. eigenvalues --   -0.18354  -0.12754  -0.12571  -0.10884
 Alpha virt. eigenvalues --   -0.05845  -0.05096  -0.04620  -0.03305  -0.03066
 Alpha virt. eigenvalues --   -0.02405  -0.01726  -0.01173  -0.00445  -0.00225
 Alpha virt. eigenvalues --   -0.00003   0.00305   0.00750   0.00817   0.00849

  Beta  occ. eigenvalues --  -38.44305 -38.43876 -38.43794 -38.43760 -38.43590
  Beta  occ. eigenvalues --  -38.43523 -38.43349  -2.20058  -2.19735  -2.19643
  Beta  occ. eigenvalues --   -2.19593  -2.19448  -2.19346  -2.19277  -1.13736
  Beta  occ. eigenvalues --   -1.13709  -1.13705  -1.13521  -1.13404  -1.13387
  Beta  occ. eigenvalues --   -1.13346  -1.13319  -1.13299  -1.13262  -1.13228
  Beta  occ. eigenvalues --   -1.13218  -1.13140  -1.13108  -1.13062  -1.13048
  Beta  occ. eigenvalues --   -1.13020  -1.12977  -1.12974  -1.12952  -1.12880
  Beta  occ. eigenvalues --   -0.17689  -0.12480  -0.12251
  Beta virt. eigenvalues --   -0.07144  -0.05734  -0.04964  -0.04468  -0.02644
  Beta virt. eigenvalues --   -0.02443  -0.01661  -0.01492  -0.01063  -0.00347
  Beta virt. eigenvalues --   -0.00200   0.00106   0.00362   0.00785   0.00873

 Mulliken charges and spin densities:
               1          2
     1  Na   0.021392   0.260738
     2  Na   0.229109   0.045716
     3  Na   0.044743   0.027570
     4  Na  -0.047604   0.117767
     5  Na  -0.013547   0.203717
     6  Na  -0.132475  -0.044316
     7  Na  -0.101619   0.388808
 Sum of Mulliken charges =  -0.00000   1.00000

 Dipole moment (field-independent basis, Debye):
    X=             -0.1353    Y=             -0.1194    Z=              0.1576  Tot=              0.2396
 Quadrupole moment (field-independent basis, Debye-Ang):
   XX=            -57.4754   YY=            -63.2649   ZZ=            -73.0276
   XY=             -1.1403   XZ=              0.1539   YZ=             -3.6007

 Normal termination of Gaussian 16 at Thu Dec  7 23:57:22 2023.
