 Gaussian 16, Revision B.01,
 Gaussian 16:  ES64L-G16RevB.01 20-Dec-2017

 -------------------------
 #P B3LYP/6-311+g(d) force
 -------------------------

 -----
 DPGEN
 -----
 Symbolic Z-matrix:
 Charge =  0 Multiplicity = 2

                         Standard orientation:
 ---------------------------------------------------------------------
 Center     Atomic      Atomic             Coordinates (Angstroms)
 Number     Number       Type             X           Y           Z
 ---------------------------------------------------------------------
      1         11           0       -0.030154   -0.188398    2.183627
      2         11           0        0.143181   -0.247582   -1.490243
      3         11           0        0.352730    3.014293   -0.428069
      4         11           0       -2.652771    1.326526   -0.127322
      5         11           0       -2.648753   -1.844159    0.029133
      6         11           0        1.685942   -2.795007   -0.475474
      7         11           0        3.149824    0.734327    0.308348
 ---------------------------------------------------------------------

 SCF Done:  E(UB3LYP) =  -1136.13452921     A.U. after   19 cycles

 The electronic state is 2-A.
 Alpha  occ. eigenvalues --  -38.44503 -38.44055 -38.43959 -38.43817 -38.43624
 Alpha  occ. eigenvalues --  -38.43168 -38.43077  -2.20290  -2.19884  -2.19800
 Alpha  occ. eigenvalues --   -2.19626  -2.19497  -2.19048  -2.18998  -1.13967
 Alpha  occ. eigenvalues --   -1.13949  -1.13923  -1.13577  -1.13543  -1.13526
 Alpha  occ. eigenvalues --   -1.13462  -1.13430  -1.13409  -1.13337  -1.13271
 Alpha  occ. eigenvalues --   -1.13251  -1.13172  -1.13157  -1.13134  -1.12740
 Alpha  occ. eigenvalues --   -1.12714  -1.12678  -1.12659  -1.12645  -1.12632
 Alpha  occ. eigenvalues --   -0.18264  -0.13056  -0.12232  -0.10692
 Alpha virt. eigenvalues --   -0.05959  -0.05224  -0.04707  -0.03240  -0.02725
 Alpha virt. eigenvalues --   -0.02591  -0.01685  -0.01281  -0.00604  -0.00409
 Alpha virt. eigenvalues --   -0.00029   0.00334   0.00766   0.00792   0.00868

  Beta  occ. eigenvalues --  -38.44497 -38.44054 -38.43858 -38.43805 -38.43619
  Beta  occ. eigenvalues --  -38.43162 -38.43024  -2.20281  -2.19884  -2.19613
  Beta  occ. eigenvalues --   -2.19605  -2.19491  -2.18989  -2.18954  -1.13947
  Beta  occ. eigenvalues --   -1.13941  -1.13922  -1.13581  -1.13528  -1.13522
  Beta  occ. eigenvalues --   -1.13337  -1.13313  -1.13303  -1.13273  -1.13251
  Beta  occ. eigenvalues --   -1.13238  -1.13166  -1.13148  -1.13119  -1.12688
  Beta  occ. eigenvalues --   -1.12663  -1.12649  -1.12623  -1.12611  -1.12595
  Beta  occ. eigenvalues --   -0.17574  -0.12860  -0.11969
  Beta virt. eigenvalues --   -0.06823  -0.05850  -0.05176  -0.04669  -0.02493
  Beta virt. eigenvalues --   -0.02063  -0.01563  -0.01532  -0.01177  -0.00651
  Beta virt. eigenvalues --   -0.00435   0.00127   0.00372   0.00782   0.00846

 Mulliken charges and spin densities:
               1          2
     1  Na  -0.466106   0.678952
     2  Na  -0.191888   0.226418
     3  Na   0.091794   0.017364
     4  Na   0.159042   0.049122
     5  Na   0.226824  -0.007527
     6  Na   0.094065  -0.027817
     7  Na   0.086270   0.063488
 Sum of Mulliken charges =  -0.00000   1.00000

 Dipole moment (field-independent basis, Debye):
    X=              0.2280    Y=             -0.2890    Z=              0.2715  Tot=              0.4574
 Quadrupole moment (field-independent basis, Debye-Ang):
   XX=            -55.9256   YY=            -62.1903   ZZ=            -75.1841
   XY=              1.0793   XZ=              0.6662   YZ=             -0.1679

 Normal termination of Gaussian 16 at Thu Dec  7 09:56:27 2023.
