 Gaussian 16, Revision B.01,
 Gaussian 16:  ES64L-G16RevB.01 20-Dec-2017

 -------------------------
 #P B3LYP/6-311+g(d) force
 -------------------------

 -----
 DPGEN
 -----
 Symbolic Z-matrix:
 Charge =  0 Multiplicity = 2

                         Standard orientation:
 ---------------------------------------------------------------------
 Center     Atomic      Atomic             Coordinates (Angstroms)
 Number     Number       Type             X           Y           Z
 ---------------------------------------------------------------------
      1         11           0        1.682567    0.584450    1.363313
      2         11           0       -0.781957   -1.003754    1.536631
      3         11           0        0.638196    2.295552   -0.883926
      4         11           0       -1.709001    1.474835    0.274267
      5         11           0       -2.849048   -1.188004   -0.591755
      6         11           0        0.093393   -0.787789   -1.138326
      7         11           0        2.925850   -1.375291   -0.560204
 ---------------------------------------------------------------------

 SCF Done:  E(UB3LYP) =  -1136.09987175     A.U. after   24 cycles

 The electronic state is 2-A.
 Alpha  occ. eigenvalues --  -38.44149 -38.44042 -38.44003 -38.43685 -38.43411
 Alpha  occ. eigenvalues --  -38.43333 -38.43058  -2.20146  -2.20050  -2.20026
 Alpha  occ. eigenvalues --   -2.19770  -2.19555  -2.19532  -2.19071  -1.14015
 Alpha  occ. eigenvalues --   -1.13920  -1.13806  -1.13785  -1.13752  -1.13704
 Alpha  occ. eigenvalues --   -1.13673  -1.13650  -1.13607  -1.13457  -1.13419
 Alpha  occ. eigenvalues --   -1.13377  -1.13330  -1.13230  -1.13190  -1.13157
 Alpha  occ. eigenvalues --   -1.13144  -1.13104  -1.12702  -1.12684  -1.12641
 Alpha  occ. eigenvalues --   -0.20565  -0.14127  -0.12087  -0.11757
 Alpha virt. eigenvalues --   -0.05807  -0.04743  -0.03916  -0.03527  -0.02686
 Alpha virt. eigenvalues --   -0.02495  -0.01671  -0.00745  -0.00256   0.00284
 Alpha virt. eigenvalues --    0.00493   0.00592   0.00886   0.00909   0.01006

  Beta  occ. eigenvalues --  -38.44139 -38.44030 -38.43931 -38.43637 -38.43396
  Beta  occ. eigenvalues --  -38.43281 -38.43040  -2.20033  -2.20025  -2.19999
  Beta  occ. eigenvalues --   -2.19687  -2.19512  -2.19464  -2.19041  -1.13951
  Beta  occ. eigenvalues --   -1.13843  -1.13782  -1.13733  -1.13701  -1.13668
  Beta  occ. eigenvalues --   -1.13643  -1.13633  -1.13560  -1.13413  -1.13354
  Beta  occ. eigenvalues --   -1.13329  -1.13274  -1.13185  -1.13135  -1.13090
  Beta  occ. eigenvalues --   -1.13083  -1.13049  -1.12681  -1.12650  -1.12615
  Beta  occ. eigenvalues --   -0.19738  -0.13901  -0.11872
  Beta virt. eigenvalues --   -0.07503  -0.05725  -0.04599  -0.03563  -0.03079
  Beta virt. eigenvalues --   -0.02053  -0.01607  -0.01424  -0.00653  -0.00016
  Beta virt. eigenvalues --    0.00323   0.00503   0.00661   0.00903   0.00941

 Mulliken charges and spin densities:
               1          2
     1  Na   0.305047  -0.110087
     2  Na  -0.300900   0.358800
     3  Na   0.209889  -0.036802
     4  Na  -0.552448   0.356976
     5  Na   1.692683  -0.018968
     6  Na  -0.926566   0.397553
     7  Na  -0.427704   0.052528
 Sum of Mulliken charges =  -0.00000   1.00000

 Dipole moment (field-independent basis, Debye):
    X=              0.0600    Y=             -0.2149    Z=             -0.1332  Tot=              0.2599
 Quadrupole moment (field-independent basis, Debye-Ang):
   XX=            -53.6983   YY=            -71.7680   ZZ=            -68.8535
   XY=              0.7481   XZ=              0.5043   YZ=              0.6775

 Normal termination of Gaussian 16 at Fri Dec  8 17:39:24 2023.
