 Gaussian 16, Revision B.01,
 Gaussian 16:  ES64L-G16RevB.01 20-Dec-2017

 -------------------------
 #P B3LYP/6-311+g(d) force
 -------------------------

 -----
 DPGEN
 -----
 Symbolic Z-matrix:
 Charge =  0 Multiplicity = 2

                         Standard orientation:
 ---------------------------------------------------------------------
 Center     Atomic      Atomic             Coordinates (Angstroms)
 Number     Number       Type             X           Y           Z
 ---------------------------------------------------------------------
      1         11           0       -1.154473   -0.447604    1.572260
      2         11           0        2.499182   -0.229234    1.985222
      3         11           0        1.979938    1.708887   -1.360817
      4         11           0       -0.587614    2.506344   -0.056915
      5         11           0       -3.934472    0.293222   -0.200922
      6         11           0        2.390954   -1.471345   -1.001531
      7         11           0       -1.193515   -2.360270   -0.937298
 ---------------------------------------------------------------------

 SCF Done:  E(UB3LYP) =  -1136.12130933     A.U. after   22 cycles

 The electronic state is 2-A.
 Alpha  occ. eigenvalues --  -38.45560 -38.44583 -38.44053 -38.43951 -38.43733
 Alpha  occ. eigenvalues --  -38.43490 -38.43039  -2.21328  -2.20418  -2.19956
 Alpha  occ. eigenvalues --   -2.19765  -2.19594  -2.19374  -2.18884  -1.15012
 Alpha  occ. eigenvalues --   -1.14969  -1.14962  -1.14074  -1.14065  -1.14038
 Alpha  occ. eigenvalues --   -1.13679  -1.13629  -1.13567  -1.13439  -1.13429
 Alpha  occ. eigenvalues --   -1.13364  -1.13288  -1.13259  -1.13222  -1.13096
 Alpha  occ. eigenvalues --   -1.13017  -1.12988  -1.12565  -1.12551  -1.12500
 Alpha  occ. eigenvalues --   -0.17883  -0.13804  -0.11680  -0.11141
 Alpha virt. eigenvalues --   -0.06797  -0.05037  -0.04662  -0.03467  -0.02748
 Alpha virt. eigenvalues --   -0.02642  -0.02351  -0.00780  -0.00602  -0.00249
 Alpha virt. eigenvalues --   -0.00063   0.00223   0.00303   0.00749   0.00824

  Beta  occ. eigenvalues --  -38.45560 -38.44510 -38.44014 -38.43930 -38.43712
  Beta  occ. eigenvalues --  -38.43455 -38.43040  -2.21328  -2.20284  -2.19887
  Beta  occ. eigenvalues --   -2.19726  -2.19558  -2.19310  -2.18888  -1.15009
  Beta  occ. eigenvalues --   -1.14970  -1.14963  -1.13987  -1.13961  -1.13946
  Beta  occ. eigenvalues --   -1.13633  -1.13585  -1.13503  -1.13409  -1.13398
  Beta  occ. eigenvalues --   -1.13334  -1.13258  -1.13218  -1.13198  -1.13057
  Beta  occ. eigenvalues --   -1.12964  -1.12948  -1.12568  -1.12535  -1.12504
  Beta  occ. eigenvalues --   -0.17266  -0.13617  -0.11456
  Beta virt. eigenvalues --   -0.07285  -0.06663  -0.04813  -0.04123  -0.03326
  Beta virt. eigenvalues --   -0.02254  -0.02173  -0.01711  -0.00634  -0.00313
  Beta virt. eigenvalues --   -0.00192  -0.00014   0.00279   0.00428   0.00810

 Mulliken charges and spin densities:
               1          2
     1  Na  -0.107765   0.053609
     2  Na  -0.014373   0.252807
     3  Na   0.135932   0.008217
     4  Na  -0.447884   0.139140
     5  Na   0.595467  -0.001866
     6  Na   0.028822   0.390584
     7  Na  -0.190200   0.157510
 Sum of Mulliken charges =  -0.00000   1.00000

 Dipole moment (field-independent basis, Debye):
    X=             -1.2696    Y=             -0.2319    Z=             -0.0529  Tot=              1.2917
 Quadrupole moment (field-independent basis, Debye-Ang):
   XX=            -49.0166   YY=            -75.8895   ZZ=            -69.8748
   XY=             -1.4802   XZ=              2.6391   YZ=              1.4755

 Normal termination of Gaussian 16 at Wed Nov 29 03:41:10 2023.
