 Gaussian 16, Revision B.01,
 Gaussian 16:  ES64L-G16RevB.01 20-Dec-2017

 -------------------------
 #P B3LYP/6-311+g(d) force
 -------------------------

 -----
 DPGEN
 -----
 Symbolic Z-matrix:
 Charge =  0 Multiplicity = 2

                         Standard orientation:
 ---------------------------------------------------------------------
 Center     Atomic      Atomic             Coordinates (Angstroms)
 Number     Number       Type             X           Y           Z
 ---------------------------------------------------------------------
      1         11           0       -2.146703   -0.368915    1.561144
      2         11           0        1.457389    1.377719    0.495318
      3         11           0       -1.071916   -1.986104   -0.387556
      4         11           0       -4.510292   -0.340281   -1.108906
      5         11           0        3.052263   -1.931955    0.276331
      6         11           0       -1.609279    2.525266   -0.063274
      7         11           0        4.828539    0.724270   -0.773057
 ---------------------------------------------------------------------

 SCF Done:  E(UB3LYP) =  -1136.11406779     A.U. after   21 cycles

 The electronic state is 2-A.
 Alpha  occ. eigenvalues --  -38.45078 -38.44762 -38.44702 -38.44534 -38.43982
 Alpha  occ. eigenvalues --  -38.43265 -38.42729  -2.20993  -2.20569  -2.20481
 Alpha  occ. eigenvalues --   -2.20339  -2.19851  -2.19093  -2.18561  -1.14834
 Alpha  occ. eigenvalues --   -1.14630  -1.14575  -1.14224  -1.14222  -1.14202
 Alpha  occ. eigenvalues --   -1.14168  -1.14150  -1.14091  -1.13999  -1.13976
 Alpha  occ. eigenvalues --   -1.13939  -1.13577  -1.13483  -1.13415  -1.12806
 Alpha  occ. eigenvalues --   -1.12785  -1.12696  -1.12239  -1.12223  -1.12196
 Alpha  occ. eigenvalues --   -0.17266  -0.14561  -0.11094  -0.11042
 Alpha virt. eigenvalues --   -0.06358  -0.05732  -0.04917  -0.03219  -0.02803
 Alpha virt. eigenvalues --   -0.02460  -0.02157  -0.01249  -0.01014  -0.00714
 Alpha virt. eigenvalues --   -0.00058   0.00023   0.00319   0.00379   0.00508

  Beta  occ. eigenvalues --  -38.45073 -38.44709 -38.44702 -38.44443 -38.43951
  Beta  occ. eigenvalues --  -38.43260 -38.42731  -2.20988  -2.20484  -2.20470
  Beta  occ. eigenvalues --   -2.20169  -2.19796  -2.19086  -2.18566  -1.14825
  Beta  occ. eigenvalues --   -1.14614  -1.14559  -1.14178  -1.14170  -1.14154
  Beta  occ. eigenvalues --   -1.14150  -1.14132  -1.14060  -1.13881  -1.13855
  Beta  occ. eigenvalues --   -1.13832  -1.13542  -1.13448  -1.13356  -1.12804
  Beta  occ. eigenvalues --   -1.12766  -1.12688  -1.12244  -1.12228  -1.12187
  Beta  occ. eigenvalues --   -0.16651  -0.14072  -0.10927
  Beta virt. eigenvalues --   -0.07520  -0.05828  -0.05641  -0.04410  -0.03072
  Beta virt. eigenvalues --   -0.02598  -0.01743  -0.01717  -0.01158  -0.00797
  Beta virt. eigenvalues --   -0.00390   0.00030   0.00132   0.00437   0.00499

 Mulliken charges and spin densities:
               1          2
     1  Na  -0.023918   0.025629
     2  Na  -0.670105   0.010619
     3  Na  -0.115906   0.214022
     4  Na   0.197370   0.534617
     5  Na   0.099308  -0.041159
     6  Na   0.154782  -0.002573
     7  Na   0.358469   0.258846
 Sum of Mulliken charges =  -0.00000   1.00000

 Dipole moment (field-independent basis, Debye):
    X=              0.7463    Y=             -0.2581    Z=             -0.2786  Tot=              0.8374
 Quadrupole moment (field-independent basis, Debye-Ang):
   XX=            -55.4342   YY=            -75.5985   ZZ=            -65.3916
   XY=             -1.8021   XZ=             -1.7451   YZ=             -2.8956

 Normal termination of Gaussian 16 at Tue Dec  5 21:51:36 2023.
