 Gaussian 16, Revision B.01,
 Gaussian 16:  ES64L-G16RevB.01 20-Dec-2017

 -------------------------
 #P B3LYP/6-311+g(d) force
 -------------------------

 -----
 DPGEN
 -----
 Symbolic Z-matrix:
 Charge =  0 Multiplicity = 2

                         Standard orientation:
 ---------------------------------------------------------------------
 Center     Atomic      Atomic             Coordinates (Angstroms)
 Number     Number       Type             X           Y           Z
 ---------------------------------------------------------------------
      1         11           0        0.327964   -0.122873   -1.827820
      2         11           0        2.207246    2.034910   -0.021872
      3         11           0       -0.489302   -2.616829    0.202524
      4         11           0       -0.339144    0.242002    1.985734
      5         11           0        3.303638   -1.272915    0.068295
      6         11           0       -3.412488   -0.732492   -0.300087
      7         11           0       -1.597913    2.468196   -0.106774
 ---------------------------------------------------------------------

 SCF Done:  E(UB3LYP) =  -1136.13388212     A.U. after   19 cycles

 The electronic state is 2-A.
 Alpha  occ. eigenvalues --  -38.44765 -38.44576 -38.43759 -38.43688 -38.43485
 Alpha  occ. eigenvalues --  -38.43240 -38.43070  -2.20547  -2.20350  -2.19591
 Alpha  occ. eigenvalues --   -2.19589  -2.19383  -2.19075  -2.18927  -1.14218
 Alpha  occ. eigenvalues --   -1.14202  -1.14188  -1.14024  -1.14011  -1.13991
 Alpha  occ. eigenvalues --   -1.13307  -1.13277  -1.13262  -1.13220  -1.13211
 Alpha  occ. eigenvalues --   -1.13190  -1.13057  -1.13029  -1.12997  -1.12754
 Alpha  occ. eigenvalues --   -1.12743  -1.12701  -1.12623  -1.12603  -1.12533
 Alpha  occ. eigenvalues --   -0.18279  -0.13164  -0.11969  -0.10613
 Alpha virt. eigenvalues --   -0.06388  -0.05384  -0.04133  -0.03290  -0.02762
 Alpha virt. eigenvalues --   -0.02514  -0.02111  -0.01296  -0.00416  -0.00254
 Alpha virt. eigenvalues --   -0.00087   0.00296   0.00686   0.00765   0.00825

  Beta  occ. eigenvalues --  -38.44760 -38.44579 -38.43755 -38.43620 -38.43394
  Beta  occ. eigenvalues --  -38.43235 -38.43060  -2.20541  -2.20357  -2.19586
  Beta  occ. eigenvalues --   -2.19464  -2.19217  -2.19069  -2.18912  -1.14200
  Beta  occ. eigenvalues --   -1.14197  -1.14186  -1.14023  -1.14011  -1.13996
  Beta  occ. eigenvalues --   -1.13284  -1.13244  -1.13212  -1.13191  -1.13140
  Beta  occ. eigenvalues --   -1.13101  -1.12949  -1.12912  -1.12880  -1.12743
  Beta  occ. eigenvalues --   -1.12717  -1.12699  -1.12615  -1.12560  -1.12528
  Beta  occ. eigenvalues --   -0.17543  -0.12988  -0.11730
  Beta virt. eigenvalues --   -0.06745  -0.06278  -0.05406  -0.04088  -0.02574
  Beta virt. eigenvalues --   -0.02040  -0.01939  -0.01484  -0.01259  -0.00471
  Beta virt. eigenvalues --   -0.00267   0.00067   0.00319   0.00758   0.00811

 Mulliken charges and spin densities:
               1          2
     1  Na  -0.210706   0.698538
     2  Na   0.143188  -0.125852
     3  Na   0.061794  -0.113826
     4  Na  -0.239255   0.747627
     5  Na   0.073619  -0.092923
     6  Na   0.078813  -0.014131
     7  Na   0.092547  -0.099433
 Sum of Mulliken charges =  -0.00000   1.00000

 Dipole moment (field-independent basis, Debye):
    X=              0.0553    Y=             -0.1031    Z=             -0.0476  Tot=              0.1263
 Quadrupole moment (field-independent basis, Debye-Ang):
   XX=            -50.2054   YY=            -67.4914   ZZ=            -74.6976
   XY=             -0.5352   XZ=              1.7535   YZ=             -0.7066

 Normal termination of Gaussian 16 at Tue Dec  5 20:31:25 2023.
