 Gaussian 16, Revision B.01,
 Gaussian 16:  ES64L-G16RevB.01 20-Dec-2017

 -------------------------
 #P B3LYP/6-311+g(d) force
 -------------------------

 -----
 DPGEN
 -----
 Symbolic Z-matrix:
 Charge =  0 Multiplicity = 2

                         Standard orientation:
 ---------------------------------------------------------------------
 Center     Atomic      Atomic             Coordinates (Angstroms)
 Number     Number       Type             X           Y           Z
 ---------------------------------------------------------------------
      1         11           0        0.062575    0.346546   -1.590084
      2         11           0        1.591067    2.524745   -0.005690
      3         11           0       -0.031830   -2.984282   -0.297654
      4         11           0        3.459631   -0.829538   -0.049383
      5         11           0       -2.819694   -1.338804   -0.150832
      6         11           0       -2.090446    2.421933   -0.105917
      7         11           0       -0.171302   -0.140599    2.199560
 ---------------------------------------------------------------------

 SCF Done:  E(UB3LYP) =  -1136.13422875     A.U. after   19 cycles

 The electronic state is 2-A.
 Alpha  occ. eigenvalues --  -38.44305 -38.43985 -38.43827 -38.43768 -38.43754
 Alpha  occ. eigenvalues --  -38.43654 -38.43315  -2.20051  -2.19821  -2.19664
 Alpha  occ. eigenvalues --   -2.19596  -2.19583  -2.19483  -2.19264  -1.13730
 Alpha  occ. eigenvalues --   -1.13708  -1.13694  -1.13556  -1.13484  -1.13423
 Alpha  occ. eigenvalues --   -1.13353  -1.13329  -1.13314  -1.13268  -1.13253
 Alpha  occ. eigenvalues --   -1.13240  -1.13220  -1.13217  -1.13213  -1.13158
 Alpha  occ. eigenvalues --   -1.13140  -1.13108  -1.12949  -1.12908  -1.12873
 Alpha  occ. eigenvalues --   -0.18153  -0.12836  -0.12328  -0.10587
 Alpha virt. eigenvalues --   -0.05823  -0.05301  -0.04959  -0.03108  -0.02795
 Alpha virt. eigenvalues --   -0.02598  -0.01664  -0.01305  -0.00604  -0.00565
 Alpha virt. eigenvalues --   -0.00044   0.00324   0.00747   0.00804   0.00841

  Beta  occ. eigenvalues --  -38.44309 -38.43980 -38.43822 -38.43764 -38.43648
  Beta  occ. eigenvalues --  -38.43647 -38.43261  -2.20059  -2.19815  -2.19658
  Beta  occ. eigenvalues --   -2.19580  -2.19474  -2.19398  -2.19166  -1.13725
  Beta  occ. eigenvalues --   -1.13715  -1.13700  -1.13546  -1.13462  -1.13424
  Beta  occ. eigenvalues --   -1.13351  -1.13313  -1.13300  -1.13258  -1.13225
  Beta  occ. eigenvalues --   -1.13220  -1.13149  -1.13126  -1.13115  -1.13105
  Beta  occ. eigenvalues --   -1.13076  -1.13075  -1.12880  -1.12837  -1.12802
  Beta  occ. eigenvalues --   -0.17435  -0.12627  -0.12162
  Beta virt. eigenvalues --   -0.06634  -0.05820  -0.05281  -0.04870  -0.02322
  Beta virt. eigenvalues --   -0.02112  -0.01621  -0.01484  -0.01229  -0.00649
  Beta virt. eigenvalues --   -0.00608   0.00122   0.00360   0.00792   0.00828

 Mulliken charges and spin densities:
               1          2
     1  Na  -0.044014   0.394222
     2  Na   0.167445  -0.053749
     3  Na   0.034981  -0.051588
     4  Na  -0.044844  -0.078248
     5  Na   0.219388  -0.000175
     6  Na   0.196304  -0.028910
     7  Na  -0.529260   0.818449
 Sum of Mulliken charges =  -0.00000   1.00000

 Dipole moment (field-independent basis, Debye):
    X=              0.0856    Y=              0.1094    Z=              0.0986  Tot=              0.1704
 Quadrupole moment (field-independent basis, Debye-Ang):
   XX=            -56.4520   YY=            -61.1586   ZZ=            -75.7011
   XY=             -0.9683   XZ=              0.5426   YZ=              1.0127

 Normal termination of Gaussian 16 at Thu Dec  7 19:46:29 2023.
