 Gaussian 16, Revision B.01,
 Gaussian 16:  ES64L-G16RevB.01 20-Dec-2017

 -------------------------
 #P B3LYP/6-311+g(d) force
 -------------------------

 -----
 DPGEN
 -----
 Symbolic Z-matrix:
 Charge =  0 Multiplicity = 2

                         Standard orientation:
 ---------------------------------------------------------------------
 Center     Atomic      Atomic             Coordinates (Angstroms)
 Number     Number       Type             X           Y           Z
 ---------------------------------------------------------------------
      1         11           0       -0.379597    0.581080    1.983972
      2         11           0       -0.180745    2.965072   -0.473798
      3         11           0       -3.281578    0.079376   -0.617274
      4         11           0       -1.270292   -2.017248    0.823703
      5         11           0       -0.130161   -0.462637   -1.456333
      6         11           0        2.954124    1.525481    0.141456
      7         11           0        2.288248   -2.671125   -0.401728
 ---------------------------------------------------------------------

 SCF Done:  E(UB3LYP) =  -1136.12805972     A.U. after   19 cycles

 The electronic state is 2-A.
 Alpha  occ. eigenvalues --  -38.44617 -38.44024 -38.43749 -38.43684 -38.43508
 Alpha  occ. eigenvalues --  -38.43485 -38.43251  -2.20380  -2.19874  -2.19679
 Alpha  occ. eigenvalues --   -2.19512  -2.19464  -2.19286  -2.19240  -1.14066
 Alpha  occ. eigenvalues --   -1.14034  -1.14014  -1.13561  -1.13535  -1.13507
 Alpha  occ. eigenvalues --   -1.13452  -1.13318  -1.13280  -1.13222  -1.13192
 Alpha  occ. eigenvalues --   -1.13178  -1.13130  -1.13102  -1.13030  -1.12969
 Alpha  occ. eigenvalues --   -1.12937  -1.12934  -1.12916  -1.12866  -1.12826
 Alpha  occ. eigenvalues --   -0.18513  -0.12934  -0.12208  -0.10910
 Alpha virt. eigenvalues --   -0.05878  -0.05203  -0.04576  -0.03255  -0.02753
 Alpha virt. eigenvalues --   -0.02529  -0.01747  -0.01235  -0.00390  -0.00328
 Alpha virt. eigenvalues --    0.00031   0.00301   0.00692   0.00811   0.00862

  Beta  occ. eigenvalues --  -38.44619 -38.44006 -38.43676 -38.43655 -38.43507
  Beta  occ. eigenvalues --  -38.43453 -38.43204  -2.20385  -2.19842  -2.19507
  Beta  occ. eigenvalues --   -2.19499  -2.19411  -2.19285  -2.19154  -1.14060
  Beta  occ. eigenvalues --   -1.14037  -1.14019  -1.13540  -1.13495  -1.13482
  Beta  occ. eigenvalues --   -1.13348  -1.13217  -1.13180  -1.13169  -1.13162
  Beta  occ. eigenvalues --   -1.13145  -1.13118  -1.13021  -1.12997  -1.12959
  Beta  occ. eigenvalues --   -1.12937  -1.12931  -1.12858  -1.12807  -1.12757
  Beta  occ. eigenvalues --   -0.17775  -0.12746  -0.11993
  Beta virt. eigenvalues --   -0.06901  -0.05839  -0.05100  -0.04491  -0.02551
  Beta virt. eigenvalues --   -0.02182  -0.01692  -0.01457  -0.01145  -0.00407
  Beta virt. eigenvalues --   -0.00194   0.00127   0.00352   0.00728   0.00875

 Mulliken charges and spin densities:
               1          2
     1  Na  -0.071841   0.367674
     2  Na  -0.069349  -0.034301
     3  Na   0.037888   0.015889
     4  Na   0.514005   0.220303
     5  Na  -0.237719   0.563101
     6  Na  -0.117610  -0.051949
     7  Na  -0.055373  -0.080716
 Sum of Mulliken charges =  -0.00000   1.00000

 Dipole moment (field-independent basis, Debye):
    X=              0.1309    Y=              0.5625    Z=              0.0547  Tot=              0.5801
 Quadrupole moment (field-independent basis, Debye-Ang):
   XX=            -54.9820   YY=            -63.9904   ZZ=            -73.8604
   XY=             -0.2111   XZ=              1.5235   YZ=             -1.6960

 Normal termination of Gaussian 16 at Sun Dec  3 19:38:41 2023.
