 Gaussian 16, Revision B.01,
 Gaussian 16:  ES64L-G16RevB.01 20-Dec-2017

 -------------------------
 #P B3LYP/6-311+g(d) force
 -------------------------

 -----
 DPGEN
 -----
 Symbolic Z-matrix:
 Charge =  0 Multiplicity = 2

                         Standard orientation:
 ---------------------------------------------------------------------
 Center     Atomic      Atomic             Coordinates (Angstroms)
 Number     Number       Type             X           Y           Z
 ---------------------------------------------------------------------
      1         11           0        1.198779   -1.700482    0.144526
      2         11           0        5.463856   -0.580773   -0.544759
      3         11           0        2.737590    1.415065   -0.402090
      4         11           0       -0.572564    1.892246   -0.181955
      5         11           0       -2.439911   -0.997841   -0.932669
      6         11           0       -0.646593   -0.034409    2.459420
      7         11           0       -5.741157    0.006194   -0.542473
 ---------------------------------------------------------------------

 SCF Done:  E(UB3LYP) =  -1136.11211615     A.U. after   23 cycles

 The electronic state is 2-A.
 Alpha  occ. eigenvalues --  -38.45410 -38.45087 -38.44435 -38.44094 -38.43874
 Alpha  occ. eigenvalues --  -38.43837 -38.43635  -2.21230  -2.20925  -2.20332
 Alpha  occ. eigenvalues --   -2.19857  -2.19730  -2.19652  -2.19381  -1.14913
 Alpha  occ. eigenvalues --   -1.14883  -1.14870  -1.14615  -1.14582  -1.14510
 Alpha  occ. eigenvalues --   -1.14006  -1.13967  -1.13947  -1.13530  -1.13526
 Alpha  occ. eigenvalues --   -1.13495  -1.13421  -1.13398  -1.13350  -1.13329
 Alpha  occ. eigenvalues --   -1.13327  -1.13259  -1.13055  -1.13052  -1.13011
 Alpha  occ. eigenvalues --   -0.17978  -0.13383  -0.11585  -0.11213
 Alpha virt. eigenvalues --   -0.07419  -0.05943  -0.04341  -0.03233  -0.02868
 Alpha virt. eigenvalues --   -0.02455  -0.02210  -0.02087  -0.01435  -0.00885
 Alpha virt. eigenvalues --   -0.00261   0.00165   0.00256   0.00402   0.00510

  Beta  occ. eigenvalues --  -38.45397 -38.45021 -38.44356 -38.44094 -38.43839
  Beta  occ. eigenvalues --  -38.43825 -38.43644  -2.21211  -2.20804  -2.20188
  Beta  occ. eigenvalues --   -2.19856  -2.19668  -2.19631  -2.19398  -1.14884
  Beta  occ. eigenvalues --   -1.14872  -1.14846  -1.14530  -1.14501  -1.14415
  Beta  occ. eigenvalues --   -1.13909  -1.13859  -1.13846  -1.13529  -1.13524
  Beta  occ. eigenvalues --   -1.13492  -1.13384  -1.13360  -1.13332  -1.13314
  Beta  occ. eigenvalues --   -1.13258  -1.13238  -1.13067  -1.13063  -1.13021
  Beta  occ. eigenvalues --   -0.17175  -0.13261  -0.11198
  Beta virt. eigenvalues --   -0.07452  -0.07168  -0.05760  -0.03869  -0.02802
  Beta virt. eigenvalues --   -0.02575  -0.02072  -0.01902  -0.01750  -0.01049
  Beta virt. eigenvalues --   -0.00788  -0.00188   0.00325   0.00457   0.00508

 Mulliken charges and spin densities:
               1          2
     1  Na  -0.568246   0.524253
     2  Na   0.561732   0.009700
     3  Na  -0.147153  -0.075821
     4  Na  -0.296357   0.594980
     5  Na  -0.271782  -0.099609
     6  Na   0.435785   0.078298
     7  Na   0.286020  -0.031801
 Sum of Mulliken charges =  -0.00000   1.00000

 Dipole moment (field-independent basis, Debye):
    X=              0.7491    Y=             -0.0330    Z=              1.6664  Tot=              1.8273
 Quadrupole moment (field-independent basis, Debye-Ang):
   XX=            -67.6360   YY=            -70.5738   ZZ=            -66.8714
   XY=             -6.0997   XZ=             -5.1691   YZ=              1.7238

 Normal termination of Gaussian 16 at Tue Nov 28 21:27:28 2023.
