 Gaussian 16, Revision B.01,
 Gaussian 16:  ES64L-G16RevB.01 20-Dec-2017

 -------------------------
 #P B3LYP/6-311+g(d) force
 -------------------------

 -----
 DPGEN
 -----
 Symbolic Z-matrix:
 Charge =  0 Multiplicity = 2

                         Standard orientation:
 ---------------------------------------------------------------------
 Center     Atomic      Atomic             Coordinates (Angstroms)
 Number     Number       Type             X           Y           Z
 ---------------------------------------------------------------------
      1         11           0        2.502726    0.671838   -1.709902
      2         11           0       -1.404201    1.636689   -1.041426
      3         11           0       -4.873646   -0.162307   -0.195320
      4         11           0       -1.902573   -2.082373   -0.237951
      5         11           0        0.745950   -1.211553    1.978963
      6         11           0        3.976861   -1.432256   -0.402069
      7         11           0        0.954884    2.579963    1.607704
 ---------------------------------------------------------------------

 SCF Done:  E(UB3LYP) =  -1136.11051155     A.U. after   23 cycles

 The electronic state is 2-A.
 Alpha  occ. eigenvalues --  -38.45200 -38.44776 -38.44604 -38.44438 -38.44193
 Alpha  occ. eigenvalues --  -38.43562 -38.43479  -2.20954  -2.20581  -2.20388
 Alpha  occ. eigenvalues --   -2.20293  -2.19965  -2.19333  -2.19313  -1.14624
 Alpha  occ. eigenvalues --   -1.14615  -1.14574  -1.14249  -1.14203  -1.14197
 Alpha  occ. eigenvalues --   -1.14074  -1.14066  -1.14018  -1.13997  -1.13949
 Alpha  occ. eigenvalues --   -1.13890  -1.13677  -1.13645  -1.13552  -1.13010
 Alpha  occ. eigenvalues --   -1.13007  -1.13000  -1.12959  -1.12953  -1.12928
 Alpha  occ. eigenvalues --   -0.16797  -0.13667  -0.11567  -0.11234
 Alpha virt. eigenvalues --   -0.07121  -0.05308  -0.04220  -0.03485  -0.03210
 Alpha virt. eigenvalues --   -0.02773  -0.02427  -0.01523  -0.00810  -0.00462
 Alpha virt. eigenvalues --   -0.00282  -0.00023   0.00166   0.00547   0.00669

  Beta  occ. eigenvalues --  -38.45183 -38.44676 -38.44588 -38.44385 -38.44183
  Beta  occ. eigenvalues --  -38.43551 -38.43473  -2.20923  -2.20396  -2.20360
  Beta  occ. eigenvalues --   -2.20194  -2.19946  -2.19315  -2.19306  -1.14602
  Beta  occ. eigenvalues --   -1.14592  -1.14555  -1.14123  -1.14076  -1.14070
  Beta  occ. eigenvalues --   -1.14059  -1.14040  -1.13959  -1.13954  -1.13884
  Beta  occ. eigenvalues --   -1.13816  -1.13664  -1.13629  -1.13539  -1.12991
  Beta  occ. eigenvalues --   -1.12991  -1.12982  -1.12951  -1.12948  -1.12920
  Beta  occ. eigenvalues --   -0.16122  -0.13326  -0.11046
  Beta virt. eigenvalues --   -0.07886  -0.06712  -0.05062  -0.03899  -0.03079
  Beta virt. eigenvalues --   -0.02825  -0.02350  -0.02129  -0.01188  -0.00621
  Beta virt. eigenvalues --   -0.00350  -0.00217   0.00065   0.00338   0.00639

 Mulliken charges and spin densities:
               1          2
     1  Na  -0.006900   0.409838
     2  Na  -0.253825   0.186076
     3  Na   0.329200   0.072545
     4  Na  -0.242387   0.051324
     5  Na   0.205070   0.506607
     6  Na   0.134408  -0.169856
     7  Na  -0.165566  -0.056534
 Sum of Mulliken charges =  -0.00000   1.00000

 Dipole moment (field-independent basis, Debye):
    X=             -1.4714    Y=              0.1149    Z=              0.3396  Tot=              1.5144
 Quadrupole moment (field-independent basis, Debye-Ang):
   XX=            -57.9818   YY=            -73.4863   ZZ=            -67.2272
   XY=             -0.5671   XZ=              3.2659   YZ=             -0.4921

 Normal termination of Gaussian 16 at Mon Dec  4 05:06:42 2023.
