 Gaussian 16, Revision B.01,
 Gaussian 16:  ES64L-G16RevB.01 20-Dec-2017

 -------------------------
 #P B3LYP/6-311+g(d) force
 -------------------------

 -----
 DPGEN
 -----
 Symbolic Z-matrix:
 Charge =  0 Multiplicity = 2

                         Standard orientation:
 ---------------------------------------------------------------------
 Center     Atomic      Atomic             Coordinates (Angstroms)
 Number     Number       Type             X           Y           Z
 ---------------------------------------------------------------------
      1         11           0        4.657626   -1.940603   -0.696464
      2         11           0        1.609088   -0.438705    0.485239
      3         11           0       -0.001912    2.053079    1.992834
      4         11           0        0.274461    3.430149   -1.308834
      5         11           0       -3.743589   -1.855138   -1.005819
      6         11           0       -1.468373   -1.450431    1.642810
      7         11           0       -1.327302    0.201649   -1.109765
 ---------------------------------------------------------------------

 SCF Done:  E(UB3LYP) =  -1136.11855601     A.U. after   22 cycles

 The electronic state is 2-A.
 Alpha  occ. eigenvalues --  -38.44824 -38.44506 -38.44190 -38.44038 -38.43941
 Alpha  occ. eigenvalues --  -38.43851 -38.43077  -2.20661  -2.20384  -2.20016
 Alpha  occ. eigenvalues --   -2.19969  -2.19709  -2.19645  -2.18937  -1.14350
 Alpha  occ. eigenvalues --   -1.14320  -1.14265  -1.14096  -1.14052  -1.13977
 Alpha  occ. eigenvalues --   -1.13733  -1.13672  -1.13665  -1.13653  -1.13640
 Alpha  occ. eigenvalues --   -1.13525  -1.13358  -1.13357  -1.13324  -1.13308
 Alpha  occ. eigenvalues --   -1.13304  -1.13266  -1.12659  -1.12608  -1.12566
 Alpha  occ. eigenvalues --   -0.17987  -0.13193  -0.11963  -0.11380
 Alpha virt. eigenvalues --   -0.06536  -0.05342  -0.04888  -0.03123  -0.02813
 Alpha virt. eigenvalues --   -0.02187  -0.01809  -0.01682  -0.01276  -0.00413
 Alpha virt. eigenvalues --   -0.00147  -0.00049   0.00173   0.00493   0.00703

  Beta  occ. eigenvalues --  -38.44790 -38.44467 -38.44177 -38.44014 -38.43872
  Beta  occ. eigenvalues --  -38.43824 -38.43086  -2.20601  -2.20314  -2.19992
  Beta  occ. eigenvalues --   -2.19926  -2.19595  -2.19582  -2.18960  -1.14316
  Beta  occ. eigenvalues --   -1.14277  -1.14206  -1.14053  -1.14010  -1.13908
  Beta  occ. eigenvalues --   -1.13709  -1.13655  -1.13636  -1.13632  -1.13607
  Beta  occ. eigenvalues --   -1.13493  -1.13272  -1.13271  -1.13270  -1.13266
  Beta  occ. eigenvalues --   -1.13240  -1.13237  -1.12680  -1.12619  -1.12543
  Beta  occ. eigenvalues --   -0.17423  -0.13026  -0.11225
  Beta virt. eigenvalues --   -0.07957  -0.06259  -0.04885  -0.04597  -0.02753
  Beta virt. eigenvalues --   -0.02655  -0.01800  -0.01688  -0.01347  -0.00913
  Beta virt. eigenvalues --   -0.00206   0.00005   0.00097   0.00406   0.00606

 Mulliken charges and spin densities:
               1          2
     1  Na  -0.020260   0.354386
     2  Na  -0.648791   0.264034
     3  Na   0.596687   0.038858
     4  Na   0.057147  -0.044760
     5  Na   0.595587   0.103194
     6  Na   0.371905   0.111271
     7  Na  -0.952275   0.173019
 Sum of Mulliken charges =  -0.00000   1.00000

 Dipole moment (field-independent basis, Debye):
    X=             -1.5891    Y=              0.4547    Z=              0.6235  Tot=              1.7666
 Quadrupole moment (field-independent basis, Debye-Ang):
   XX=            -63.9851   YY=            -64.6585   ZZ=            -65.0663
   XY=              6.5114   XZ=             -2.7458   YZ=              1.9575

 Normal termination of Gaussian 16 at Tue Dec  5 13:08:55 2023.
