 Gaussian 16, Revision B.01,
 Gaussian 16:  ES64L-G16RevB.01 20-Dec-2017

 -------------------------
 #P B3LYP/6-311+g(d) force
 -------------------------

 -----
 DPGEN
 -----
 Symbolic Z-matrix:
 Charge =  0 Multiplicity = 2

                         Standard orientation:
 ---------------------------------------------------------------------
 Center     Atomic      Atomic             Coordinates (Angstroms)
 Number     Number       Type             X           Y           Z
 ---------------------------------------------------------------------
      1         11           0        2.095143    2.096838   -0.409865
      2         11           0       -1.324249    1.548499   -1.018421
      3         11           0       -0.233171   -0.491655    1.906665
      4         11           0        4.043149   -0.579213    0.622417
      5         11           0       -3.790764    0.540078    0.950405
      6         11           0       -2.132065   -1.759207   -1.091968
      7         11           0        1.341957   -1.355340   -0.959233
 ---------------------------------------------------------------------

 SCF Done:  E(UB3LYP) =  -1136.11856094     A.U. after   33 cycles

 The electronic state is 2-A.
 Alpha  occ. eigenvalues --  -38.45926 -38.45345 -38.44864 -38.43748 -38.43149
 Alpha  occ. eigenvalues --  -38.42915 -38.42776  -2.21720  -2.21158  -2.20701
 Alpha  occ. eigenvalues --   -2.19613  -2.19062  -2.18745  -2.18666  -1.15422
 Alpha  occ. eigenvalues --   -1.15365  -1.15332  -1.14836  -1.14796  -1.14790
 Alpha  occ. eigenvalues --   -1.14360  -1.14348  -1.14327  -1.13296  -1.13255
 Alpha  occ. eigenvalues --   -1.13252  -1.12771  -1.12717  -1.12688  -1.12430
 Alpha  occ. eigenvalues --   -1.12423  -1.12383  -1.12349  -1.12330  -1.12291
 Alpha  occ. eigenvalues --   -0.18364  -0.14522  -0.11020  -0.10680
 Alpha virt. eigenvalues --   -0.07638  -0.05124  -0.04797  -0.03229  -0.03038
 Alpha virt. eigenvalues --   -0.02234  -0.02083  -0.01383  -0.01131  -0.00235
 Alpha virt. eigenvalues --   -0.00102   0.00200   0.00220   0.00616   0.00666

  Beta  occ. eigenvalues --  -38.45891 -38.45323 -38.44815 -38.43718 -38.43123
  Beta  occ. eigenvalues --  -38.42912 -38.42751  -2.21656  -2.21117  -2.20609
  Beta  occ. eigenvalues --   -2.19564  -2.19020  -2.18743  -2.18622  -1.15369
  Beta  occ. eigenvalues --   -1.15323  -1.15282  -1.14811  -1.14767  -1.14761
  Beta  occ. eigenvalues --   -1.14295  -1.14287  -1.14262  -1.13252  -1.13223
  Beta  occ. eigenvalues --   -1.13204  -1.12747  -1.12666  -1.12646  -1.12426
  Beta  occ. eigenvalues --   -1.12418  -1.12373  -1.12325  -1.12279  -1.12257
  Beta  occ. eigenvalues --   -0.17707  -0.14221  -0.10449
  Beta virt. eigenvalues --   -0.07477  -0.07179  -0.05142  -0.04142  -0.02927
  Beta virt. eigenvalues --   -0.02828  -0.01703  -0.01466  -0.01089  -0.00886
  Beta virt. eigenvalues --   -0.00204  -0.00013   0.00237   0.00378   0.00693

 Mulliken charges and spin densities:
               1          2
     1  Na  -0.252321  -0.081252
     2  Na  -0.704486   0.173021
     3  Na  -0.597107   0.274726
     4  Na   1.157830   0.252775
     5  Na   0.933459   0.246175
     6  Na   0.111649   0.010419
     7  Na  -0.649023   0.124138
 Sum of Mulliken charges =  -0.00000   1.00000

 Dipole moment (field-independent basis, Debye):
    X=              0.1613    Y=             -0.6308    Z=              0.8115  Tot=              1.0404
 Quadrupole moment (field-independent basis, Debye-Ang):
   XX=            -44.3704   YY=            -81.3122   ZZ=            -68.4324
   XY=              0.3080   XZ=              2.3998   YZ=              2.3634

 Normal termination of Gaussian 16 at Fri Dec  8 01:28:09 2023.
