 Gaussian 16, Revision B.01,
 Gaussian 16:  ES64L-G16RevB.01 20-Dec-2017

 -------------------------
 #P B3LYP/6-311+g(d) force
 -------------------------

 -----
 DPGEN
 -----
 Symbolic Z-matrix:
 Charge =  0 Multiplicity = 2

                         Standard orientation:
 ---------------------------------------------------------------------
 Center     Atomic      Atomic             Coordinates (Angstroms)
 Number     Number       Type             X           Y           Z
 ---------------------------------------------------------------------
      1         11           0       -2.168012    1.333276    1.285429
      2         11           0        0.606276   -0.536518   -1.643512
      3         11           0        1.727348   -0.976081    1.913227
      4         11           0        1.650373    2.314021    0.100343
      5         11           0        4.339136   -0.434566   -0.869988
      6         11           0       -4.048364    0.315847   -1.253075
      7         11           0       -2.106757   -2.015979    0.467577
 ---------------------------------------------------------------------

 SCF Done:  E(UB3LYP) =  -1136.10831215     A.U. after   36 cycles

 The electronic state is 2-A.
 Alpha  occ. eigenvalues --  -38.45776 -38.45220 -38.45135 -38.45020 -38.43680
 Alpha  occ. eigenvalues --  -38.43624 -38.42800  -2.21551  -2.21009  -2.20906
 Alpha  occ. eigenvalues --   -2.20835  -2.19507  -2.19433  -2.18601  -1.15246
 Alpha  occ. eigenvalues --   -1.15223  -1.15169  -1.14673  -1.14646  -1.14640
 Alpha  occ. eigenvalues --   -1.14577  -1.14556  -1.14519  -1.14493  -1.14484
 Alpha  occ. eigenvalues --   -1.14455  -1.13204  -1.13180  -1.13134  -1.13123
 Alpha  occ. eigenvalues --   -1.13102  -1.13051  -1.12311  -1.12265  -1.12215
 Alpha  occ. eigenvalues --   -0.17490  -0.14434  -0.11013  -0.10112
 Alpha virt. eigenvalues --   -0.07500  -0.05798  -0.05110  -0.03235  -0.02961
 Alpha virt. eigenvalues --   -0.02296  -0.02160  -0.01818  -0.01024  -0.00550
 Alpha virt. eigenvalues --   -0.00211   0.00068   0.00143   0.00347   0.00440

  Beta  occ. eigenvalues --  -38.45771 -38.45157 -38.45096 -38.44974 -38.43662
  Beta  occ. eigenvalues --  -38.43623 -38.42799  -2.21543  -2.20894  -2.20832
  Beta  occ. eigenvalues --   -2.20748  -2.19475  -2.19434  -2.18599  -1.15229
  Beta  occ. eigenvalues --   -1.15215  -1.15161  -1.14592  -1.14560  -1.14556
  Beta  occ. eigenvalues --   -1.14522  -1.14505  -1.14472  -1.14434  -1.14424
  Beta  occ. eigenvalues --   -1.14399  -1.13187  -1.13163  -1.13112  -1.13103
  Beta  occ. eigenvalues --   -1.13083  -1.13047  -1.12311  -1.12262  -1.12207
  Beta  occ. eigenvalues --   -0.16907  -0.14034  -0.09983
  Beta virt. eigenvalues --   -0.07467  -0.07268  -0.05134  -0.04965  -0.03008
  Beta virt. eigenvalues --   -0.02685  -0.01771  -0.01733  -0.01345  -0.00872
  Beta virt. eigenvalues --   -0.00436  -0.00104   0.00157   0.00231   0.00462

 Mulliken charges and spin densities:
               1          2
     1  Na  -0.336867   0.031839
     2  Na  -0.194727  -0.015392
     3  Na  -0.091494   0.347587
     4  Na  -0.204622   0.032536
     5  Na   0.387191   0.200840
     6  Na   0.353070   0.228464
     7  Na   0.087448   0.174126
 Sum of Mulliken charges =  -0.00000   1.00000

 Dipole moment (field-independent basis, Debye):
    X=              0.3593    Y=             -0.4218    Z=             -0.2976  Tot=              0.6289
 Quadrupole moment (field-independent basis, Debye-Ang):
   XX=            -48.9717   YY=            -82.6443   ZZ=            -65.2500
   XY=             -0.7409   XZ=              4.6500   YZ=             -6.0918

 Normal termination of Gaussian 16 at Thu Dec  7 10:04:17 2023.
