 Gaussian 16, Revision B.01,
 Gaussian 16:  ES64L-G16RevB.01 20-Dec-2017

 -------------------------
 #P B3LYP/6-311+g(d) force
 -------------------------

 -----
 DPGEN
 -----
 Symbolic Z-matrix:
 Charge =  0 Multiplicity = 2

                         Standard orientation:
 ---------------------------------------------------------------------
 Center     Atomic      Atomic             Coordinates (Angstroms)
 Number     Number       Type             X           Y           Z
 ---------------------------------------------------------------------
      1         11           0        3.459077   -1.157560    0.324459
      2         11           0       -0.190426    0.122482    1.910993
      3         11           0       -2.159278   -2.176516    0.517701
      4         11           0       -1.125034    2.662384    0.207875
      5         11           0        2.330021    1.924559   -0.642226
      6         11           0       -2.925270    0.373586   -0.991545
      7         11           0        0.610910   -1.748935   -1.327258
 ---------------------------------------------------------------------

 SCF Done:  E(UB3LYP) =  -1136.12628036     A.U. after   21 cycles

 The electronic state is 2-A.
 Alpha  occ. eigenvalues --  -38.44706 -38.44614 -38.44136 -38.44126 -38.43764
 Alpha  occ. eigenvalues --  -38.43308 -38.43023  -2.20508  -2.20400  -2.20023
 Alpha  occ. eigenvalues --   -2.19955  -2.19657  -2.19223  -2.18895  -1.14179
 Alpha  occ. eigenvalues --   -1.14170  -1.14164  -1.14085  -1.14058  -1.14020
 Alpha  occ. eigenvalues --   -1.13726  -1.13680  -1.13659  -1.13640  -1.13632
 Alpha  occ. eigenvalues --   -1.13578  -1.13319  -1.13309  -1.13291  -1.12895
 Alpha  occ. eigenvalues --   -1.12864  -1.12842  -1.12569  -1.12557  -1.12526
 Alpha  occ. eigenvalues --   -0.18164  -0.13773  -0.12243  -0.10437
 Alpha virt. eigenvalues --   -0.06276  -0.05965  -0.04174  -0.03597  -0.02917
 Alpha virt. eigenvalues --   -0.02403  -0.01905  -0.01207  -0.00713  -0.00261
 Alpha virt. eigenvalues --    0.00004   0.00320   0.00608   0.00664   0.00733

  Beta  occ. eigenvalues --  -38.44710 -38.44610 -38.44109 -38.44093 -38.43751
  Beta  occ. eigenvalues --  -38.43208 -38.43016  -2.20516  -2.20393  -2.19944
  Beta  occ. eigenvalues --   -2.19925  -2.19638  -2.19040  -2.18885  -1.14187
  Beta  occ. eigenvalues --   -1.14173  -1.14160  -1.14077  -1.14051  -1.14017
  Beta  occ. eigenvalues --   -1.13671  -1.13630  -1.13619  -1.13600  -1.13597
  Beta  occ. eigenvalues --   -1.13557  -1.13303  -1.13293  -1.13248  -1.12777
  Beta  occ. eigenvalues --   -1.12737  -1.12713  -1.12561  -1.12524  -1.12514
  Beta  occ. eigenvalues --   -0.17512  -0.13519  -0.12040
  Beta virt. eigenvalues --   -0.06684  -0.06126  -0.05868  -0.04088  -0.03001
  Beta virt. eigenvalues --   -0.02216  -0.01893  -0.01421  -0.01099  -0.00660
  Beta virt. eigenvalues --   -0.00198   0.00174   0.00403   0.00699   0.00743

 Mulliken charges and spin densities:
               1          2
     1  Na   0.375104  -0.004365
     2  Na  -0.659664   0.341807
     3  Na   0.702052   0.284565
     4  Na   0.345637   0.289703
     5  Na  -0.151195  -0.061669
     6  Na  -0.243652  -0.010119
     7  Na  -0.368282   0.160078
 Sum of Mulliken charges =  -0.00000   1.00000

 Dipole moment (field-independent basis, Debye):
    X=              1.0652    Y=             -0.3765    Z=             -0.1008  Tot=              1.1343
 Quadrupole moment (field-independent basis, Debye-Ang):
   XX=            -55.3436   YY=            -67.5616   ZZ=            -73.3010
   XY=              1.0375   XZ=              0.9628   YZ=             -2.2924

 Normal termination of Gaussian 16 at Wed Dec  6 00:03:48 2023.
