 Gaussian 16, Revision B.01,
 Gaussian 16:  ES64L-G16RevB.01 20-Dec-2017

 -------------------------
 #P B3LYP/6-311+g(d) force
 -------------------------

 -----
 DPGEN
 -----
 Symbolic Z-matrix:
 Charge =  0 Multiplicity = 2

                         Standard orientation:
 ---------------------------------------------------------------------
 Center     Atomic      Atomic             Coordinates (Angstroms)
 Number     Number       Type             X           Y           Z
 ---------------------------------------------------------------------
      1         11           0        2.820404   -1.685630    0.268553
      2         11           0       -0.411753   -2.335724   -0.324212
      3         11           0       -0.498148    0.170802    1.880012
      4         11           0       -1.526091    2.514861   -0.228119
      5         11           0        2.931147    1.797555    0.167707
      6         11           0        0.368880    0.183751   -1.799324
      7         11           0       -3.684440   -0.645614    0.035384
 ---------------------------------------------------------------------

 SCF Done:  E(UB3LYP) =  -1136.12615342     A.U. after   22 cycles

 The electronic state is 2-A.
 Alpha  occ. eigenvalues --  -38.45467 -38.44403 -38.44074 -38.43995 -38.43537
 Alpha  occ. eigenvalues --  -38.43269 -38.42633  -2.21220  -2.20179  -2.19899
 Alpha  occ. eigenvalues --   -2.19875  -2.19363  -2.19218  -2.18556  -1.14896
 Alpha  occ. eigenvalues --   -1.14878  -1.14852  -1.13855  -1.13843  -1.13818
 Alpha  occ. eigenvalues --   -1.13571  -1.13565  -1.13557  -1.13547  -1.13529
 Alpha  occ. eigenvalues --   -1.13474  -1.13055  -1.13043  -1.12977  -1.12939
 Alpha  occ. eigenvalues --   -1.12842  -1.12820  -1.12267  -1.12222  -1.12149
 Alpha  occ. eigenvalues --   -0.18324  -0.13351  -0.11727  -0.10522
 Alpha virt. eigenvalues --   -0.06822  -0.05498  -0.03805  -0.03335  -0.02637
 Alpha virt. eigenvalues --   -0.02452  -0.02392  -0.01339  -0.00590  -0.00173
 Alpha virt. eigenvalues --   -0.00037   0.00217   0.00607   0.00674   0.00737

  Beta  occ. eigenvalues --  -38.45469 -38.44399 -38.44069 -38.43929 -38.43528
  Beta  occ. eigenvalues --  -38.43182 -38.42615  -2.21227  -2.20174  -2.19892
  Beta  occ. eigenvalues --   -2.19753  -2.19350  -2.19059  -2.18531  -1.14888
  Beta  occ. eigenvalues --   -1.14884  -1.14858  -1.13847  -1.13831  -1.13815
  Beta  occ. eigenvalues --   -1.13558  -1.13548  -1.13536  -1.13485  -1.13443
  Beta  occ. eigenvalues --   -1.13385  -1.13044  -1.13007  -1.12971  -1.12832
  Beta  occ. eigenvalues --   -1.12727  -1.12708  -1.12248  -1.12166  -1.12138
  Beta  occ. eigenvalues --   -0.17599  -0.13154  -0.11478
  Beta virt. eigenvalues --   -0.06807  -0.06587  -0.05480  -0.03776  -0.02668
  Beta virt. eigenvalues --   -0.02359  -0.01842  -0.01419  -0.01254  -0.00619
  Beta virt. eigenvalues --   -0.00074   0.00023   0.00245   0.00720   0.00726

 Mulliken charges and spin densities:
               1          2
     1  Na  -0.018762   0.031363
     2  Na   0.120417  -0.005901
     3  Na  -0.331483   0.746654
     4  Na  -0.035902  -0.206411
     5  Na   0.036522  -0.060640
     6  Na   0.066158   0.551560
     7  Na   0.163051  -0.056625
 Sum of Mulliken charges =  -0.00000   1.00000

 Dipole moment (field-independent basis, Debye):
    X=             -0.5049    Y=              0.1401    Z=              0.1718  Tot=              0.5514
 Quadrupole moment (field-independent basis, Debye-Ang):
   XX=            -47.0160   YY=            -69.1829   ZZ=            -75.1307
   XY=              0.5536   XZ=              1.7902   YZ=             -0.2740

 Normal termination of Gaussian 16 at Thu Dec  7 14:37:42 2023.
