 Gaussian 16, Revision B.01,
 Gaussian 16:  ES64L-G16RevB.01 20-Dec-2017

 -------------------------
 #P B3LYP/6-311+g(d) force
 -------------------------

 -----
 DPGEN
 -----
 Symbolic Z-matrix:
 Charge =  0 Multiplicity = 2

                         Standard orientation:
 ---------------------------------------------------------------------
 Center     Atomic      Atomic             Coordinates (Angstroms)
 Number     Number       Type             X           Y           Z
 ---------------------------------------------------------------------
      1         11           0        0.847586    3.118577   -0.280984
      2         11           0        2.930764    0.113913    0.101955
      3         11           0       -3.270775    0.946678   -0.094713
      4         11           0       -0.302350    0.289981   -1.664010
      5         11           0        0.005863    0.455810    2.110199
      6         11           0        1.577546   -2.556218   -0.354813
      7         11           0       -1.788633   -2.368742    0.182366
 ---------------------------------------------------------------------

 SCF Done:  E(UB3LYP) =  -1136.13472842     A.U. after   19 cycles

 The electronic state is 2-A.
 Alpha  occ. eigenvalues --  -38.44471 -38.43894 -38.43865 -38.43862 -38.43715
 Alpha  occ. eigenvalues --  -38.43283 -38.43217  -2.20255  -2.19765  -2.19689
 Alpha  occ. eigenvalues --   -2.19671  -2.19571  -2.19212  -2.19088  -1.13934
 Alpha  occ. eigenvalues --   -1.13908  -1.13897  -1.13482  -1.13429  -1.13402
 Alpha  occ. eigenvalues --   -1.13369  -1.13362  -1.13354  -1.13328  -1.13320
 Alpha  occ. eigenvalues --   -1.13306  -1.13232  -1.13198  -1.13186  -1.12895
 Alpha  occ. eigenvalues --   -1.12850  -1.12840  -1.12763  -1.12734  -1.12727
 Alpha  occ. eigenvalues --   -0.18330  -0.12922  -0.12466  -0.10677
 Alpha virt. eigenvalues --   -0.06052  -0.05163  -0.04674  -0.03192  -0.02924
 Alpha virt. eigenvalues --   -0.02602  -0.01642  -0.01321  -0.00473  -0.00351
 Alpha virt. eigenvalues --   -0.00017   0.00355   0.00764   0.00848   0.00872

  Beta  occ. eigenvalues --  -38.44470 -38.43889 -38.43861 -38.43856 -38.43618
  Beta  occ. eigenvalues --  -38.43221 -38.43212  -2.20257  -2.19759  -2.19684
  Beta  occ. eigenvalues --   -2.19665  -2.19392  -2.19100  -2.19082  -1.13923
  Beta  occ. eigenvalues --   -1.13907  -1.13898  -1.13481  -1.13403  -1.13393
  Beta  occ. eigenvalues --   -1.13367  -1.13340  -1.13338  -1.13320  -1.13315
  Beta  occ. eigenvalues --   -1.13301  -1.13113  -1.13074  -1.13058  -1.12817
  Beta  occ. eigenvalues --   -1.12772  -1.12760  -1.12757  -1.12724  -1.12708
  Beta  occ. eigenvalues --   -0.17613  -0.12729  -0.12244
  Beta virt. eigenvalues --   -0.06771  -0.06058  -0.05033  -0.04662  -0.02419
  Beta virt. eigenvalues --   -0.02202  -0.01621  -0.01504  -0.01234  -0.00523
  Beta virt. eigenvalues --   -0.00369   0.00133   0.00388   0.00762   0.00883

 Mulliken charges and spin densities:
               1          2
     1  Na   0.129528  -0.096200
     2  Na   0.244550   0.092875
     3  Na   0.095815  -0.101336
     4  Na  -0.065820   0.420695
     5  Na  -0.386428   0.643016
     6  Na  -0.067689  -0.019383
     7  Na   0.050044   0.060332
 Sum of Mulliken charges =  -0.00000   1.00000

 Dipole moment (field-independent basis, Debye):
    X=             -0.5225    Y=              0.4406    Z=              0.1166  Tot=              0.6933
 Quadrupole moment (field-independent basis, Debye-Ang):
   XX=            -57.7320   YY=            -61.1025   ZZ=            -74.9432
   XY=              0.0495   XZ=             -0.6387   YZ=             -0.3111

 Normal termination of Gaussian 16 at Fri Dec  8 06:42:44 2023.
