 Gaussian 16, Revision B.01,
 Gaussian 16:  ES64L-G16RevB.01 20-Dec-2017

 -------------------------
 #P B3LYP/6-311+g(d) force
 -------------------------

 -----
 DPGEN
 -----
 Symbolic Z-matrix:
 Charge =  0 Multiplicity = 2

                         Standard orientation:
 ---------------------------------------------------------------------
 Center     Atomic      Atomic             Coordinates (Angstroms)
 Number     Number       Type             X           Y           Z
 ---------------------------------------------------------------------
      1         11           0       -4.116283   -0.561705    0.327573
      2         11           0        1.072020   -3.401009   -0.922883
      3         11           0       -2.312712   -3.065504    0.823661
      4         11           0       -2.762869    3.158342   -0.703894
      5         11           0        3.871064    1.709648    1.018029
      6         11           0        3.902768   -1.235776   -0.409163
      7         11           0        0.346012    3.396003   -0.133323
 ---------------------------------------------------------------------

 SCF Done:  E(UB3LYP) =  -1136.10753953     A.U. after   20 cycles

 The electronic state is 2-A.
 Alpha  occ. eigenvalues --  -38.44933 -38.44876 -38.44792 -38.44518 -38.44437
 Alpha  occ. eigenvalues --  -38.44231 -38.44164  -2.20700  -2.20671  -2.20564
 Alpha  occ. eigenvalues --   -2.20301  -2.20225  -2.20034  -2.19959  -1.14376
 Alpha  occ. eigenvalues --   -1.14372  -1.14352  -1.14344  -1.14325  -1.14299
 Alpha  occ. eigenvalues --   -1.14249  -1.14239  -1.14223  -1.13955  -1.13944
 Alpha  occ. eigenvalues --   -1.13918  -1.13894  -1.13891  -1.13865  -1.13680
 Alpha  occ. eigenvalues --   -1.13672  -1.13666  -1.13617  -1.13613  -1.13598
 Alpha  occ. eigenvalues --   -0.15374  -0.13899  -0.13488  -0.11122
 Alpha virt. eigenvalues --   -0.07528  -0.04791  -0.04624  -0.03596  -0.03502
 Alpha virt. eigenvalues --   -0.02218  -0.02137  -0.01719  -0.01529  -0.01224
 Alpha virt. eigenvalues --   -0.00855  -0.00179  -0.00099   0.00424   0.00741

  Beta  occ. eigenvalues --  -38.44921 -38.44829 -38.44794 -38.44436 -38.44435
  Beta  occ. eigenvalues --  -38.44166 -38.44139  -2.20682  -2.20587  -2.20575
  Beta  occ. eigenvalues --   -2.20228  -2.20148  -2.19916  -2.19913  -1.14366
  Beta  occ. eigenvalues --   -1.14362  -1.14310  -1.14293  -1.14270  -1.14262
  Beta  occ. eigenvalues --   -1.14253  -1.14238  -1.14184  -1.13899  -1.13894
  Beta  occ. eigenvalues --   -1.13852  -1.13847  -1.13839  -1.13809  -1.13599
  Beta  occ. eigenvalues --   -1.13595  -1.13586  -1.13585  -1.13582  -1.13564
  Beta  occ. eigenvalues --   -0.14808  -0.13185  -0.12762
  Beta virt. eigenvalues --   -0.07993  -0.07625  -0.04307  -0.04127  -0.03428
  Beta virt. eigenvalues --   -0.03200  -0.02042  -0.01980  -0.01521  -0.01334
  Beta virt. eigenvalues --   -0.00887  -0.00558   0.00072   0.00096   0.00430

 Mulliken charges and spin densities:
               1          2
     1  Na   0.087047   0.236043
     2  Na  -0.097290   0.361529
     3  Na  -0.089316  -0.067635
     4  Na   0.224099   0.051834
     5  Na   0.073339   0.295065
     6  Na   0.067529   0.033571
     7  Na  -0.265408   0.089592
 Sum of Mulliken charges =  -0.00000   1.00000

 Dipole moment (field-independent basis, Debye):
    X=             -0.3430    Y=              0.1243    Z=              0.0444  Tot=              0.3675
 Quadrupole moment (field-independent basis, Debye-Ang):
   XX=            -61.0648   YY=            -67.6624   ZZ=            -72.1071
   XY=             -1.4004   XZ=              1.2392   YZ=              0.5651

 Normal termination of Gaussian 16 at Sun Dec  3 17:59:52 2023.
