 Gaussian 16, Revision B.01,
 Gaussian 16:  ES64L-G16RevB.01 20-Dec-2017

 -------------------------
 #P B3LYP/6-311+g(d) force
 -------------------------

 -----
 DPGEN
 -----
 Symbolic Z-matrix:
 Charge =  0 Multiplicity = 2

                         Standard orientation:
 ---------------------------------------------------------------------
 Center     Atomic      Atomic             Coordinates (Angstroms)
 Number     Number       Type             X           Y           Z
 ---------------------------------------------------------------------
      1         11           0       -2.265970    2.063818    0.219121
      2         11           0       -1.415782   -1.054896   -0.643432
      3         11           0        2.527448   -1.873613   -0.897025
      4         11           0        1.243569    1.245294    0.532151
      5         11           0        4.393311    1.207952   -0.717038
      6         11           0        0.371261   -1.272244    2.230028
      7         11           0       -4.853837   -0.316310   -0.723804
 ---------------------------------------------------------------------

 SCF Done:  E(UB3LYP) =  -1136.12009431     A.U. after   24 cycles

 The electronic state is 2-A.
 Alpha  occ. eigenvalues --  -38.44962 -38.44641 -38.44163 -38.44115 -38.43664
 Alpha  occ. eigenvalues --  -38.43566 -38.42635  -2.20765  -2.20465  -2.20046
 Alpha  occ. eigenvalues --   -2.19912  -2.19508  -2.19500  -2.18438  -1.14463
 Alpha  occ. eigenvalues --   -1.14414  -1.14355  -1.14164  -1.14128  -1.14069
 Alpha  occ. eigenvalues --   -1.13762  -1.13733  -1.13635  -1.13572  -1.13569
 Alpha  occ. eigenvalues --   -1.13520  -1.13276  -1.13199  -1.13168  -1.13146
 Alpha  occ. eigenvalues --   -1.13117  -1.13081  -1.12113  -1.12102  -1.12073
 Alpha  occ. eigenvalues --   -0.17818  -0.13997  -0.11445  -0.10970
 Alpha virt. eigenvalues --   -0.06752  -0.05669  -0.04366  -0.03113  -0.02963
 Alpha virt. eigenvalues --   -0.02453  -0.02024  -0.01313  -0.01266  -0.00721
 Alpha virt. eigenvalues --   -0.00178   0.00089   0.00423   0.00430   0.00682

  Beta  occ. eigenvalues --  -38.44916 -38.44603 -38.44139 -38.44078 -38.43677
  Beta  occ. eigenvalues --  -38.43513 -38.42634  -2.20679  -2.20398  -2.20005
  Beta  occ. eigenvalues --   -2.19843  -2.19533  -2.19407  -2.18438  -1.14405
  Beta  occ. eigenvalues --   -1.14360  -1.14286  -1.14121  -1.14087  -1.13994
  Beta  occ. eigenvalues --   -1.13732  -1.13691  -1.13601  -1.13525  -1.13517
  Beta  occ. eigenvalues --   -1.13479  -1.13267  -1.13184  -1.13147  -1.13137
  Beta  occ. eigenvalues --   -1.13063  -1.13006  -1.12111  -1.12101  -1.12072
  Beta  occ. eigenvalues --   -0.17105  -0.13700  -0.10881
  Beta virt. eigenvalues --   -0.07685  -0.06353  -0.05173  -0.04178  -0.02792
  Beta virt. eigenvalues --   -0.02493  -0.02018  -0.01895  -0.01107  -0.00803
  Beta virt. eigenvalues --   -0.00482  -0.00107   0.00214   0.00464   0.00547

 Mulliken charges and spin densities:
               1          2
     1  Na   0.145690   0.038961
     2  Na  -1.207511   0.209565
     3  Na   0.231613   0.168399
     4  Na  -0.839765   0.244620
     5  Na   0.504378   0.053592
     6  Na   0.419380   0.107974
     7  Na   0.746215   0.176889
 Sum of Mulliken charges =  -0.00000   1.00000

 Dipole moment (field-independent basis, Debye):
    X=             -1.1141    Y=             -0.8720    Z=              0.6305  Tot=              1.5489
 Quadrupole moment (field-independent basis, Debye-Ang):
   XX=            -65.5067   YY=            -66.5249   ZZ=            -68.1270
   XY=             -3.5737   XZ=              0.5519   YZ=              3.2136

 Normal termination of Gaussian 16 at Tue Nov 28 19:50:05 2023.
