 Gaussian 16, Revision B.01,
 Gaussian 16:  ES64L-G16RevB.01 20-Dec-2017

 -------------------------
 #P B3LYP/6-311+g(d) force
 -------------------------

 -----
 DPGEN
 -----
 Symbolic Z-matrix:
 Charge =  0 Multiplicity = 2

                         Standard orientation:
 ---------------------------------------------------------------------
 Center     Atomic      Atomic             Coordinates (Angstroms)
 Number     Number       Type             X           Y           Z
 ---------------------------------------------------------------------
      1         11           0        2.776812    1.647785    0.255729
      2         11           0       -3.645320    0.541659   -1.055657
      3         11           0        3.831729   -1.167056   -0.695358
      4         11           0       -2.511305   -1.965712    0.350302
      5         11           0       -1.227969    2.159208    0.683734
      6         11           0        0.481302   -0.299691   -1.664621
      7         11           0        0.294752   -0.916192    2.125871
 ---------------------------------------------------------------------

 SCF Done:  E(UB3LYP) =  -1136.11620815     A.U. after   40 cycles

 The electronic state is 2-A.
 Alpha  occ. eigenvalues --  -38.45559 -38.44621 -38.44598 -38.44580 -38.44077
 Alpha  occ. eigenvalues --  -38.43721 -38.42465  -2.21360  -2.20472  -2.20441
 Alpha  occ. eigenvalues --   -2.20414  -2.19889  -2.19569  -2.18293  -1.15066
 Alpha  occ. eigenvalues --   -1.15020  -1.14965  -1.14154  -1.14115  -1.14106
 Alpha  occ. eigenvalues --   -1.14104  -1.14104  -1.14092  -1.14080  -1.14035
 Alpha  occ. eigenvalues --   -1.14025  -1.13569  -1.13550  -1.13529  -1.13241
 Alpha  occ. eigenvalues --   -1.13225  -1.13220  -1.11978  -1.11962  -1.11926
 Alpha  occ. eigenvalues --   -0.17990  -0.14319  -0.11682  -0.10564
 Alpha virt. eigenvalues --   -0.07013  -0.05639  -0.04519  -0.03283  -0.02956
 Alpha virt. eigenvalues --   -0.02681  -0.02478  -0.01289  -0.00826  -0.00376
 Alpha virt. eigenvalues --    0.00037   0.00122   0.00341   0.00420   0.00674

  Beta  occ. eigenvalues --  -38.45531 -38.44586 -38.44572 -38.44485 -38.44097
  Beta  occ. eigenvalues --  -38.43704 -38.42455  -2.21308  -2.20406  -2.20398
  Beta  occ. eigenvalues --   -2.20233  -2.19927  -2.19544  -2.18277  -1.15018
  Beta  occ. eigenvalues --   -1.14988  -1.14927  -1.14117  -1.14094  -1.14077
  Beta  occ. eigenvalues --   -1.14064  -1.14058  -1.14023  -1.13961  -1.13939
  Beta  occ. eigenvalues --   -1.13879  -1.13594  -1.13572  -1.13551  -1.13221
  Beta  occ. eigenvalues --   -1.13207  -1.13178  -1.11967  -1.11948  -1.11904
  Beta  occ. eigenvalues --   -0.17299  -0.14133  -0.10448
  Beta virt. eigenvalues --   -0.07648  -0.06821  -0.05462  -0.03956  -0.02810
  Beta virt. eigenvalues --   -0.02779  -0.02175  -0.01764  -0.01168  -0.00567
  Beta virt. eigenvalues --   -0.00355   0.00065   0.00164   0.00432   0.00555

 Mulliken charges and spin densities:
               1          2
     1  Na   0.110282   0.020480
     2  Na   0.632979   0.245322
     3  Na   0.376258  -0.213499
     4  Na  -0.021938  -0.100513
     5  Na  -0.447278  -0.009828
     6  Na  -0.563375   0.419215
     7  Na  -0.086928   0.638823
 Sum of Mulliken charges =  -0.00000   1.00000

 Dipole moment (field-independent basis, Debye):
    X=              0.7021    Y=              0.1065    Z=             -0.0643  Tot=              0.7130
 Quadrupole moment (field-independent basis, Debye-Ang):
   XX=            -55.1186   YY=            -73.9031   ZZ=            -70.3823
   XY=             -0.9093   XZ=              3.2916   YZ=             -4.5717

 Normal termination of Gaussian 16 at Fri Dec  8 05:36:06 2023.
