 Gaussian 16, Revision B.01,
 Gaussian 16:  ES64L-G16RevB.01 20-Dec-2017

 -------------------------
 #P B3LYP/6-311+g(d) force
 -------------------------

 -----
 DPGEN
 -----
 Symbolic Z-matrix:
 Charge =  0 Multiplicity = 2

                         Standard orientation:
 ---------------------------------------------------------------------
 Center     Atomic      Atomic             Coordinates (Angstroms)
 Number     Number       Type             X           Y           Z
 ---------------------------------------------------------------------
      1         11           0       -2.968987   -1.892805   -0.245864
      2         11           0        0.541750    3.052899    0.029393
      3         11           0        2.916325    0.758259    0.019556
      4         11           0       -2.675812    1.433412   -0.012873
      5         11           0       -0.104345   -0.592353    1.949011
      6         11           0        2.127400   -2.678364   -0.177898
      7         11           0        0.163669   -0.081049   -1.561325
 ---------------------------------------------------------------------

 SCF Done:  E(UB3LYP) =  -1136.13419261     A.U. after   19 cycles

 The electronic state is 2-A.
 Alpha  occ. eigenvalues --  -38.44435 -38.44176 -38.44102 -38.43944 -38.43371
 Alpha  occ. eigenvalues --  -38.43314 -38.43052  -2.20224  -2.20041  -2.19935
 Alpha  occ. eigenvalues --   -2.19745  -2.19249  -2.19231  -2.18891  -1.13891
 Alpha  occ. eigenvalues --   -1.13888  -1.13870  -1.13738  -1.13707  -1.13667
 Alpha  occ. eigenvalues --   -1.13612  -1.13603  -1.13563  -1.13414  -1.13401
 Alpha  occ. eigenvalues --   -1.13391  -1.12961  -1.12900  -1.12881  -1.12872
 Alpha  occ. eigenvalues --   -1.12857  -1.12843  -1.12560  -1.12551  -1.12542
 Alpha  occ. eigenvalues --   -0.18244  -0.13343  -0.12177  -0.10191
 Alpha virt. eigenvalues --   -0.06089  -0.05604  -0.04703  -0.03212  -0.02630
 Alpha virt. eigenvalues --   -0.02157  -0.01818  -0.01454  -0.00822  -0.00444
 Alpha virt. eigenvalues --   -0.00002   0.00322   0.00710   0.00746   0.00820

  Beta  occ. eigenvalues --  -38.44433 -38.44170 -38.44097 -38.43941 -38.43278
  Beta  occ. eigenvalues --  -38.43257 -38.43050  -2.20222  -2.20033  -2.19929
  Beta  occ. eigenvalues --   -2.19744  -2.19144  -2.19061  -2.18891  -1.13892
  Beta  occ. eigenvalues --   -1.13872  -1.13867  -1.13731  -1.13676  -1.13667
  Beta  occ. eigenvalues --   -1.13606  -1.13579  -1.13564  -1.13408  -1.13393
  Beta  occ. eigenvalues --   -1.13385  -1.12879  -1.12808  -1.12796  -1.12785
  Beta  occ. eigenvalues --   -1.12735  -1.12723  -1.12561  -1.12548  -1.12527
  Beta  occ. eigenvalues --   -0.17549  -0.13130  -0.11985
  Beta virt. eigenvalues --   -0.06340  -0.06076  -0.05500  -0.04691  -0.02450
  Beta virt. eigenvalues --   -0.01920  -0.01723  -0.01414  -0.01141  -0.00872
  Beta virt. eigenvalues --   -0.00460   0.00165   0.00363   0.00728   0.00802

 Mulliken charges and spin densities:
               1          2
     1  Na   0.143888  -0.061017
     2  Na  -0.136065  -0.008232
     3  Na   0.296038   0.095366
     4  Na   0.132520   0.068992
     5  Na  -0.423798   0.635347
     6  Na   0.148053  -0.071913
     7  Na  -0.160635   0.341457
 Sum of Mulliken charges =  -0.00000   1.00000

 Dipole moment (field-independent basis, Debye):
    X=             -0.1907    Y=             -0.4882    Z=              0.0102  Tot=              0.5242
 Quadrupole moment (field-independent basis, Debye-Ang):
   XX=            -54.7893   YY=            -60.1023   ZZ=            -77.4214
   XY=              0.1770   XZ=              0.6158   YZ=              1.3238

 Normal termination of Gaussian 16 at Fri Dec  8 05:49:52 2023.
