 Gaussian 16, Revision B.01,
 Gaussian 16:  ES64L-G16RevB.01 20-Dec-2017

 -------------------------
 #P B3LYP/6-311+g(d) force
 -------------------------

 -----
 DPGEN
 -----
 Symbolic Z-matrix:
 Charge =  0 Multiplicity = 2

                         Standard orientation:
 ---------------------------------------------------------------------
 Center     Atomic      Atomic             Coordinates (Angstroms)
 Number     Number       Type             X           Y           Z
 ---------------------------------------------------------------------
      1         11           0       -0.181807    0.102729   -1.668387
      2         11           0       -3.172492    0.285501   -0.012900
      3         11           0        0.069574   -0.148384    1.951550
      4         11           0       -0.706978    2.815467   -0.019174
      5         11           0        2.291443   -2.151457   -0.219358
      6         11           0        3.041557    1.515639   -0.007642
      7         11           0       -1.341297   -2.419495   -0.024088
 ---------------------------------------------------------------------

 SCF Done:  E(UB3LYP) =  -1136.13677482     A.U. after   19 cycles

 The electronic state is 2-A.
 Alpha  occ. eigenvalues --  -38.44441 -38.44092 -38.43860 -38.43385 -38.43382
 Alpha  occ. eigenvalues --  -38.43184 -38.43147  -2.20204  -2.19950  -2.19667
 Alpha  occ. eigenvalues --   -2.19291  -2.19227  -2.19157  -2.19056  -1.13883
 Alpha  occ. eigenvalues --   -1.13854  -1.13848  -1.13628  -1.13608  -1.13596
 Alpha  occ. eigenvalues --   -1.13344  -1.13329  -1.13304  -1.12985  -1.12959
 Alpha  occ. eigenvalues --   -1.12929  -1.12904  -1.12884  -1.12864  -1.12844
 Alpha  occ. eigenvalues --   -1.12797  -1.12762  -1.12719  -1.12703  -1.12676
 Alpha  occ. eigenvalues --   -0.18637  -0.13016  -0.12353  -0.10542
 Alpha virt. eigenvalues --   -0.05936  -0.05382  -0.04488  -0.03098  -0.02777
 Alpha virt. eigenvalues --   -0.02392  -0.01751  -0.01235  -0.00483  -0.00349
 Alpha virt. eigenvalues --   -0.00009   0.00336   0.00741   0.00840   0.00887

  Beta  occ. eigenvalues --  -38.44443 -38.44087 -38.43856 -38.43376 -38.43294
  Beta  occ. eigenvalues --  -38.43137 -38.43116  -2.20209  -2.19945  -2.19662
  Beta  occ. eigenvalues --   -2.19220  -2.19123  -2.19044  -2.19033  -1.13873
  Beta  occ. eigenvalues --   -1.13860  -1.13853  -1.13626  -1.13597  -1.13578
  Beta  occ. eigenvalues --   -1.13329  -1.13319  -1.13305  -1.12943  -1.12880
  Beta  occ. eigenvalues --   -1.12867  -1.12843  -1.12805  -1.12792  -1.12781
  Beta  occ. eigenvalues --   -1.12725  -1.12686  -1.12678  -1.12666  -1.12646
  Beta  occ. eigenvalues --   -0.17892  -0.12811  -0.12103
  Beta virt. eigenvalues --   -0.06621  -0.05915  -0.05368  -0.04467  -0.02344
  Beta virt. eigenvalues --   -0.01992  -0.01677  -0.01326  -0.01174  -0.00538
  Beta virt. eigenvalues --   -0.00395   0.00132   0.00362   0.00784   0.00842

 Mulliken charges and spin densities:
               1          2
     1  Na  -0.253041   0.608014
     2  Na   0.307556  -0.004258
     3  Na  -0.422919   0.784798
     4  Na   0.052098  -0.142248
     5  Na   0.039075  -0.099582
     6  Na  -0.063486  -0.129918
     7  Na   0.340717  -0.016807
 Sum of Mulliken charges =  -0.00000   1.00000

 Dipole moment (field-independent basis, Debye):
    X=              0.2610    Y=              0.1491    Z=              0.0842  Tot=              0.3121
 Quadrupole moment (field-independent basis, Debye-Ang):
   XX=            -53.3476   YY=            -63.3116   ZZ=            -75.5843
   XY=             -0.0651   XZ=             -0.5316   YZ=              0.6782

 Normal termination of Gaussian 16 at Mon Dec  4 03:17:54 2023.
