 Gaussian 16, Revision B.01,
 Gaussian 16:  ES64L-G16RevB.01 20-Dec-2017

 -------------------------
 #P B3LYP/6-311+g(d) force
 -------------------------

 -----
 DPGEN
 -----
 Symbolic Z-matrix:
 Charge =  0 Multiplicity = 2

                         Standard orientation:
 ---------------------------------------------------------------------
 Center     Atomic      Atomic             Coordinates (Angstroms)
 Number     Number       Type             X           Y           Z
 ---------------------------------------------------------------------
      1         11           0        3.936686    1.079575    0.528514
      2         11           0        3.995948   -2.304613   -0.279518
      3         11           0        1.622044    3.087481   -0.324304
      4         11           0       -2.193947    2.808393   -0.009160
      5         11           0       -2.901677   -2.734814    0.125304
      6         11           0       -0.010296   -2.351229   -0.062136
      7         11           0       -4.448758    0.415207    0.021301
 ---------------------------------------------------------------------

 SCF Done:  E(UB3LYP) =  -1136.10874753     A.U. after   25 cycles

 The electronic state is 2-A.
 Alpha  occ. eigenvalues --  -38.45051 -38.44989 -38.44863 -38.44551 -38.44205
 Alpha  occ. eigenvalues --  -38.44124 -38.43893  -2.20856  -2.20788  -2.20671
 Alpha  occ. eigenvalues --   -2.20315  -2.20004  -2.19981  -2.19704  -1.14556
 Alpha  occ. eigenvalues --   -1.14518  -1.14507  -1.14476  -1.14463  -1.14429
 Alpha  occ. eigenvalues --   -1.14334  -1.14330  -1.14303  -1.13997  -1.13991
 Alpha  occ. eigenvalues --   -1.13949  -1.13663  -1.13651  -1.13643  -1.13627
 Alpha  occ. eigenvalues --   -1.13615  -1.13599  -1.13362  -1.13353  -1.13332
 Alpha  occ. eigenvalues --   -0.15937  -0.14421  -0.13170  -0.10994
 Alpha virt. eigenvalues --   -0.07515  -0.04752  -0.04252  -0.03702  -0.03561
 Alpha virt. eigenvalues --   -0.02666  -0.02362  -0.01923  -0.01132  -0.00543
 Alpha virt. eigenvalues --   -0.00331  -0.00219   0.00233   0.00434   0.00612

  Beta  occ. eigenvalues --  -38.45024 -38.44976 -38.44819 -38.44549 -38.44129
  Beta  occ. eigenvalues --  -38.44095 -38.43840  -2.20811  -2.20772  -2.20590
  Beta  occ. eigenvalues --   -2.20316  -2.19931  -2.19860  -2.19606  -1.14499
  Beta  occ. eigenvalues --   -1.14490  -1.14478  -1.14461  -1.14454  -1.14381
  Beta  occ. eigenvalues --   -1.14277  -1.14276  -1.14244  -1.14001  -1.13995
  Beta  occ. eigenvalues --   -1.13922  -1.13614  -1.13583  -1.13566  -1.13554
  Beta  occ. eigenvalues --   -1.13544  -1.13535  -1.13295  -1.13287  -1.13269
  Beta  occ. eigenvalues --   -0.15439  -0.13617  -0.12398
  Beta virt. eigenvalues --   -0.07833  -0.07661  -0.04335  -0.03944  -0.03423
  Beta virt. eigenvalues --   -0.03139  -0.02433  -0.02088  -0.01707  -0.00918
  Beta virt. eigenvalues --   -0.00273  -0.00047   0.00085   0.00287   0.00430

 Mulliken charges and spin densities:
               1          2
     1  Na  -0.139729   0.110178
     2  Na   0.694013   0.454817
     3  Na  -0.361336   0.212089
     4  Na   0.185883  -0.040413
     5  Na   1.874432  -0.428938
     6  Na  -2.220248   0.504626
     7  Na  -0.033015   0.187641
 Sum of Mulliken charges =  -0.00000   1.00000

 Dipole moment (field-independent basis, Debye):
    X=             -0.4890    Y=             -0.4236    Z=              0.0358  Tot=              0.6480
 Quadrupole moment (field-independent basis, Debye-Ang):
   XX=            -56.1701   YY=            -70.4935   ZZ=            -73.4487
   XY=              3.7871   XZ=              0.4582   YZ=              0.4883

 Normal termination of Gaussian 16 at Sun Dec  3 17:50:11 2023.
