 Gaussian 16, Revision B.01,
 Gaussian 16:  ES64L-G16RevB.01 20-Dec-2017

 -------------------------
 #P B3LYP/6-311+g(d) force
 -------------------------

 -----
 DPGEN
 -----
 Symbolic Z-matrix:
 Charge =  0 Multiplicity = 2

                         Standard orientation:
 ---------------------------------------------------------------------
 Center     Atomic      Atomic             Coordinates (Angstroms)
 Number     Number       Type             X           Y           Z
 ---------------------------------------------------------------------
      1         11           0        1.485305   -2.609566   -0.136821
      2         11           0        0.125302   -0.121629    2.026119
      3         11           0       -3.079570    1.040608    0.351261
      4         11           0       -0.269477    0.336277   -1.672110
      5         11           0        0.744674    3.301538   -0.175923
      6         11           0        3.507572   -0.027741   -0.045712
      7         11           0       -2.513806   -1.919487   -0.346815
 ---------------------------------------------------------------------

 SCF Done:  E(UB3LYP) =  -1136.12936106     A.U. after   20 cycles

 The electronic state is 2-A.
 Alpha  occ. eigenvalues --  -38.45105 -38.44656 -38.43813 -38.43799 -38.43441
 Alpha  occ. eigenvalues --  -38.43377 -38.43355  -2.20878  -2.20489  -2.19660
 Alpha  occ. eigenvalues --   -2.19651  -2.19276  -2.19271  -2.19121  -1.14556
 Alpha  occ. eigenvalues --   -1.14537  -1.14514  -1.14180  -1.14146  -1.14126
 Alpha  occ. eigenvalues --   -1.13337  -1.13324  -1.13312  -1.13293  -1.13286
 Alpha  occ. eigenvalues --   -1.13272  -1.12969  -1.12946  -1.12940  -1.12916
 Alpha  occ. eigenvalues --   -1.12907  -1.12901  -1.12794  -1.12772  -1.12770
 Alpha  occ. eigenvalues --   -0.18016  -0.13355  -0.11811  -0.10436
 Alpha virt. eigenvalues --   -0.06481  -0.05188  -0.04774  -0.03380  -0.02563
 Alpha virt. eigenvalues --   -0.02436  -0.02070  -0.01223  -0.00792  -0.00547
 Alpha virt. eigenvalues --   -0.00059   0.00326   0.00676   0.00706   0.00762

  Beta  occ. eigenvalues --  -38.45107 -38.44648 -38.43791 -38.43722 -38.43436
  Beta  occ. eigenvalues --  -38.43357 -38.43316  -2.20883  -2.20478  -2.19640
  Beta  occ. eigenvalues --   -2.19490  -2.19266  -2.19163  -2.19126  -1.14553
  Beta  occ. eigenvalues --   -1.14536  -1.14519  -1.14176  -1.14123  -1.14112
  Beta  occ. eigenvalues --   -1.13320  -1.13292  -1.13270  -1.13221  -1.13170
  Beta  occ. eigenvalues --   -1.13150  -1.12943  -1.12923  -1.12903  -1.12888
  Beta  occ. eigenvalues --   -1.12836  -1.12828  -1.12781  -1.12775  -1.12765
  Beta  occ. eigenvalues --   -0.17291  -0.13195  -0.11612
  Beta virt. eigenvalues --   -0.06586  -0.06374  -0.05161  -0.04710  -0.02638
  Beta virt. eigenvalues --   -0.01966  -0.01899  -0.01444  -0.01121  -0.00794
  Beta virt. eigenvalues --   -0.00593   0.00105   0.00361   0.00734   0.00794

 Mulliken charges and spin densities:
               1          2
     1  Na   0.061672  -0.022776
     2  Na  -0.263165   0.682657
     3  Na   0.182687   0.030904
     4  Na  -0.050865   0.528952
     5  Na  -0.139750  -0.143735
     6  Na   0.017890  -0.101424
     7  Na   0.191531   0.025421
 Sum of Mulliken charges =  -0.00000   1.00000

 Dipole moment (field-independent basis, Debye):
    X=              0.1777    Y=             -0.0176    Z=              0.1404  Tot=              0.2272
 Quadrupole moment (field-independent basis, Debye-Ang):
   XX=            -51.8728   YY=            -64.9090   ZZ=            -76.4096
   XY=              0.1569   XZ=             -0.7417   YZ=              1.6932

 Normal termination of Gaussian 16 at Thu Dec  7 09:52:07 2023.
