 Gaussian 16, Revision B.01,
 Gaussian 16:  ES64L-G16RevB.01 20-Dec-2017

 -------------------------
 #P B3LYP/6-311+g(d) force
 -------------------------

 -----
 DPGEN
 -----
 Symbolic Z-matrix:
 Charge =  0 Multiplicity = 2

                         Standard orientation:
 ---------------------------------------------------------------------
 Center     Atomic      Atomic             Coordinates (Angstroms)
 Number     Number       Type             X           Y           Z
 ---------------------------------------------------------------------
      1         11           0        0.263469   -2.176638    0.424940
      2         11           0       -2.713278   -3.232429   -0.284009
      3         11           0       -2.950190    0.034526   -0.600469
      4         11           0       -2.804077    3.515043   -0.305006
      5         11           0       -0.591500    1.632873    1.102887
      6         11           0        3.060942   -0.533919    0.342851
      7         11           0        5.734635    0.760545   -0.681194
 ---------------------------------------------------------------------

 SCF Done:  E(UB3LYP) =  -1136.12373219     A.U. after   20 cycles

 The electronic state is 2-A.
 Alpha  occ. eigenvalues --  -38.44923 -38.44655 -38.44420 -38.43932 -38.43781
 Alpha  occ. eigenvalues --  -38.43543 -38.42844  -2.20759  -2.20474  -2.20286
 Alpha  occ. eigenvalues --   -2.19758  -2.19649  -2.19390  -2.18689  -1.14462
 Alpha  occ. eigenvalues --   -1.14439  -1.14367  -1.14139  -1.14131  -1.14095
 Alpha  occ. eigenvalues --   -1.13988  -1.13978  -1.13871  -1.13404  -1.13382
 Alpha  occ. eigenvalues --   -1.13382  -1.13330  -1.13310  -1.13300  -1.13048
 Alpha  occ. eigenvalues --   -1.13037  -1.13021  -1.12386  -1.12358  -1.12340
 Alpha  occ. eigenvalues --   -0.17069  -0.13869  -0.13012  -0.10887
 Alpha virt. eigenvalues --   -0.06192  -0.05589  -0.04192  -0.04059  -0.02656
 Alpha virt. eigenvalues --   -0.02122  -0.01900  -0.01638  -0.01409  -0.00844
 Alpha virt. eigenvalues --   -0.00472   0.00123   0.00417   0.00432   0.00606

  Beta  occ. eigenvalues --  -38.44896 -38.44651 -38.44394 -38.43833 -38.43748
  Beta  occ. eigenvalues --  -38.43523 -38.42841  -2.20709  -2.20467  -2.20239
  Beta  occ. eigenvalues --   -2.19591  -2.19572  -2.19354  -2.18696  -1.14432
  Beta  occ. eigenvalues --   -1.14407  -1.14323  -1.14129  -1.14126  -1.14089
  Beta  occ. eigenvalues --   -1.13954  -1.13943  -1.13832  -1.13296  -1.13284
  Beta  occ. eigenvalues --   -1.13269  -1.13256  -1.13256  -1.13249  -1.13014
  Beta  occ. eigenvalues --   -1.13010  -1.13002  -1.12381  -1.12371  -1.12289
  Beta  occ. eigenvalues --   -0.16586  -0.13406  -0.12419
  Beta virt. eigenvalues --   -0.07480  -0.05994  -0.05227  -0.03928  -0.03622
  Beta virt. eigenvalues --   -0.02449  -0.02015  -0.01679  -0.01348  -0.01022
  Beta virt. eigenvalues --   -0.00466  -0.00146   0.00278   0.00527   0.00586

 Mulliken charges and spin densities:
               1          2
     1  Na  -0.494109  -0.283869
     2  Na   1.269437   0.171805
     3  Na  -0.844755   0.284330
     4  Na   1.133034   0.020706
     5  Na  -0.582494   0.087173
     6  Na  -0.665738   0.258178
     7  Na   0.184624   0.461676
 Sum of Mulliken charges =  -0.00000   1.00000

 Dipole moment (field-independent basis, Debye):
    X=             -2.0134    Y=              1.3549    Z=             -0.0825  Tot=              2.4283
 Quadrupole moment (field-independent basis, Debye-Ang):
   XX=            -68.7095   YY=            -56.5214   ZZ=            -70.9918
   XY=             -2.7657   XZ=              0.3676   YZ=             -1.5205

 Normal termination of Gaussian 16 at Tue Nov 28 23:28:54 2023.
