 Gaussian 16, Revision B.01,
 Gaussian 16:  ES64L-G16RevB.01 20-Dec-2017

 -------------------------
 #P B3LYP/6-311+g(d) force
 -------------------------

 -----
 DPGEN
 -----
 Symbolic Z-matrix:
 Charge =  0 Multiplicity = 2

                         Standard orientation:
 ---------------------------------------------------------------------
 Center     Atomic      Atomic             Coordinates (Angstroms)
 Number     Number       Type             X           Y           Z
 ---------------------------------------------------------------------
      1         11           0       -4.041595   -1.275672   -0.964548
      2         11           0        3.261800   -1.865001    0.932678
      3         11           0       -2.529683    0.430160    1.907708
      4         11           0       -0.106028   -1.370561   -0.194910
      5         11           0        2.555738    0.221631   -1.887363
      6         11           0       -0.479039    2.125111   -1.326811
      7         11           0        1.338808    1.734333    1.533246
 ---------------------------------------------------------------------

 SCF Done:  E(UB3LYP) =  -1136.12416940     A.U. after   22 cycles

 The electronic state is 2-A.
 Alpha  occ. eigenvalues --  -38.44828 -38.44489 -38.44398 -38.44256 -38.43906
 Alpha  occ. eigenvalues --  -38.43293 -38.43127  -2.20604  -2.20322  -2.20154
 Alpha  occ. eigenvalues --   -2.20086  -2.19725  -2.19095  -2.18958  -1.14299
 Alpha  occ. eigenvalues --   -1.14260  -1.14211  -1.14017  -1.13973  -1.13922
 Alpha  occ. eigenvalues --   -1.13822  -1.13821  -1.13814  -1.13774  -1.13772
 Alpha  occ. eigenvalues --   -1.13674  -1.13398  -1.13371  -1.13357  -1.12763
 Alpha  occ. eigenvalues --   -1.12755  -1.12725  -1.12641  -1.12603  -1.12595
 Alpha  occ. eigenvalues --   -0.17593  -0.13407  -0.11160  -0.11045
 Alpha virt. eigenvalues --   -0.06286  -0.05699  -0.04814  -0.03012  -0.02917
 Alpha virt. eigenvalues --   -0.02359  -0.02278  -0.01322  -0.00974  -0.00483
 Alpha virt. eigenvalues --    0.00098   0.00129   0.00266   0.00469   0.00511

  Beta  occ. eigenvalues --  -38.44801 -38.44446 -38.44381 -38.44245 -38.43868
  Beta  occ. eigenvalues --  -38.43278 -38.43107  -2.20555  -2.20244  -2.20121
  Beta  occ. eigenvalues --   -2.20071  -2.19656  -2.19067  -2.18925  -1.14263
  Beta  occ. eigenvalues --   -1.14230  -1.14165  -1.13957  -1.13925  -1.13858
  Beta  occ. eigenvalues --   -1.13800  -1.13796  -1.13769  -1.13765  -1.13752
  Beta  occ. eigenvalues --   -1.13669  -1.13351  -1.13314  -1.13308  -1.12744
  Beta  occ. eigenvalues --   -1.12728  -1.12710  -1.12617  -1.12583  -1.12553
  Beta  occ. eigenvalues --   -0.16922  -0.13190  -0.10950
  Beta virt. eigenvalues --   -0.07449  -0.06044  -0.05151  -0.04584  -0.02778
  Beta virt. eigenvalues --   -0.02454  -0.02170  -0.01751  -0.00999  -0.00640
  Beta virt. eigenvalues --   -0.00321   0.00170   0.00259   0.00332   0.00536

 Mulliken charges and spin densities:
               1          2
     1  Na   0.158696   0.084038
     2  Na   0.401373  -0.070284
     3  Na   0.221884  -0.045744
     4  Na  -0.980991   0.479623
     5  Na   0.274793   0.000122
     6  Na   0.054948   0.127138
     7  Na  -0.130703   0.425107
 Sum of Mulliken charges =  -0.00000   1.00000

 Dipole moment (field-independent basis, Debye):
    X=             -0.3477    Y=              0.4656    Z=             -0.0209  Tot=              0.5815
 Quadrupole moment (field-independent basis, Debye-Ang):
   XX=            -55.1415   YY=            -75.7904   ZZ=            -64.2235
   XY=              0.6877   XZ=              0.7855   YZ=              0.8051

 Normal termination of Gaussian 16 at Fri Dec  8 03:35:23 2023.
