 Gaussian 16, Revision B.01,
 Gaussian 16:  ES64L-G16RevB.01 20-Dec-2017

 -------------------------
 #P B3LYP/6-311+g(d) force
 -------------------------

 -----
 DPGEN
 -----
 Symbolic Z-matrix:
 Charge =  0 Multiplicity = 2

                         Standard orientation:
 ---------------------------------------------------------------------
 Center     Atomic      Atomic             Coordinates (Angstroms)
 Number     Number       Type             X           Y           Z
 ---------------------------------------------------------------------
      1         11           0        1.633783    0.306482    2.159972
      2         11           0       -0.241955   -2.310283    0.783983
      3         11           0        0.948715    2.343033   -1.161222
      4         11           0       -1.381297    1.376801    1.359697
      5         11           0        2.742081   -0.876555   -0.888861
      6         11           0       -0.424128   -0.605791   -1.860270
      7         11           0       -3.277199   -0.233688   -0.393298
 ---------------------------------------------------------------------

 SCF Done:  E(UB3LYP) =  -1136.12948475     A.U. after   23 cycles

 The electronic state is 2-A.
 Alpha  occ. eigenvalues --  -38.44143 -38.44082 -38.43886 -38.43839 -38.43757
 Alpha  occ. eigenvalues --  -38.43435 -38.42837  -2.20016  -2.19926  -2.19754
 Alpha  occ. eigenvalues --   -2.19687  -2.19633  -2.19410  -2.18746  -1.13710
 Alpha  occ. eigenvalues --   -1.13653  -1.13629  -1.13626  -1.13552  -1.13538
 Alpha  occ. eigenvalues --   -1.13457  -1.13436  -1.13383  -1.13373  -1.13354
 Alpha  occ. eigenvalues --   -1.13337  -1.13312  -1.13301  -1.13226  -1.13074
 Alpha  occ. eigenvalues --   -1.13052  -1.13021  -1.12430  -1.12407  -1.12377
 Alpha  occ. eigenvalues --   -0.18906  -0.13092  -0.12548  -0.11442
 Alpha virt. eigenvalues --   -0.05670  -0.04570  -0.04320  -0.03586  -0.03490
 Alpha virt. eigenvalues --   -0.03071  -0.01456  -0.00669  -0.00496   0.00309
 Alpha virt. eigenvalues --    0.00336   0.00404   0.00473   0.00826   0.00918

  Beta  occ. eigenvalues --  -38.44081 -38.44025 -38.43886 -38.43833 -38.43721
  Beta  occ. eigenvalues --  -38.43389 -38.42824  -2.19905  -2.19824  -2.19755
  Beta  occ. eigenvalues --   -2.19680  -2.19569  -2.19328  -2.18725  -1.13623
  Beta  occ. eigenvalues --   -1.13582  -1.13548  -1.13544  -1.13484  -1.13466
  Beta  occ. eigenvalues --   -1.13459  -1.13428  -1.13371  -1.13365  -1.13340
  Beta  occ. eigenvalues --   -1.13312  -1.13296  -1.13236  -1.13183  -1.13027
  Beta  occ. eigenvalues --   -1.12975  -1.12962  -1.12408  -1.12387  -1.12358
  Beta  occ. eigenvalues --   -0.18051  -0.12899  -0.11285
  Beta virt. eigenvalues --   -0.08378  -0.05531  -0.04266  -0.03828  -0.03198
  Beta virt. eigenvalues --   -0.02896  -0.02278  -0.01406  -0.00467  -0.00296
  Beta virt. eigenvalues --    0.00344   0.00383   0.00463   0.00597   0.00925

 Mulliken charges and spin densities:
               1          2
     1  Na   0.117786   0.322836
     2  Na  -0.548102   0.305278
     3  Na  -0.449306   0.128371
     4  Na  -0.155354   0.213504
     5  Na   0.287930  -0.109660
     6  Na   0.448832   0.318672
     7  Na   0.298215  -0.179001
 Sum of Mulliken charges =  -0.00000   1.00000

 Dipole moment (field-independent basis, Debye):
    X=              0.3066    Y=             -0.1047    Z=             -0.0652  Tot=              0.3305
 Quadrupole moment (field-independent basis, Debye-Ang):
   XX=            -57.9892   YY=            -72.9239   ZZ=            -65.0023
   XY=              0.5802   XZ=              0.1797   YZ=             -5.5777

 Normal termination of Gaussian 16 at Sun Dec  3 12:07:05 2023.
