 Gaussian 16, Revision B.01,
 Gaussian 16:  ES64L-G16RevB.01 20-Dec-2017

 -------------------------
 #P B3LYP/6-311+g(d) force
 -------------------------

 -----
 DPGEN
 -----
 Symbolic Z-matrix:
 Charge =  0 Multiplicity = 2

                         Standard orientation:
 ---------------------------------------------------------------------
 Center     Atomic      Atomic             Coordinates (Angstroms)
 Number     Number       Type             X           Y           Z
 ---------------------------------------------------------------------
      1         11           0        0.006714   -0.001032    1.787323
      2         11           0        0.005914   -0.001432   -1.787087
      3         11           0        2.457614    0.002952   -0.000287
      4         11           0        0.628965    1.981914   -0.000387
      5         11           0       -1.867984    1.301527    0.000213
      6         11           0        0.633963   -1.979755    0.000113
      7         11           0       -1.865188   -1.304173    0.000113
 ---------------------------------------------------------------------

 SCF Done:  E(UB3LYP) =  -1136.03909774     A.U. after   17 cycles

 The electronic state is 2-A.
 Alpha  occ. eigenvalues --  -38.44746 -38.44745 -38.44286 -38.44285 -38.44124
 Alpha  occ. eigenvalues --  -38.44120 -38.44094  -2.21096  -2.21088  -2.20604
 Alpha  occ. eigenvalues --   -2.20520  -2.20413  -2.20383  -2.20245  -1.15128
 Alpha  occ. eigenvalues --   -1.14954  -1.14873  -1.14857  -1.14835  -1.14743
 Alpha  occ. eigenvalues --   -1.14738  -1.14565  -1.14391  -1.14217  -1.14203
 Alpha  occ. eigenvalues --   -1.14124  -1.14034  -1.13962  -1.13920  -1.13875
 Alpha  occ. eigenvalues --   -1.13831  -1.13826  -1.13802  -1.13688  -1.13578
 Alpha  occ. eigenvalues --   -0.22639  -0.13988  -0.13275  -0.12927
 Alpha virt. eigenvalues --   -0.05159  -0.04088  -0.04070  -0.03853  -0.03517
 Alpha virt. eigenvalues --   -0.02986  -0.00810  -0.00375  -0.00143   0.00312
 Alpha virt. eigenvalues --    0.00963   0.01045   0.01117   0.01297   0.01329

  Beta  occ. eigenvalues --  -38.44643 -38.44642 -38.44270 -38.44268 -38.44104
  Beta  occ. eigenvalues --  -38.44100 -38.44083  -2.20914  -2.20902  -2.20580
  Beta  occ. eigenvalues --   -2.20498  -2.20388  -2.20359  -2.20229  -1.15056
  Beta  occ. eigenvalues --   -1.14864  -1.14749  -1.14745  -1.14735  -1.14731
  Beta  occ. eigenvalues --   -1.14600  -1.14538  -1.14332  -1.14189  -1.14173
  Beta  occ. eigenvalues --   -1.14035  -1.13948  -1.13868  -1.13868  -1.13822
  Beta  occ. eigenvalues --   -1.13821  -1.13795  -1.13759  -1.13682  -1.13573
  Beta  occ. eigenvalues --   -0.21764  -0.13563  -0.12851
  Beta virt. eigenvalues --   -0.08623  -0.05201  -0.04049  -0.04035  -0.02828
  Beta virt. eigenvalues --   -0.02516  -0.01941  -0.00745  -0.00333   0.00009
  Beta virt. eigenvalues --    0.00330   0.00966   0.01022   0.01157   0.01289

 Mulliken charges and spin densities:
               1          2
     1  Na  -0.245612   0.442823
     2  Na  -0.245670   0.442703
     3  Na  -0.097636  -0.046064
     4  Na   0.225140   0.065981
     5  Na   0.069752   0.014777
     6  Na   0.223236   0.065188
     7  Na   0.070790   0.014592
 Sum of Mulliken charges =  -0.00000   1.00000

 Dipole moment (field-independent basis, Debye):
    X=              0.1427    Y=              0.0020    Z=              0.0005  Tot=              0.1427
 Quadrupole moment (field-independent basis, Debye-Ang):
   XX=            -63.3072   YY=            -70.2818   ZZ=            -66.8417
   XY=              0.0034   XZ=             -0.0015   YZ=             -0.0003

 Normal termination of Gaussian 16 at Sat Dec  9 07:15:21 2023.
