 Gaussian 16, Revision B.01,
 Gaussian 16:  ES64L-G16RevB.01 20-Dec-2017

 -------------------------
 #P B3LYP/6-311+g(d) force
 -------------------------

 -----
 DPGEN
 -----
 Symbolic Z-matrix:
 Charge =  0 Multiplicity = 2

                         Standard orientation:
 ---------------------------------------------------------------------
 Center     Atomic      Atomic             Coordinates (Angstroms)
 Number     Number       Type             X           Y           Z
 ---------------------------------------------------------------------
      1         11           0       -0.866181   -0.577500    1.952066
      2         11           0       -3.355681   -1.779161   -0.832640
      3         11           0        0.107243   -0.335640   -1.217812
      4         11           0       -2.740208    1.510017   -0.182497
      5         11           0        0.646395    2.608257    0.797499
      6         11           0        3.274703    0.588612   -1.386028
      7         11           0        2.933730   -2.014586    0.869412
 ---------------------------------------------------------------------

 SCF Done:  E(UB3LYP) =  -1136.12551803     A.U. after   23 cycles

 The electronic state is 2-A.
 Alpha  occ. eigenvalues --  -38.44507 -38.44399 -38.44304 -38.44221 -38.44185
 Alpha  occ. eigenvalues --  -38.43539 -38.42599  -2.20355  -2.20173  -2.20166
 Alpha  occ. eigenvalues --   -2.20086  -2.20052  -2.19347  -2.18412  -1.14055
 Alpha  occ. eigenvalues --   -1.14031  -1.13956  -1.13896  -1.13847  -1.13825
 Alpha  occ. eigenvalues --   -1.13818  -1.13796  -1.13777  -1.13772  -1.13766
 Alpha  occ. eigenvalues --   -1.13728  -1.13700  -1.13666  -1.13653  -1.13015
 Alpha  occ. eigenvalues --   -1.13011  -1.12979  -1.12089  -1.12080  -1.12050
 Alpha  occ. eigenvalues --   -0.17956  -0.13864  -0.11140  -0.10905
 Alpha virt. eigenvalues --   -0.06307  -0.05659  -0.04788  -0.03034  -0.02795
 Alpha virt. eigenvalues --   -0.02407  -0.02178  -0.01345  -0.00806  -0.00341
 Alpha virt. eigenvalues --    0.00152   0.00192   0.00286   0.00450   0.00661

  Beta  occ. eigenvalues --  -38.44500 -38.44378 -38.44222 -38.44183 -38.44162
  Beta  occ. eigenvalues --  -38.43528 -38.42599  -2.20342  -2.20135  -2.20048
  Beta  occ. eigenvalues --   -2.20016  -2.19983  -2.19327  -2.18414  -1.14039
  Beta  occ. eigenvalues --   -1.14023  -1.13941  -1.13823  -1.13816  -1.13794
  Beta  occ. eigenvalues --   -1.13782  -1.13728  -1.13720  -1.13704  -1.13671
  Beta  occ. eigenvalues --   -1.13661  -1.13655  -1.13620  -1.13616  -1.13002
  Beta  occ. eigenvalues --   -1.12987  -1.12969  -1.12088  -1.12077  -1.12043
  Beta  occ. eigenvalues --   -0.17323  -0.13555  -0.10953
  Beta virt. eigenvalues --   -0.07233  -0.06120  -0.05356  -0.04368  -0.02871
  Beta virt. eigenvalues --   -0.02250  -0.02006  -0.01588  -0.01163  -0.00610
  Beta virt. eigenvalues --   -0.00167   0.00197   0.00240   0.00475   0.00598

 Mulliken charges and spin densities:
               1          2
     1  Na  -0.099483   0.538886
     2  Na   0.479439   0.054811
     3  Na  -1.496442   0.300131
     4  Na   0.441432   0.051137
     5  Na  -0.228218  -0.069895
     6  Na   0.958395   0.023656
     7  Na  -0.055123   0.101273
 Sum of Mulliken charges =  -0.00000   1.00000

 Dipole moment (field-independent basis, Debye):
    X=              0.0035    Y=              0.1029    Z=              0.1961  Tot=              0.2215
 Quadrupole moment (field-independent basis, Debye-Ang):
   XX=            -53.8318   YY=            -70.4740   ZZ=            -70.4543
   XY=             -0.5182   XZ=              0.0612   YZ=             -2.2094

 Normal termination of Gaussian 16 at Tue Dec  5 18:10:21 2023.
