 Gaussian 16, Revision B.01,
 Gaussian 16:  ES64L-G16RevB.01 20-Dec-2017

 -------------------------
 #P B3LYP/6-311+g(d) force
 -------------------------

 -----
 DPGEN
 -----
 Symbolic Z-matrix:
 Charge =  0 Multiplicity = 2

                         Standard orientation:
 ---------------------------------------------------------------------
 Center     Atomic      Atomic             Coordinates (Angstroms)
 Number     Number       Type             X           Y           Z
 ---------------------------------------------------------------------
      1         11           0        0.777297    3.018684    0.060790
      2         11           0        3.165278    0.578467   -0.184358
      3         11           0       -2.589232    1.699458   -0.357173
      4         11           0       -3.324585   -1.604906    0.203146
      5         11           0       -0.110977   -0.280796   -1.420245
      6         11           0        0.417285   -0.428799    2.162100
      7         11           0        1.664934   -2.982108   -0.464260
 ---------------------------------------------------------------------

 SCF Done:  E(UB3LYP) =  -1136.13018888     A.U. after   21 cycles

 The electronic state is 2-A.
 Alpha  occ. eigenvalues --  -38.44788 -38.44704 -38.43906 -38.43790 -38.43717
 Alpha  occ. eigenvalues --  -38.43338 -38.43182  -2.20549  -2.20511  -2.19734
 Alpha  occ. eigenvalues --   -2.19585  -2.19548  -2.19259  -2.18998  -1.14220
 Alpha  occ. eigenvalues --   -1.14206  -1.14193  -1.14192  -1.14178  -1.14137
 Alpha  occ. eigenvalues --   -1.13431  -1.13399  -1.13354  -1.13267  -1.13239
 Alpha  occ. eigenvalues --   -1.13224  -1.13213  -1.13168  -1.13164  -1.12961
 Alpha  occ. eigenvalues --   -1.12896  -1.12885  -1.12668  -1.12660  -1.12649
 Alpha  occ. eigenvalues --   -0.17845  -0.13165  -0.12058  -0.10288
 Alpha virt. eigenvalues --   -0.06453  -0.05352  -0.04841  -0.03098  -0.02655
 Alpha virt. eigenvalues --   -0.02340  -0.02023  -0.01424  -0.00922  -0.00545
 Alpha virt. eigenvalues --   -0.00058   0.00285   0.00669   0.00681   0.00723

  Beta  occ. eigenvalues --  -38.44789 -38.44699 -38.43899 -38.43778 -38.43615
  Beta  occ. eigenvalues --  -38.43293 -38.43181  -2.20551  -2.20506  -2.19724
  Beta  occ. eigenvalues --   -2.19566  -2.19358  -2.19178  -2.18999  -1.14218
  Beta  occ. eigenvalues --   -1.14203  -1.14194  -1.14183  -1.14161  -1.14135
  Beta  occ. eigenvalues --   -1.13418  -1.13384  -1.13350  -1.13247  -1.13213
  Beta  occ. eigenvalues --   -1.13213  -1.13085  -1.13039  -1.13028  -1.12896
  Beta  occ. eigenvalues --   -1.12837  -1.12826  -1.12667  -1.12662  -1.12638
  Beta  occ. eigenvalues --   -0.17187  -0.12990  -0.11850
  Beta virt. eigenvalues --   -0.06568  -0.06229  -0.05250  -0.04799  -0.02484
  Beta virt. eigenvalues --   -0.02007  -0.01882  -0.01358  -0.01265  -0.00969
  Beta virt. eigenvalues --   -0.00559   0.00130   0.00340   0.00687   0.00778

 Mulliken charges and spin densities:
               1          2
     1  Na  -0.104290  -0.008016
     2  Na   0.241801   0.030573
     3  Na   0.200145   0.033744
     4  Na   0.030935   0.006560
     5  Na   0.080448   0.182057
     6  Na  -0.476491   0.742673
     7  Na   0.027452   0.012408
 Sum of Mulliken charges =  -0.00000   1.00000

 Dipole moment (field-independent basis, Debye):
    X=             -0.1393    Y=             -0.4096    Z=              0.0436  Tot=              0.4348
 Quadrupole moment (field-independent basis, Debye-Ang):
   XX=            -53.4645   YY=            -61.7031   ZZ=            -77.3244
   XY=              1.3939   XZ=             -1.1195   YZ=             -0.0274

 Normal termination of Gaussian 16 at Fri Dec  8 03:10:42 2023.
