 Gaussian 16, Revision B.01,
 Gaussian 16:  ES64L-G16RevB.01 20-Dec-2017

 -------------------------
 #P B3LYP/6-311+g(d) force
 -------------------------

 -----
 DPGEN
 -----
 Symbolic Z-matrix:
 Charge =  0 Multiplicity = 2

                         Standard orientation:
 ---------------------------------------------------------------------
 Center     Atomic      Atomic             Coordinates (Angstroms)
 Number     Number       Type             X           Y           Z
 ---------------------------------------------------------------------
      1         11           0       -1.195094   -1.815075    0.938060
      2         11           0       -4.084683   -2.783858   -0.097202
      3         11           0       -3.066611    0.875264   -0.782376
      4         11           0       -1.918594    3.334933    0.918051
      5         11           0       -0.119597    1.144802   -0.795487
      6         11           0        3.852901   -0.230483   -0.438093
      7         11           0        6.531677   -0.525584    0.257046
 ---------------------------------------------------------------------

 SCF Done:  E(UB3LYP) =  -1136.11056741     A.U. after   19 cycles

 The electronic state is 2-A.
 Alpha  occ. eigenvalues --  -38.44991 -38.44801 -38.44646 -38.44205 -38.43987
 Alpha  occ. eigenvalues --  -38.43423 -38.43207  -2.20905  -2.20643  -2.20476
 Alpha  occ. eigenvalues --   -2.20128  -2.19795  -2.19282  -2.19042  -1.14668
 Alpha  occ. eigenvalues --   -1.14593  -1.14487  -1.14301  -1.14294  -1.14259
 Alpha  occ. eigenvalues --   -1.14154  -1.14140  -1.14108  -1.13827  -1.13778
 Alpha  occ. eigenvalues --   -1.13708  -1.13456  -1.13451  -1.13426  -1.13151
 Alpha  occ. eigenvalues --   -1.12897  -1.12897  -1.12685  -1.12684  -1.12611
 Alpha  occ. eigenvalues --   -0.17564  -0.13256  -0.12946  -0.10729
 Alpha virt. eigenvalues --   -0.06628  -0.05739  -0.04332  -0.03656  -0.02766
 Alpha virt. eigenvalues --   -0.02392  -0.02034  -0.01627  -0.01294  -0.00958
 Alpha virt. eigenvalues --   -0.00550  -0.00235   0.00408   0.00495   0.00610

  Beta  occ. eigenvalues --  -38.44966 -38.44773 -38.44622 -38.44153 -38.43968
  Beta  occ. eigenvalues --  -38.43383 -38.43210  -2.20861  -2.20591  -2.20435
  Beta  occ. eigenvalues --   -2.20035  -2.19759  -2.19207  -2.19053  -1.14622
  Beta  occ. eigenvalues --   -1.14563  -1.14450  -1.14261  -1.14254  -1.14226
  Beta  occ. eigenvalues --   -1.14131  -1.14113  -1.14056  -1.13768  -1.13717
  Beta  occ. eigenvalues --   -1.13618  -1.13432  -1.13425  -1.13402  -1.13108
  Beta  occ. eigenvalues --   -1.12847  -1.12847  -1.12696  -1.12695  -1.12574
  Beta  occ. eigenvalues --   -0.16938  -0.12876  -0.12624
  Beta virt. eigenvalues --   -0.07273  -0.06406  -0.05294  -0.03895  -0.03309
  Beta virt. eigenvalues --   -0.02574  -0.02216  -0.01945  -0.01280  -0.01041
  Beta virt. eigenvalues --   -0.00598  -0.00339   0.00007   0.00482   0.00563

 Mulliken charges and spin densities:
               1          2
     1  Na  -0.359207   0.080337
     2  Na   0.405457   0.074805
     3  Na   0.826784   0.434368
     4  Na   0.309787   0.104557
     5  Na  -0.992987  -0.109688
     6  Na  -0.886462   0.175026
     7  Na   0.696627   0.240595
 Sum of Mulliken charges =  -0.00000   1.00000

 Dipole moment (field-independent basis, Debye):
    X=             -2.3665    Y=              0.6688    Z=              0.6889  Tot=              2.5539
 Quadrupole moment (field-independent basis, Debye-Ang):
   XX=            -70.1222   YY=            -64.8372   ZZ=            -66.7640
   XY=              1.5437   XZ=              3.6222   YZ=              2.0035

 Normal termination of Gaussian 16 at Mon Nov 27 04:21:45 2023.
