 Gaussian 16, Revision B.01,
 Gaussian 16:  ES64L-G16RevB.01 20-Dec-2017

 -------------------------
 #P B3LYP/6-311+g(d) force
 -------------------------

 -----
 DPGEN
 -----
 Symbolic Z-matrix:
 Charge =  0 Multiplicity = 2

                         Standard orientation:
 ---------------------------------------------------------------------
 Center     Atomic      Atomic             Coordinates (Angstroms)
 Number     Number       Type             X           Y           Z
 ---------------------------------------------------------------------
      1         11           0       -3.283224   -1.237164   -0.240997
      2         11           0        1.563566    2.334923   -0.370909
      3         11           0        1.099163    0.574626    2.265862
      4         11           0       -0.048865   -0.082835   -2.303937
      5         11           0       -2.115189    2.209229    0.343388
      6         11           0        2.749635   -1.305025   -0.773124
      7         11           0        0.034914   -2.493755    1.079716
 ---------------------------------------------------------------------

 SCF Done:  E(UB3LYP) =  -1136.13010510     A.U. after   20 cycles

 The electronic state is 2-A.
 Alpha  occ. eigenvalues --  -38.44924 -38.44578 -38.44014 -38.43986 -38.43657
 Alpha  occ. eigenvalues --  -38.43448 -38.43264  -2.20760  -2.20435  -2.19837
 Alpha  occ. eigenvalues --   -2.19751  -2.19421  -2.19266  -2.19116  -1.14426
 Alpha  occ. eigenvalues --   -1.14398  -1.14376  -1.14096  -1.14088  -1.14038
 Alpha  occ. eigenvalues --   -1.13522  -1.13483  -1.13479  -1.13440  -1.13417
 Alpha  occ. eigenvalues --   -1.13378  -1.13100  -1.13075  -1.13068  -1.12959
 Alpha  occ. eigenvalues --   -1.12919  -1.12885  -1.12810  -1.12790  -1.12732
 Alpha  occ. eigenvalues --   -0.17909  -0.12482  -0.12034  -0.11953
 Alpha virt. eigenvalues --   -0.05444  -0.05344  -0.04523  -0.03539  -0.03506
 Alpha virt. eigenvalues --   -0.03358  -0.01267  -0.00918  -0.00412  -0.00134
 Alpha virt. eigenvalues --   -0.00045   0.00420   0.00547   0.00639   0.00726

  Beta  occ. eigenvalues --  -38.44839 -38.44495 -38.44001 -38.43986 -38.43661
  Beta  occ. eigenvalues --  -38.43425 -38.43258  -2.20605  -2.20282  -2.19816
  Beta  occ. eigenvalues --   -2.19752  -2.19428  -2.19225  -2.19110  -1.14324
  Beta  occ. eigenvalues --   -1.14291  -1.14255  -1.13992  -1.13984  -1.13928
  Beta  occ. eigenvalues --   -1.13498  -1.13470  -1.13453  -1.13433  -1.13418
  Beta  occ. eigenvalues --   -1.13380  -1.13100  -1.13081  -1.13074  -1.12922
  Beta  occ. eigenvalues --   -1.12888  -1.12859  -1.12799  -1.12771  -1.12725
  Beta  occ. eigenvalues --   -0.17078  -0.12347  -0.11776
  Beta virt. eigenvalues --   -0.08020  -0.05395  -0.05152  -0.04105  -0.03041
  Beta virt. eigenvalues --   -0.02798  -0.02537  -0.01177  -0.00899  -0.00202
  Beta virt. eigenvalues --   -0.00111  -0.00008   0.00470   0.00776   0.00799

 Mulliken charges and spin densities:
               1          2
     1  Na   0.147988  -0.048167
     2  Na   0.199346  -0.046328
     3  Na   0.143584   0.449272
     4  Na  -0.274240   0.603069
     5  Na  -0.183586  -0.083189
     6  Na   0.307435   0.018107
     7  Na  -0.340527   0.107236
 Sum of Mulliken charges =  -0.00000   1.00000

 Dipole moment (field-independent basis, Debye):
    X=              0.2701    Y=              0.1061    Z=             -0.1411  Tot=              0.3227
 Quadrupole moment (field-independent basis, Debye-Ang):
   XX=            -62.1655   YY=            -69.8889   ZZ=            -65.6697
   XY=             -0.6688   XZ=             -1.1539   YZ=              0.3579

 Normal termination of Gaussian 16 at Mon Dec  4 04:34:23 2023.
