 Gaussian 16, Revision B.01,
 Gaussian 16:  ES64L-G16RevB.01 20-Dec-2017

 -------------------------
 #P B3LYP/6-311+g(d) force
 -------------------------

 -----
 DPGEN
 -----
 Symbolic Z-matrix:
 Charge =  0 Multiplicity = 2

                         Standard orientation:
 ---------------------------------------------------------------------
 Center     Atomic      Atomic             Coordinates (Angstroms)
 Number     Number       Type             X           Y           Z
 ---------------------------------------------------------------------
      1         11           0       -0.438931    0.756819   -1.623322
      2         11           0        1.127584    2.560066    0.117933
      3         11           0        0.812978   -2.438124   -0.085069
      4         11           0       -2.671469   -2.005930   -0.237724
      5         11           0       -2.580704    1.813183    0.415263
      6         11           0        3.287812   -0.330754   -0.351688
      7         11           0        0.462731   -0.355260    1.764606
 ---------------------------------------------------------------------

 SCF Done:  E(UB3LYP) =  -1136.12804622     A.U. after   20 cycles

 The electronic state is 2-A.
 Alpha  occ. eigenvalues --  -38.44382 -38.44283 -38.44023 -38.43602 -38.43371
 Alpha  occ. eigenvalues --  -38.43325 -38.43266  -2.20201  -2.20119  -2.19809
 Alpha  occ. eigenvalues --   -2.19496  -2.19329  -2.19285  -2.19235  -1.13904
 Alpha  occ. eigenvalues --   -1.13857  -1.13823  -1.13799  -1.13775  -1.13757
 Alpha  occ. eigenvalues --   -1.13483  -1.13463  -1.13454  -1.13289  -1.13287
 Alpha  occ. eigenvalues --   -1.13164  -1.13093  -1.12974  -1.12920  -1.12914
 Alpha  occ. eigenvalues --   -1.12896  -1.12860  -1.12856  -1.12841  -1.12821
 Alpha  occ. eigenvalues --   -0.18747  -0.13175  -0.12567  -0.10311
 Alpha virt. eigenvalues --   -0.05925  -0.05583  -0.04422  -0.03237  -0.02791
 Alpha virt. eigenvalues --   -0.02054  -0.01805  -0.01324  -0.00425  -0.00186
 Alpha virt. eigenvalues --    0.00001   0.00323   0.00737   0.00808   0.00899

  Beta  occ. eigenvalues --  -38.44375 -38.44275 -38.44021 -38.43591 -38.43361
  Beta  occ. eigenvalues --  -38.43244 -38.43211  -2.20192  -2.20106  -2.19808
  Beta  occ. eigenvalues --   -2.19481  -2.19297  -2.19155  -2.19134  -1.13894
  Beta  occ. eigenvalues --   -1.13839  -1.13818  -1.13791  -1.13757  -1.13741
  Beta  occ. eigenvalues --   -1.13473  -1.13460  -1.13455  -1.13267  -1.13228
  Beta  occ. eigenvalues --   -1.13127  -1.13080  -1.12926  -1.12899  -1.12843
  Beta  occ. eigenvalues --   -1.12822  -1.12783  -1.12773  -1.12769  -1.12742
  Beta  occ. eigenvalues --   -0.18040  -0.12970  -0.12319
  Beta virt. eigenvalues --   -0.06492  -0.05839  -0.05537  -0.04370  -0.02497
  Beta virt. eigenvalues --   -0.02070  -0.01703  -0.01275  -0.01063  -0.00470
  Beta virt. eigenvalues --   -0.00200   0.00148   0.00363   0.00779   0.00824

 Mulliken charges and spin densities:
               1          2
     1  Na  -0.336766   0.543139
     2  Na   0.299639   0.014715
     3  Na   0.275576   0.030255
     4  Na  -0.071561  -0.087484
     5  Na   0.059882  -0.058272
     6  Na   0.043987   0.009241
     7  Na  -0.270756   0.548407
 Sum of Mulliken charges =  -0.00000   1.00000

 Dipole moment (field-independent basis, Debye):
    X=             -0.1910    Y=              0.2444    Z=              0.0299  Tot=              0.3116
 Quadrupole moment (field-independent basis, Debye-Ang):
   XX=            -52.0379   YY=            -64.3398   ZZ=            -75.8395
   XY=              0.1584   XZ=             -2.0419   YZ=              2.4073

 Normal termination of Gaussian 16 at Wed Dec  6 00:45:31 2023.
