 Gaussian 16, Revision B.01,
 Gaussian 16:  ES64L-G16RevB.01 20-Dec-2017

 -------------------------
 #P B3LYP/6-311+g(d) force
 -------------------------

 -----
 DPGEN
 -----
 Symbolic Z-matrix:
 Charge =  0 Multiplicity = 2

                         Standard orientation:
 ---------------------------------------------------------------------
 Center     Atomic      Atomic             Coordinates (Angstroms)
 Number     Number       Type             X           Y           Z
 ---------------------------------------------------------------------
      1         11           0       -2.209308   -1.011515    0.177798
      2         11           0       -5.128070   -2.205294   -0.256862
      3         11           0       -4.027087    1.940010   -1.020220
      4         11           0       -1.400231    2.053646    0.789685
      5         11           0        1.501667   -0.252191    1.481991
      6         11           0        3.929404   -0.402692   -0.718301
      7         11           0        7.333624   -0.121963   -0.454091
 ---------------------------------------------------------------------

 SCF Done:  E(UB3LYP) =  -1136.11171835     A.U. after   22 cycles

 The electronic state is 2-A.
 Alpha  occ. eigenvalues --  -38.45394 -38.44391 -38.44356 -38.44337 -38.43973
 Alpha  occ. eigenvalues --  -38.43866 -38.43860  -2.21222  -2.20273  -2.20198
 Alpha  occ. eigenvalues --   -2.20123  -2.19781  -2.19671  -2.19653  -1.14895
 Alpha  occ. eigenvalues --   -1.14881  -1.14817  -1.14004  -1.13970  -1.13890
 Alpha  occ. eigenvalues --   -1.13868  -1.13857  -1.13808  -1.13777  -1.13776
 Alpha  occ. eigenvalues --   -1.13747  -1.13444  -1.13429  -1.13395  -1.13394
 Alpha  occ. eigenvalues --   -1.13342  -1.13329  -1.13322  -1.13285  -1.13251
 Alpha  occ. eigenvalues --   -0.16852  -0.13909  -0.12098  -0.11493
 Alpha virt. eigenvalues --   -0.06779  -0.05116  -0.04372  -0.03723  -0.03208
 Alpha virt. eigenvalues --   -0.02448  -0.02184  -0.01680  -0.01178  -0.00847
 Alpha virt. eigenvalues --   -0.00769  -0.00203   0.00107   0.00477   0.00518

  Beta  occ. eigenvalues --  -38.45322 -38.44367 -38.44318 -38.44311 -38.43928
  Beta  occ. eigenvalues --  -38.43880 -38.43831  -2.21091  -2.20230  -2.20169
  Beta  occ. eigenvalues --   -2.20037  -2.19700  -2.19680  -2.19615  -1.14797
  Beta  occ. eigenvalues --   -1.14793  -1.14722  -1.13973  -1.13939  -1.13866
  Beta  occ. eigenvalues --   -1.13851  -1.13828  -1.13750  -1.13719  -1.13717
  Beta  occ. eigenvalues --   -1.13692  -1.13388  -1.13379  -1.13373  -1.13354
  Beta  occ. eigenvalues --   -1.13347  -1.13322  -1.13296  -1.13264  -1.13234
  Beta  occ. eigenvalues --   -0.16236  -0.13569  -0.11239
  Beta virt. eigenvalues --   -0.08272  -0.06390  -0.04927  -0.04053  -0.03524
  Beta virt. eigenvalues --   -0.02642  -0.02236  -0.01875  -0.01513  -0.00860
  Beta virt. eigenvalues --   -0.00587  -0.00425  -0.00089   0.00276   0.00512

 Mulliken charges and spin densities:
               1          2
     1  Na  -1.322736   0.302699
     2  Na  -0.249766   0.222048
     3  Na   0.180772   0.220322
     4  Na   0.271250   0.079695
     5  Na   0.877249   0.056545
     6  Na  -0.427837  -0.015267
     7  Na   0.671069   0.133958
 Sum of Mulliken charges =  -0.00000   1.00000

 Dipole moment (field-independent basis, Debye):
    X=             -1.4836    Y=              0.8906    Z=             -0.1398  Tot=              1.7360
 Quadrupole moment (field-independent basis, Debye-Ang):
   XX=            -56.1197   YY=            -68.7829   ZZ=            -69.7815
   XY=             -1.9800   XZ=              4.4880   YZ=             -1.3390

 Normal termination of Gaussian 16 at Wed Nov 29 03:52:16 2023.
