 Gaussian 16, Revision B.01,
 Gaussian 16:  ES64L-G16RevB.01 20-Dec-2017

 -------------------------
 #P B3LYP/6-311+g(d) force
 -------------------------

 -----
 DPGEN
 -----
 Symbolic Z-matrix:
 Charge =  0 Multiplicity = 2

                         Standard orientation:
 ---------------------------------------------------------------------
 Center     Atomic      Atomic             Coordinates (Angstroms)
 Number     Number       Type             X           Y           Z
 ---------------------------------------------------------------------
      1         11           0       -0.232159    1.594069    1.224331
      2         11           0        1.917149    3.273293   -0.712658
      3         11           0        3.501986    0.452093    0.227490
      4         11           0        0.346740   -1.250557   -0.831435
      5         11           0       -3.009012   -1.543571    0.253697
      6         11           0        3.436309   -2.846881    0.100374
      7         11           0       -5.961014    0.321553   -0.261801
 ---------------------------------------------------------------------

 SCF Done:  E(UB3LYP) =  -1136.12176301     A.U. after   19 cycles

 The electronic state is 2-A.
 Alpha  occ. eigenvalues --  -38.45009 -38.44464 -38.44054 -38.44053 -38.43926
 Alpha  occ. eigenvalues --  -38.43677 -38.43414  -2.20808  -2.20257  -2.19912
 Alpha  occ. eigenvalues --   -2.19894  -2.19749  -2.19452  -2.19222  -1.14498
 Alpha  occ. eigenvalues --   -1.14488  -1.14404  -1.13893  -1.13891  -1.13866
 Alpha  occ. eigenvalues --   -1.13612  -1.13593  -1.13579  -1.13568  -1.13529
 Alpha  occ. eigenvalues --   -1.13487  -1.13409  -1.13406  -1.13375  -1.13146
 Alpha  occ. eigenvalues --   -1.13123  -1.13101  -1.12889  -1.12881  -1.12857
 Alpha  occ. eigenvalues --   -0.16899  -0.13659  -0.12267  -0.11034
 Alpha virt. eigenvalues --   -0.06209  -0.05337  -0.05028  -0.03516  -0.02606
 Alpha virt. eigenvalues --   -0.02428  -0.02126  -0.01346  -0.01163  -0.00868
 Alpha virt. eigenvalues --   -0.00472  -0.00336   0.00428   0.00486   0.00587

  Beta  occ. eigenvalues --  -38.44992 -38.44350 -38.44025 -38.44011 -38.43916
  Beta  occ. eigenvalues --  -38.43686 -38.43408  -2.20777  -2.20043  -2.19857
  Beta  occ. eigenvalues --   -2.19820  -2.19730  -2.19476  -2.19212  -1.14479
  Beta  occ. eigenvalues --   -1.14464  -1.14379  -1.13747  -1.13745  -1.13726
  Beta  occ. eigenvalues --   -1.13575  -1.13554  -1.13528  -1.13521  -1.13488
  Beta  occ. eigenvalues --   -1.13427  -1.13396  -1.13386  -1.13364  -1.13169
  Beta  occ. eigenvalues --   -1.13145  -1.13065  -1.12880  -1.12867  -1.12853
  Beta  occ. eigenvalues --   -0.16441  -0.12749  -0.12178
  Beta virt. eigenvalues --   -0.07534  -0.05905  -0.05099  -0.04696  -0.03190
  Beta virt. eigenvalues --   -0.02393  -0.02036  -0.01957  -0.01212  -0.00822
  Beta virt. eigenvalues --   -0.00431  -0.00209  -0.00097   0.00489   0.00582

 Mulliken charges and spin densities:
               1          2
     1  Na   0.077917   0.028397
     2  Na   0.155564   0.037562
     3  Na  -0.092999   0.258533
     4  Na  -0.629904   0.035514
     5  Na  -0.113225   0.073173
     6  Na   0.467435   0.038001
     7  Na   0.135211   0.528820
 Sum of Mulliken charges =  -0.00000   1.00000

 Dipole moment (field-independent basis, Debye):
    X=              0.6923    Y=              0.8519    Z=              0.1357  Tot=              1.1061
 Quadrupole moment (field-independent basis, Debye-Ang):
   XX=            -70.9932   YY=            -63.6993   ZZ=            -67.4453
   XY=             -2.4246   XZ=             -0.2261   YZ=             -1.8793

 Normal termination of Gaussian 16 at Tue Nov 28 20:46:34 2023.
