 Gaussian 16, Revision B.01,
 Gaussian 16:  ES64L-G16RevB.01 20-Dec-2017

 -------------------------
 #P B3LYP/6-311+g(d) force
 -------------------------

 -----
 DPGEN
 -----
 Symbolic Z-matrix:
 Charge =  0 Multiplicity = 2

                         Standard orientation:
 ---------------------------------------------------------------------
 Center     Atomic      Atomic             Coordinates (Angstroms)
 Number     Number       Type             X           Y           Z
 ---------------------------------------------------------------------
      1         11           0        3.599823   -0.665756    0.449574
      2         11           0       -1.048082    0.896512    2.050614
      3         11           0        1.657467    1.832760   -0.134132
      4         11           0       -0.006606   -1.870304    0.661757
      5         11           0       -1.503541    1.869086   -1.036738
      6         11           0       -3.137397   -1.118750   -0.019995
      7         11           0        0.438336   -0.943547   -1.971080
 ---------------------------------------------------------------------

 SCF Done:  E(UB3LYP) =  -1136.12657879     A.U. after   22 cycles

 The electronic state is 2-A.
 Alpha  occ. eigenvalues --  -38.44733 -38.44435 -38.44241 -38.43939 -38.43075
 Alpha  occ. eigenvalues --  -38.42956 -38.42815  -2.20530  -2.20266  -2.20167
 Alpha  occ. eigenvalues --   -2.19847  -2.19037  -2.18867  -2.18715  -1.14212
 Alpha  occ. eigenvalues --   -1.14191  -1.14149  -1.13952  -1.13941  -1.13923
 Alpha  occ. eigenvalues --   -1.13910  -1.13795  -1.13734  -1.13539  -1.13485
 Alpha  occ. eigenvalues --   -1.13445  -1.12765  -1.12704  -1.12599  -1.12561
 Alpha  occ. eigenvalues --   -1.12519  -1.12505  -1.12394  -1.12387  -1.12336
 Alpha  occ. eigenvalues --   -0.18931  -0.13428  -0.11622  -0.11489
 Alpha virt. eigenvalues --   -0.06515  -0.04590  -0.03948  -0.03292  -0.03094
 Alpha virt. eigenvalues --   -0.02824  -0.02142  -0.00880  -0.00332   0.00174
 Alpha virt. eigenvalues --    0.00204   0.00341   0.00400   0.00869   0.00949

  Beta  occ. eigenvalues --  -38.44727 -38.44436 -38.44168 -38.43871 -38.43054
  Beta  occ. eigenvalues --  -38.42928 -38.42808  -2.20519  -2.20271  -2.20036
  Beta  occ. eigenvalues --   -2.19721  -2.19005  -2.18819  -2.18706  -1.14206
  Beta  occ. eigenvalues --   -1.14177  -1.14143  -1.13935  -1.13931  -1.13903
  Beta  occ. eigenvalues --   -1.13865  -1.13694  -1.13639  -1.13452  -1.13399
  Beta  occ. eigenvalues --   -1.13353  -1.12725  -1.12660  -1.12582  -1.12530
  Beta  occ. eigenvalues --   -1.12483  -1.12454  -1.12388  -1.12353  -1.12335
  Beta  occ. eigenvalues --   -0.18115  -0.13238  -0.11332
  Beta virt. eigenvalues --   -0.07589  -0.06313  -0.04577  -0.03303  -0.03189
  Beta virt. eigenvalues --   -0.02380  -0.02090  -0.01768  -0.00797  -0.00096
  Beta virt. eigenvalues --    0.00178   0.00219   0.00355   0.00603   0.00922

 Mulliken charges and spin densities:
               1          2
     1  Na   0.081056  -0.117914
     2  Na  -0.694291   0.234824
     3  Na   0.063704   0.137197
     4  Na   0.658708   0.264373
     5  Na   0.356139   0.217698
     6  Na   0.366526  -0.043491
     7  Na  -0.831842   0.307313
 Sum of Mulliken charges =  -0.00000   1.00000

 Dipole moment (field-independent basis, Debye):
    X=              0.0241    Y=             -0.2644    Z=              0.1084  Tot=              0.2868
 Quadrupole moment (field-independent basis, Debye-Ang):
   XX=            -50.0909   YY=            -76.4515   ZZ=            -66.8755
   XY=             -0.5614   XZ=              2.0604   YZ=             -0.5719

 Normal termination of Gaussian 16 at Tue Dec  5 20:00:47 2023.
