 Gaussian 16, Revision B.01,
 Gaussian 16:  ES64L-G16RevB.01 20-Dec-2017

 -------------------------
 #P B3LYP/6-311+g(d) force
 -------------------------

 -----
 DPGEN
 -----
 Symbolic Z-matrix:
 Charge =  0 Multiplicity = 2

                         Standard orientation:
 ---------------------------------------------------------------------
 Center     Atomic      Atomic             Coordinates (Angstroms)
 Number     Number       Type             X           Y           Z
 ---------------------------------------------------------------------
      1         11           0        0.931020   -2.910477    0.155851
      2         11           0       -0.104644   -0.004915    2.196176
      3         11           0        0.054121    0.112239   -1.570060
      4         11           0        3.287706   -0.214879   -0.272502
      5         11           0       -2.532746    1.725450    0.014228
      6         11           0       -2.640010   -1.778331   -0.446612
      7         11           0        1.004553    3.070913   -0.077081
 ---------------------------------------------------------------------

 SCF Done:  E(UB3LYP) =  -1136.13784704     A.U. after   19 cycles

 The electronic state is 2-A.
 Alpha  occ. eigenvalues --  -38.44123 -38.43870 -38.43834 -38.43768 -38.43698
 Alpha  occ. eigenvalues --  -38.43677 -38.43211  -2.19912  -2.19697  -2.19625
 Alpha  occ. eigenvalues --   -2.19613  -2.19512  -2.19488  -2.19153  -1.13593
 Alpha  occ. eigenvalues --   -1.13569  -1.13548  -1.13381  -1.13372  -1.13330
 Alpha  occ. eigenvalues --   -1.13306  -1.13287  -1.13270  -1.13258  -1.13238
 Alpha  occ. eigenvalues --   -1.13232  -1.13192  -1.13168  -1.13162  -1.13157
 Alpha  occ. eigenvalues --   -1.13149  -1.13117  -1.12846  -1.12788  -1.12778
 Alpha  occ. eigenvalues --   -0.18119  -0.12730  -0.12387  -0.10632
 Alpha virt. eigenvalues --   -0.05641  -0.05260  -0.05075  -0.03039  -0.02860
 Alpha virt. eigenvalues --   -0.02612  -0.01515  -0.01337  -0.00631  -0.00605
 Alpha virt. eigenvalues --   -0.00032   0.00338   0.00775   0.00809   0.00840

  Beta  occ. eigenvalues --  -38.44120 -38.43866 -38.43833 -38.43689 -38.43673
  Beta  occ. eigenvalues --  -38.43662 -38.43159  -2.19908  -2.19692  -2.19625
  Beta  occ. eigenvalues --   -2.19498  -2.19484  -2.19417  -2.19059  -1.13579
  Beta  occ. eigenvalues --   -1.13564  -1.13547  -1.13377  -1.13349  -1.13326
  Beta  occ. eigenvalues --   -1.13297  -1.13283  -1.13258  -1.13176  -1.13162
  Beta  occ. eigenvalues --   -1.13152  -1.13143  -1.13141  -1.13133  -1.13118
  Beta  occ. eigenvalues --   -1.13103  -1.13084  -1.12778  -1.12722  -1.12706
  Beta  occ. eigenvalues --   -0.17414  -0.12519  -0.12183
  Beta virt. eigenvalues --   -0.06712  -0.05646  -0.05241  -0.04954  -0.02289
  Beta virt. eigenvalues --   -0.02152  -0.01545  -0.01415  -0.01260  -0.00670
  Beta virt. eigenvalues --   -0.00654   0.00125   0.00376   0.00799   0.00835

 Mulliken charges and spin densities:
               1          2
     1  Na   0.101119   0.000411
     2  Na  -0.439314   0.776920
     3  Na  -0.069264   0.362415
     4  Na   0.059757  -0.067654
     5  Na   0.197902  -0.003829
     6  Na   0.117915   0.013809
     7  Na   0.031885  -0.082072
 Sum of Mulliken charges =  -0.00000   1.00000

 Dipole moment (field-independent basis, Debye):
    X=              0.1222    Y=              0.1061    Z=              0.0950  Tot=              0.1877
 Quadrupole moment (field-independent basis, Debye-Ang):
   XX=            -57.5912   YY=            -60.0419   ZZ=            -75.3826
   XY=              0.2360   XZ=              0.3145   YZ=              0.3958

 Normal termination of Gaussian 16 at Thu Dec  7 07:13:09 2023.
