 Gaussian 16, Revision B.01,
 Gaussian 16:  ES64L-G16RevB.01 20-Dec-2017

 -------------------------
 #P B3LYP/6-311+g(d) force
 -------------------------

 -----
 DPGEN
 -----
 Symbolic Z-matrix:
 Charge =  0 Multiplicity = 2

                         Standard orientation:
 ---------------------------------------------------------------------
 Center     Atomic      Atomic             Coordinates (Angstroms)
 Number     Number       Type             X           Y           Z
 ---------------------------------------------------------------------
      1         11           0       -0.666905    2.920166   -0.852990
      2         11           0       -2.120908   -2.742666    0.575886
      3         11           0        0.367289   -0.908796   -0.767431
      4         11           0       -1.216752    0.779380    1.952194
      5         11           0       -2.686103    0.150451   -1.315984
      6         11           0        2.410539    0.936168    1.213362
      7         11           0        3.912840   -1.134702   -0.805038
 ---------------------------------------------------------------------

 SCF Done:  E(UB3LYP) =  -1136.13196964     A.U. after   20 cycles

 The electronic state is 2-A.
 Alpha  occ. eigenvalues --  -38.44023 -38.44020 -38.44012 -38.43849 -38.43556
 Alpha  occ. eigenvalues --  -38.43330 -38.43208  -2.19911  -2.19868  -2.19825
 Alpha  occ. eigenvalues --   -2.19718  -2.19483  -2.19155  -2.19025  -1.13620
 Alpha  occ. eigenvalues --   -1.13572  -1.13571  -1.13549  -1.13524  -1.13501
 Alpha  occ. eigenvalues --   -1.13479  -1.13476  -1.13417  -1.13401  -1.13362
 Alpha  occ. eigenvalues --   -1.13318  -1.13200  -1.13153  -1.13094  -1.12825
 Alpha  occ. eigenvalues --   -1.12807  -1.12789  -1.12696  -1.12685  -1.12661
 Alpha  occ. eigenvalues --   -0.18087  -0.13562  -0.11791  -0.10933
 Alpha virt. eigenvalues --   -0.05933  -0.05089  -0.04777  -0.03181  -0.02930
 Alpha virt. eigenvalues --   -0.02301  -0.01940  -0.01202  -0.00771  -0.00192
 Alpha virt. eigenvalues --    0.00070   0.00249   0.00421   0.00690   0.00809

  Beta  occ. eigenvalues --  -38.44004 -38.43998 -38.43976 -38.43779 -38.43540
  Beta  occ. eigenvalues --  -38.43322 -38.43194  -2.19836  -2.19831  -2.19799
  Beta  occ. eigenvalues --   -2.19591  -2.19457  -2.19142  -2.19001  -1.13562
  Beta  occ. eigenvalues --   -1.13551  -1.13518  -1.13513  -1.13507  -1.13458
  Beta  occ. eigenvalues --   -1.13456  -1.13436  -1.13390  -1.13315  -1.13267
  Beta  occ. eigenvalues --   -1.13227  -1.13153  -1.13134  -1.13080  -1.12817
  Beta  occ. eigenvalues --   -1.12786  -1.12783  -1.12680  -1.12665  -1.12632
  Beta  occ. eigenvalues --   -0.17405  -0.13339  -0.11553
  Beta virt. eigenvalues --   -0.07149  -0.05701  -0.04884  -0.04492  -0.02852
  Beta virt. eigenvalues --   -0.02346  -0.01930  -0.01452  -0.01070  -0.00482
  Beta virt. eigenvalues --   -0.00042   0.00201   0.00309   0.00533   0.00783

 Mulliken charges and spin densities:
               1          2
     1  Na  -0.022454   0.045457
     2  Na   0.363162  -0.086317
     3  Na  -1.046898   0.363237
     4  Na  -0.018800   0.480038
     5  Na   0.410644   0.174827
     6  Na  -0.053291  -0.046697
     7  Na   0.367637   0.069455
 Sum of Mulliken charges =  -0.00000   1.00000

 Dipole moment (field-independent basis, Debye):
    X=              0.2579    Y=             -0.0217    Z=              0.1193  Tot=              0.2850
 Quadrupole moment (field-independent basis, Debye-Ang):
   XX=            -55.9855   YY=            -67.3858   ZZ=            -69.4655
   XY=              0.8793   XZ=             -1.2421   YZ=             -0.4530

 Normal termination of Gaussian 16 at Tue Dec  5 12:17:53 2023.
