 Gaussian 16, Revision B.01,
 Gaussian 16:  ES64L-G16RevB.01 20-Dec-2017

 -------------------------
 #P B3LYP/6-311+g(d) force
 -------------------------

 -----
 DPGEN
 -----
 Symbolic Z-matrix:
 Charge =  0 Multiplicity = 2

                         Standard orientation:
 ---------------------------------------------------------------------
 Center     Atomic      Atomic             Coordinates (Angstroms)
 Number     Number       Type             X           Y           Z
 ---------------------------------------------------------------------
      1         11           0        1.896133   -0.289612    2.550508
      2         11           0        3.659040   -0.795432    0.057767
      3         11           0       -2.987171   -1.048757   -0.465165
      4         11           0        3.147514    2.295964   -1.211089
      5         11           0       -5.653843    1.054436    0.410950
      6         11           0        0.271799   -2.220204   -1.238246
      7         11           0       -0.333472    1.003605   -0.104724
 ---------------------------------------------------------------------

 SCF Done:  E(UB3LYP) =  -1136.10395418     A.U. after   28 cycles

 The electronic state is 2-A.
 Alpha  occ. eigenvalues --  -38.46020 -38.45747 -38.45634 -38.44112 -38.43579
 Alpha  occ. eigenvalues --  -38.43538 -38.43012  -2.21829  -2.21586  -2.21477
 Alpha  occ. eigenvalues --   -2.19924  -2.19373  -2.19331  -2.18836  -1.15548
 Alpha  occ. eigenvalues --   -1.15463  -1.15451  -1.15344  -1.15237  -1.15219
 Alpha  occ. eigenvalues --   -1.15124  -1.15076  -1.15070  -1.13582  -1.13568
 Alpha  occ. eigenvalues --   -1.13544  -1.13082  -1.13070  -1.13005  -1.12998
 Alpha  occ. eigenvalues --   -1.12985  -1.12935  -1.12513  -1.12490  -1.12476
 Alpha  occ. eigenvalues --   -0.17744  -0.13789  -0.11779  -0.10777
 Alpha virt. eigenvalues --   -0.08143  -0.05337  -0.04480  -0.03460  -0.03232
 Alpha virt. eigenvalues --   -0.02630  -0.02530  -0.01914  -0.01216  -0.00771
 Alpha virt. eigenvalues --   -0.00438  -0.00188  -0.00034   0.00489   0.00568

  Beta  occ. eigenvalues --  -38.46004 -38.45743 -38.45531 -38.44048 -38.43572
  Beta  occ. eigenvalues --  -38.43538 -38.43002  -2.21803  -2.21584  -2.21286
  Beta  occ. eigenvalues --   -2.19804  -2.19374  -2.19318  -2.18819  -1.15515
  Beta  occ. eigenvalues --   -1.15447  -1.15430  -1.15298  -1.15234  -1.15211
  Beta  occ. eigenvalues --   -1.14990  -1.14962  -1.14943  -1.13502  -1.13480
  Beta  occ. eigenvalues --   -1.13469  -1.13083  -1.13070  -1.12996  -1.12989
  Beta  occ. eigenvalues --   -1.12978  -1.12928  -1.12500  -1.12473  -1.12466
  Beta  occ. eigenvalues --   -0.17097  -0.13541  -0.10606
  Beta virt. eigenvalues --   -0.07979  -0.07798  -0.05083  -0.04202  -0.03009
  Beta virt. eigenvalues --   -0.02995  -0.02127  -0.01903  -0.01734  -0.00933
  Beta virt. eigenvalues --   -0.00713  -0.00363  -0.00015   0.00057   0.00551

 Mulliken charges and spin densities:
               1          2
     1  Na   0.094014   0.294754
     2  Na   0.560686   0.277820
     3  Na  -0.287965  -0.013969
     4  Na   0.332518   0.140116
     5  Na   0.307672   0.013530
     6  Na   0.099801  -0.024120
     7  Na  -1.106727   0.311869
 Sum of Mulliken charges =  -0.00000   1.00000

 Dipole moment (field-independent basis, Debye):
    X=              2.2230    Y=             -0.3616    Z=              0.3558  Tot=              2.2802
 Quadrupole moment (field-independent basis, Debye-Ang):
   XX=            -69.2968   YY=            -68.7880   ZZ=            -70.2138
   XY=             -4.5619   XZ=             -2.9772   YZ=              2.4191

 Normal termination of Gaussian 16 at Wed Nov 29 02:10:02 2023.
