 Gaussian 16, Revision B.01,
 Gaussian 16:  ES64L-G16RevB.01 20-Dec-2017

 -------------------------
 #P B3LYP/6-311+g(d) force
 -------------------------

 -----
 DPGEN
 -----
 Symbolic Z-matrix:
 Charge =  0 Multiplicity = 2

                         Standard orientation:
 ---------------------------------------------------------------------
 Center     Atomic      Atomic             Coordinates (Angstroms)
 Number     Number       Type             X           Y           Z
 ---------------------------------------------------------------------
      1         11           0       -1.204063    1.081380    2.260396
      2         11           0        1.477049   -1.623616    1.513435
      3         11           0        3.669435   -0.365158   -1.367909
      4         11           0        0.955772    2.645196    0.686308
      5         11           0       -2.769950    0.927301   -2.097400
      6         11           0        0.096137   -0.365307   -1.367295
      7         11           0       -2.224380   -2.299797    0.372464
 ---------------------------------------------------------------------

 SCF Done:  E(UB3LYP) =  -1136.12202872     A.U. after   23 cycles

 The electronic state is 2-A.
 Alpha  occ. eigenvalues --  -38.45117 -38.44839 -38.44513 -38.43838 -38.43278
 Alpha  occ. eigenvalues --  -38.43154 -38.42968  -2.20916  -2.20636  -2.20301
 Alpha  occ. eigenvalues --   -2.19608  -2.19100  -2.19075  -2.18804  -1.14608
 Alpha  occ. eigenvalues --   -1.14559  -1.14526  -1.14321  -1.14265  -1.14239
 Alpha  occ. eigenvalues --   -1.13974  -1.13963  -1.13920  -1.13284  -1.13269
 Alpha  occ. eigenvalues --   -1.13233  -1.12802  -1.12799  -1.12768  -1.12743
 Alpha  occ. eigenvalues --   -1.12728  -1.12679  -1.12467  -1.12457  -1.12435
 Alpha  occ. eigenvalues --   -0.17684  -0.12600  -0.12102  -0.11322
 Alpha virt. eigenvalues --   -0.05803  -0.05480  -0.04501  -0.03277  -0.03025
 Alpha virt. eigenvalues --   -0.02885  -0.01719  -0.01393  -0.00724  -0.00206
 Alpha virt. eigenvalues --    0.00107   0.00241   0.00398   0.00449   0.00718

  Beta  occ. eigenvalues --  -38.45073 -38.44776 -38.44481 -38.43829 -38.43266
  Beta  occ. eigenvalues --  -38.43129 -38.42960  -2.20835  -2.20521  -2.20244
  Beta  occ. eigenvalues --   -2.19592  -2.19077  -2.19034  -2.18790  -1.14554
  Beta  occ. eigenvalues --   -1.14503  -1.14455  -1.14232  -1.14187  -1.14167
  Beta  occ. eigenvalues --   -1.13936  -1.13922  -1.13870  -1.13269  -1.13257
  Beta  occ. eigenvalues --   -1.13224  -1.12789  -1.12745  -1.12736  -1.12719
  Beta  occ. eigenvalues --   -1.12708  -1.12655  -1.12454  -1.12442  -1.12421
  Beta  occ. eigenvalues --   -0.16885  -0.12324  -0.11213
  Beta virt. eigenvalues --   -0.08296  -0.05345  -0.05059  -0.04242  -0.02964
  Beta virt. eigenvalues --   -0.02505  -0.02434  -0.01602  -0.00879  -0.00664
  Beta virt. eigenvalues --   -0.00018   0.00276   0.00304   0.00452   0.00560

 Mulliken charges and spin densities:
               1          2
     1  Na   0.025453   0.017026
     2  Na   0.192661   0.292129
     3  Na   0.296192   0.000429
     4  Na  -0.119568   0.055297
     5  Na   0.255000   0.073730
     6  Na  -0.711665   0.330822
     7  Na   0.061928   0.230567
 Sum of Mulliken charges =  -0.00000   1.00000

 Dipole moment (field-independent basis, Debye):
    X=             -0.3319    Y=             -0.3573    Z=              0.0168  Tot=              0.4879
 Quadrupole moment (field-independent basis, Debye-Ang):
   XX=            -57.0584   YY=            -68.6580   ZZ=            -68.7146
   XY=              1.1846   XZ=             -0.1289   YZ=            -10.2367

 Normal termination of Gaussian 16 at Tue Dec  5 15:34:03 2023.
