 Gaussian 16, Revision B.01,
 Gaussian 16:  ES64L-G16RevB.01 20-Dec-2017

 -------------------------
 #P B3LYP/6-311+g(d) force
 -------------------------

 -----
 DPGEN
 -----
 Symbolic Z-matrix:
 Charge =  0 Multiplicity = 2

                         Standard orientation:
 ---------------------------------------------------------------------
 Center     Atomic      Atomic             Coordinates (Angstroms)
 Number     Number       Type             X           Y           Z
 ---------------------------------------------------------------------
      1         11           0        0.270119   -1.549803    0.222324
      2         11           0        6.539289   -0.326835   -0.157872
      3         11           0        3.197758   -0.127140   -0.249691
      4         11           0        0.781096    2.090386   -0.084781
      5         11           0       -2.140971    1.340452    0.921043
      6         11           0       -3.442198   -1.831330    0.238409
      7         11           0       -5.205093    0.404269   -0.889431
 ---------------------------------------------------------------------

 SCF Done:  E(UB3LYP) =  -1136.11625730     A.U. after   22 cycles

 The electronic state is 2-A.
 Alpha  occ. eigenvalues --  -38.44767 -38.44602 -38.44567 -38.44526 -38.44267
 Alpha  occ. eigenvalues --  -38.43685 -38.43193  -2.20632  -2.20440  -2.20428
 Alpha  occ. eigenvalues --   -2.20382  -2.20135  -2.19433  -2.19061  -1.14331
 Alpha  occ. eigenvalues --   -1.14301  -1.14260  -1.14200  -1.14105  -1.14096
 Alpha  occ. eigenvalues --   -1.14074  -1.14068  -1.14050  -1.14039  -1.13985
 Alpha  occ. eigenvalues --   -1.13978  -1.13811  -1.13787  -1.13747  -1.13105
 Alpha  occ. eigenvalues --   -1.13104  -1.13089  -1.12766  -1.12731  -1.12660
 Alpha  occ. eigenvalues --   -0.17575  -0.14481  -0.11806  -0.11237
 Alpha virt. eigenvalues --   -0.07060  -0.05634  -0.04540  -0.03671  -0.03149
 Alpha virt. eigenvalues --   -0.02363  -0.02169  -0.01377  -0.00966  -0.00652
 Alpha virt. eigenvalues --   -0.00227  -0.00142   0.00016   0.00211   0.00585

  Beta  occ. eigenvalues --  -38.44724 -38.44576 -38.44537 -38.44450 -38.44231
  Beta  occ. eigenvalues --  -38.43710 -38.43185  -2.20557  -2.20390  -2.20377
  Beta  occ. eigenvalues --   -2.20243  -2.20071  -2.19480  -2.19045  -1.14274
  Beta  occ. eigenvalues --   -1.14237  -1.14203  -1.14158  -1.14073  -1.14057
  Beta  occ. eigenvalues --   -1.14039  -1.14025  -1.13957  -1.13940  -1.13923
  Beta  occ. eigenvalues --   -1.13889  -1.13750  -1.13741  -1.13712  -1.13137
  Beta  occ. eigenvalues --   -1.13136  -1.13120  -1.12741  -1.12719  -1.12669
  Beta  occ. eigenvalues --   -0.16824  -0.14332  -0.11375
  Beta virt. eigenvalues --   -0.07696  -0.06789  -0.04958  -0.04303  -0.03362
  Beta virt. eigenvalues --   -0.02567  -0.02166  -0.01806  -0.01297  -0.00641
  Beta virt. eigenvalues --   -0.00550  -0.00036   0.00062   0.00226   0.00370

 Mulliken charges and spin densities:
               1          2
     1  Na   1.553795   0.865223
     2  Na  -1.010416  -0.092244
     3  Na  -1.041844  -0.478102
     4  Na   1.511195   0.493711
     5  Na  -1.185606   0.083002
     6  Na  -0.161595   0.000943
     7  Na   0.334470   0.127467
 Sum of Mulliken charges =  -0.00000   1.00000

 Dipole moment (field-independent basis, Debye):
    X=             -2.4184    Y=              0.3526    Z=             -0.1300  Tot=              2.4475
 Quadrupole moment (field-independent basis, Debye-Ang):
   XX=            -62.7249   YY=            -67.8011   ZZ=            -70.3714
   XY=              0.4265   XZ=              2.4319   YZ=             -1.4245

 Normal termination of Gaussian 16 at Tue Nov 28 21:46:32 2023.
