 Gaussian 16, Revision B.01,
 Gaussian 16:  ES64L-G16RevB.01 20-Dec-2017

 -------------------------
 #P B3LYP/6-311+g(d) force
 -------------------------

 -----
 DPGEN
 -----
 Symbolic Z-matrix:
 Charge =  0 Multiplicity = 2

                         Standard orientation:
 ---------------------------------------------------------------------
 Center     Atomic      Atomic             Coordinates (Angstroms)
 Number     Number       Type             X           Y           Z
 ---------------------------------------------------------------------
      1         11           0       -0.091120   -0.247031   -1.784224
      2         11           0       -2.003749   -2.104979    0.346146
      3         11           0        2.924395    0.367635    0.252179
      4         11           0        1.886567   -2.303919   -0.110166
      5         11           0       -0.443587    0.476968    1.843459
      6         11           0        0.693230    2.882232   -0.219822
      7         11           0       -2.965736    0.929094   -0.327573
 ---------------------------------------------------------------------

 SCF Done:  E(UB3LYP) =  -1136.13435603     A.U. after   20 cycles

 The electronic state is 2-A.
 Alpha  occ. eigenvalues --  -38.44349 -38.43994 -38.43713 -38.43399 -38.43395
 Alpha  occ. eigenvalues --  -38.43308 -38.43163  -2.20212  -2.19895  -2.19589
 Alpha  occ. eigenvalues --   -2.19333  -2.19283  -2.19263  -2.19009  -1.13889
 Alpha  occ. eigenvalues --   -1.13882  -1.13847  -1.13656  -1.13542  -1.13528
 Alpha  occ. eigenvalues --   -1.13276  -1.13255  -1.13218  -1.13010  -1.12983
 Alpha  occ. eigenvalues --   -1.12970  -1.12953  -1.12946  -1.12930  -1.12901
 Alpha  occ. eigenvalues --   -1.12887  -1.12863  -1.12676  -1.12673  -1.12647
 Alpha  occ. eigenvalues --   -0.18901  -0.13562  -0.12231  -0.10797
 Alpha virt. eigenvalues --   -0.05837  -0.05172  -0.04422  -0.03495  -0.02813
 Alpha virt. eigenvalues --   -0.02465  -0.01599  -0.01037  -0.00251  -0.00225
 Alpha virt. eigenvalues --    0.00005   0.00375   0.00801   0.00864   0.00920

  Beta  occ. eigenvalues --  -38.44340 -38.43990 -38.43702 -38.43393 -38.43324
  Beta  occ. eigenvalues --  -38.43230 -38.43159  -2.20199  -2.19890  -2.19572
  Beta  occ. eigenvalues --   -2.19282  -2.19195  -2.19122  -2.19005  -1.13885
  Beta  occ. eigenvalues --   -1.13848  -1.13834  -1.13658  -1.13530  -1.13514
  Beta  occ. eigenvalues --   -1.13264  -1.13218  -1.13206  -1.12965  -1.12933
  Beta  occ. eigenvalues --   -1.12919  -1.12893  -1.12872  -1.12854  -1.12838
  Beta  occ. eigenvalues --   -1.12788  -1.12774  -1.12673  -1.12654  -1.12638
  Beta  occ. eigenvalues --   -0.18165  -0.13319  -0.12008
  Beta virt. eigenvalues --   -0.06883  -0.05775  -0.05147  -0.04396  -0.02673
  Beta virt. eigenvalues --   -0.02081  -0.01513  -0.01422  -0.00960  -0.00280
  Beta virt. eigenvalues --   -0.00260   0.00139   0.00402   0.00847   0.00892

 Mulliken charges and spin densities:
               1          2
     1  Na  -0.284977   0.636593
     2  Na   0.112793   0.003017
     3  Na   0.022981  -0.011489
     4  Na   0.139875  -0.042094
     5  Na  -0.301533   0.548523
     6  Na   0.072889  -0.071871
     7  Na   0.237972  -0.062679
 Sum of Mulliken charges =  -0.00000   1.00000

 Dipole moment (field-independent basis, Debye):
    X=             -0.4984    Y=              0.1034    Z=              0.0203  Tot=              0.5094
 Quadrupole moment (field-independent basis, Debye-Ang):
   XX=            -56.4620   YY=            -63.9782   ZZ=            -73.9847
   XY=             -0.0724   XZ=              0.9651   YZ=             -1.6850

 Normal termination of Gaussian 16 at Thu Dec  7 08:51:07 2023.
