 Gaussian 16, Revision B.01,
 Gaussian 16:  ES64L-G16RevB.01 20-Dec-2017

 -------------------------
 #P B3LYP/6-311+g(d) force
 -------------------------

 -----
 DPGEN
 -----
 Symbolic Z-matrix:
 Charge =  0 Multiplicity = 2

                         Standard orientation:
 ---------------------------------------------------------------------
 Center     Atomic      Atomic             Coordinates (Angstroms)
 Number     Number       Type             X           Y           Z
 ---------------------------------------------------------------------
      1         11           0        0.153759   -0.053118    2.258716
      2         11           0        3.092389    0.712168   -0.126639
      3         11           0        1.741802   -2.167287   -0.085614
      4         11           0       -1.693888   -2.383132   -0.344825
      5         11           0       -3.111305    0.545924    0.100248
      6         11           0       -0.250825    3.089102   -0.137666
      7         11           0        0.068068    0.256343   -1.664219
 ---------------------------------------------------------------------

 SCF Done:  E(UB3LYP) =  -1136.13663578     A.U. after   19 cycles

 The electronic state is 2-A.
 Alpha  occ. eigenvalues --  -38.44196 -38.44177 -38.44042 -38.43481 -38.43268
 Alpha  occ. eigenvalues --  -38.43255 -38.43204  -2.20015  -2.20010  -2.19889
 Alpha  occ. eigenvalues --   -2.19290  -2.19238  -2.19158  -2.19067  -1.13703
 Alpha  occ. eigenvalues --   -1.13686  -1.13680  -1.13676  -1.13651  -1.13646
 Alpha  occ. eigenvalues --   -1.13543  -1.13514  -1.13507  -1.13019  -1.12953
 Alpha  occ. eigenvalues --   -1.12936  -1.12918  -1.12874  -1.12865  -1.12820
 Alpha  occ. eigenvalues --   -1.12808  -1.12805  -1.12734  -1.12720  -1.12704
 Alpha  occ. eigenvalues --   -0.18551  -0.13054  -0.12275  -0.10987
 Alpha virt. eigenvalues --   -0.05867  -0.04836  -0.04725  -0.03294  -0.02901
 Alpha virt. eigenvalues --   -0.02867  -0.01574  -0.01020  -0.00443  -0.00218
 Alpha virt. eigenvalues --   -0.00044   0.00364   0.00820   0.00859   0.00908

  Beta  occ. eigenvalues --  -38.44195 -38.44173 -38.43935 -38.43480 -38.43247
  Beta  occ. eigenvalues --  -38.43208 -38.43198  -2.20012  -2.20010  -2.19692
  Beta  occ. eigenvalues --   -2.19290  -2.19149  -2.19130  -2.19059  -1.13702
  Beta  occ. eigenvalues --   -1.13687  -1.13663  -1.13654  -1.13650  -1.13650
  Beta  occ. eigenvalues --   -1.13412  -1.13375  -1.13367  -1.13001  -1.12939
  Beta  occ. eigenvalues --   -1.12920  -1.12885  -1.12821  -1.12811  -1.12790
  Beta  occ. eigenvalues --   -1.12787  -1.12756  -1.12721  -1.12702  -1.12694
  Beta  occ. eigenvalues --   -0.17809  -0.12859  -0.12054
  Beta virt. eigenvalues --   -0.07006  -0.05835  -0.04835  -0.04659  -0.02504
  Beta virt. eigenvalues --   -0.02125  -0.01781  -0.01484  -0.00947  -0.00498
  Beta virt. eigenvalues --   -0.00266   0.00115   0.00389   0.00844   0.00884

 Mulliken charges and spin densities:
               1          2
     1  Na  -0.634148   0.732445
     2  Na   0.233616  -0.054863
     3  Na   0.308940   0.093227
     4  Na   0.129484   0.011347
     5  Na   0.069230  -0.008571
     6  Na   0.036546  -0.089380
     7  Na  -0.143668   0.315795
 Sum of Mulliken charges =  -0.00000   1.00000

 Dipole moment (field-independent basis, Debye):
    X=              0.0375    Y=              0.2889    Z=              0.2358  Tot=              0.3748
 Quadrupole moment (field-independent basis, Debye-Ang):
   XX=            -56.8462   YY=            -64.2573   ZZ=            -73.3046
   XY=              0.3349   XZ=             -0.4033   YZ=              0.9020

 Normal termination of Gaussian 16 at Fri Dec  8 04:01:03 2023.
