 Gaussian 16, Revision B.01,
 Gaussian 16:  ES64L-G16RevB.01 20-Dec-2017

 -------------------------
 #P B3LYP/6-311+g(d) force
 -------------------------

 -----
 DPGEN
 -----
 Symbolic Z-matrix:
 Charge =  0 Multiplicity = 2

                         Standard orientation:
 ---------------------------------------------------------------------
 Center     Atomic      Atomic             Coordinates (Angstroms)
 Number     Number       Type             X           Y           Z
 ---------------------------------------------------------------------
      1         11           0        2.704847   -1.697961   -0.022072
      2         11           0       -0.110625   -0.023948   -1.650119
      3         11           0       -2.966201    0.310197   -0.075312
      4         11           0        0.074005   -0.433044    1.997303
      5         11           0        2.396729    1.552972   -0.275648
      6         11           0       -1.457665   -2.458115   -0.224325
      7         11           0       -0.641090    2.749899    0.250171
 ---------------------------------------------------------------------

 SCF Done:  E(UB3LYP) =  -1136.13677214     A.U. after   19 cycles

 The electronic state is 2-A.
 Alpha  occ. eigenvalues --  -38.43947 -38.43909 -38.43599 -38.43531 -38.43467
 Alpha  occ. eigenvalues --  -38.43217 -38.42899  -2.19846  -2.19738  -2.19493
 Alpha  occ. eigenvalues --   -2.19440  -2.19373  -2.19236  -2.18781  -1.13544
 Alpha  occ. eigenvalues --   -1.13505  -1.13494  -1.13420  -1.13405  -1.13381
 Alpha  occ. eigenvalues --   -1.13196  -1.13151  -1.13133  -1.13120  -1.13094
 Alpha  occ. eigenvalues --   -1.13081  -1.13053  -1.13011  -1.12988  -1.12905
 Alpha  occ. eigenvalues --   -1.12855  -1.12849  -1.12452  -1.12436  -1.12430
 Alpha  occ. eigenvalues --   -0.19068  -0.13396  -0.12378  -0.10891
 Alpha virt. eigenvalues --   -0.05625  -0.05151  -0.04427  -0.03351  -0.02883
 Alpha virt. eigenvalues --   -0.02550  -0.01519  -0.01023  -0.00242  -0.00098
 Alpha virt. eigenvalues --    0.00014   0.00364   0.00813   0.00898   0.00929

  Beta  occ. eigenvalues --  -38.43941 -38.43907 -38.43592 -38.43457 -38.43439
  Beta  occ. eigenvalues --  -38.43149 -38.42893  -2.19839  -2.19738  -2.19483
  Beta  occ. eigenvalues --   -2.19361  -2.19271  -2.19113  -2.18774  -1.13538
  Beta  occ. eigenvalues --   -1.13503  -1.13465  -1.13424  -1.13385  -1.13381
  Beta  occ. eigenvalues --   -1.13182  -1.13125  -1.13117  -1.13092  -1.13020
  Beta  occ. eigenvalues --   -1.12994  -1.12978  -1.12933  -1.12928  -1.12823
  Beta  occ. eigenvalues --   -1.12771  -1.12762  -1.12448  -1.12431  -1.12403
  Beta  occ. eigenvalues --   -0.18325  -0.13132  -0.12137
  Beta virt. eigenvalues --   -0.06948  -0.05596  -0.05137  -0.04403  -0.02521
  Beta virt. eigenvalues --   -0.02093  -0.01523  -0.01402  -0.00955  -0.00304
  Beta virt. eigenvalues --   -0.00115   0.00137   0.00388   0.00874   0.00898

 Mulliken charges and spin densities:
               1          2
     1  Na   0.159878  -0.101166
     2  Na  -0.339551   0.383324
     3  Na   0.236746   0.038724
     4  Na  -0.605718   0.732428
     5  Na   0.150893   0.017180
     6  Na   0.347773  -0.081559
     7  Na   0.049978   0.011069
 Sum of Mulliken charges =  -0.00000   1.00000

 Dipole moment (field-independent basis, Debye):
    X=              0.0699    Y=             -0.2789    Z=              0.1462  Tot=              0.3226
 Quadrupole moment (field-independent basis, Debye-Ang):
   XX=            -56.5101   YY=            -63.8374   ZZ=            -73.6943
   XY=             -0.7627   XZ=             -0.4761   YZ=              0.8105

 Normal termination of Gaussian 16 at Thu Dec  7 23:49:50 2023.
