 Gaussian 16, Revision B.01,
 Gaussian 16:  ES64L-G16RevB.01 20-Dec-2017

 -------------------------
 #P B3LYP/6-311+g(d) force
 -------------------------

 -----
 DPGEN
 -----
 Symbolic Z-matrix:
 Charge =  0 Multiplicity = 2

                         Standard orientation:
 ---------------------------------------------------------------------
 Center     Atomic      Atomic             Coordinates (Angstroms)
 Number     Number       Type             X           Y           Z
 ---------------------------------------------------------------------
      1         11           0       -1.944905   -2.492132    0.173977
      2         11           0        0.523012   -0.182958   -1.507381
      3         11           0       -0.684244    2.780954   -0.274765
      4         11           0        2.886327   -2.038996   -0.177345
      5         11           0       -3.344221    0.305206   -0.505507
      6         11           0       -0.367607    0.216723    2.108469
      7         11           0        2.931639    1.411203    0.182553
 ---------------------------------------------------------------------

 SCF Done:  E(UB3LYP) =  -1136.13050284     A.U. after   22 cycles

 The electronic state is 2-A.
 Alpha  occ. eigenvalues --  -38.44719 -38.44535 -38.44130 -38.43647 -38.43630
 Alpha  occ. eigenvalues --  -38.43570 -38.42809  -2.20533  -2.20358  -2.19933
 Alpha  occ. eigenvalues --   -2.19568  -2.19450  -2.19428  -2.18651  -1.14220
 Alpha  occ. eigenvalues --   -1.14201  -1.14153  -1.14027  -1.14021  -1.13995
 Alpha  occ. eigenvalues --   -1.13617  -1.13587  -1.13574  -1.13265  -1.13217
 Alpha  occ. eigenvalues --   -1.13189  -1.13117  -1.13113  -1.13099  -1.13088
 Alpha  occ. eigenvalues --   -1.13062  -1.13033  -1.12334  -1.12319  -1.12283
 Alpha  occ. eigenvalues --   -0.18094  -0.13595  -0.11773  -0.10440
 Alpha virt. eigenvalues --   -0.06216  -0.05817  -0.04255  -0.03411  -0.02582
 Alpha virt. eigenvalues --   -0.02399  -0.02028  -0.01373  -0.00747  -0.00401
 Alpha virt. eigenvalues --   -0.00076   0.00280   0.00642   0.00759   0.00809

  Beta  occ. eigenvalues --  -38.44717 -38.44520 -38.44130 -38.43625 -38.43605
  Beta  occ. eigenvalues --  -38.43468 -38.42802  -2.20530  -2.20332  -2.19936
  Beta  occ. eigenvalues --   -2.19493  -2.19444  -2.19241  -2.18641  -1.14212
  Beta  occ. eigenvalues --   -1.14192  -1.14152  -1.14012  -1.13989  -1.13978
  Beta  occ. eigenvalues --   -1.13613  -1.13586  -1.13575  -1.13207  -1.13165
  Beta  occ. eigenvalues --   -1.13133  -1.13113  -1.13097  -1.13083  -1.12965
  Beta  occ. eigenvalues --   -1.12933  -1.12898  -1.12328  -1.12300  -1.12265
  Beta  occ. eigenvalues --   -0.17419  -0.13395  -0.11566
  Beta virt. eigenvalues --   -0.06599  -0.06072  -0.05774  -0.04221  -0.02719
  Beta virt. eigenvalues --   -0.01948  -0.01858  -0.01458  -0.01229  -0.00763
  Beta virt. eigenvalues --   -0.00409   0.00107   0.00340   0.00738   0.00765

 Mulliken charges and spin densities:
               1          2
     1  Na   0.041500   0.001868
     2  Na  -0.037778   0.263417
     3  Na  -0.002150   0.026160
     4  Na   0.110434  -0.056896
     5  Na   0.121806   0.074643
     6  Na  -0.379126   0.698406
     7  Na   0.145312  -0.007598
 Sum of Mulliken charges =  -0.00000   1.00000

 Dipole moment (field-independent basis, Debye):
    X=              0.4775    Y=             -0.0241    Z=              0.0953  Tot=              0.4875
 Quadrupole moment (field-independent basis, Debye-Ang):
   XX=            -52.4884   YY=            -65.1847   ZZ=            -75.8310
   XY=             -0.0276   XZ=              2.2477   YZ=             -0.6213

 Normal termination of Gaussian 16 at Thu Dec  7 05:01:07 2023.
