 Gaussian 16, Revision B.01,
 Gaussian 16:  ES64L-G16RevB.01 20-Dec-2017

 -------------------------
 #P B3LYP/6-311+g(d) force
 -------------------------

 -----
 DPGEN
 -----
 Symbolic Z-matrix:
 Charge =  0 Multiplicity = 2

                         Standard orientation:
 ---------------------------------------------------------------------
 Center     Atomic      Atomic             Coordinates (Angstroms)
 Number     Number       Type             X           Y           Z
 ---------------------------------------------------------------------
      1         11           0        1.876988    2.168665   -0.088617
      2         11           0       -1.116899   -1.600648   -0.486217
      3         11           0       -0.158935    0.606988    1.778682
      4         11           0       -4.271882   -0.600272    0.514554
      5         11           0        3.266392   -1.056840    0.894001
      6         11           0       -1.611036    1.611984   -1.226805
      7         11           0        2.015372   -1.129878   -1.385599
 ---------------------------------------------------------------------

 SCF Done:  E(UB3LYP) =  -1136.11149828     A.U. after   26 cycles

 The electronic state is 2-A.
 Alpha  occ. eigenvalues --  -38.45208 -38.44625 -38.44308 -38.43930 -38.43883
 Alpha  occ. eigenvalues --  -38.43709 -38.43293  -2.20980  -2.20542  -2.20197
 Alpha  occ. eigenvalues --   -2.19828  -2.19739  -2.19683  -2.19161  -1.14649
 Alpha  occ. eigenvalues --   -1.14642  -1.14599  -1.14506  -1.14149  -1.14119
 Alpha  occ. eigenvalues --   -1.13912  -1.13840  -1.13814  -1.13542  -1.13520
 Alpha  occ. eigenvalues --   -1.13457  -1.13405  -1.13393  -1.13335  -1.13298
 Alpha  occ. eigenvalues --   -1.13288  -1.13258  -1.12846  -1.12830  -1.12782
 Alpha  occ. eigenvalues --   -0.18653  -0.14214  -0.11309  -0.10704
 Alpha virt. eigenvalues --   -0.07350  -0.05263  -0.04276  -0.03176  -0.03066
 Alpha virt. eigenvalues --   -0.02478  -0.02092  -0.01198  -0.00875  -0.00192
 Alpha virt. eigenvalues --    0.00025   0.00262   0.00324   0.00642   0.00721

  Beta  occ. eigenvalues --  -38.45191 -38.44612 -38.44268 -38.43901 -38.43845
  Beta  occ. eigenvalues --  -38.43679 -38.43290  -2.20948  -2.20518  -2.20124
  Beta  occ. eigenvalues --   -2.19783  -2.19670  -2.19629  -2.19159  -1.14626
  Beta  occ. eigenvalues --   -1.14618  -1.14579  -1.14487  -1.14132  -1.14095
  Beta  occ. eigenvalues --   -1.13862  -1.13787  -1.13753  -1.13517  -1.13462
  Beta  occ. eigenvalues --   -1.13403  -1.13360  -1.13334  -1.13292  -1.13255
  Beta  occ. eigenvalues --   -1.13247  -1.13218  -1.12840  -1.12824  -1.12767
  Beta  occ. eigenvalues --   -0.17949  -0.14025  -0.11055
  Beta virt. eigenvalues --   -0.07152  -0.06946  -0.05081  -0.03748  -0.03063
  Beta virt. eigenvalues --   -0.02839  -0.01925  -0.01384  -0.01064  -0.00521
  Beta virt. eigenvalues --   -0.00104   0.00077   0.00280   0.00480   0.00710

 Mulliken charges and spin densities:
               1          2
     1  Na  -0.118178   0.110074
     2  Na  -0.693466   0.063519
     3  Na   0.046314   0.333645
     4  Na   0.494205   0.156396
     5  Na   0.012737   0.060926
     6  Na  -0.293372   0.203673
     7  Na   0.551759   0.071766
 Sum of Mulliken charges =  -0.00000   1.00000

 Dipole moment (field-independent basis, Debye):
    X=             -1.1406    Y=              0.6209    Z=              0.2156  Tot=              1.3164
 Quadrupole moment (field-independent basis, Debye-Ang):
   XX=            -48.9684   YY=            -76.2914   ZZ=            -69.9636
   XY=              0.5635   XZ=              0.7190   YZ=             -3.9554

 Normal termination of Gaussian 16 at Thu Dec  7 10:20:19 2023.
