 Gaussian 16, Revision B.01,
 Gaussian 16:  ES64L-G16RevB.01 20-Dec-2017

 -------------------------
 #P B3LYP/6-311+g(d) force
 -------------------------

 -----
 DPGEN
 -----
 Symbolic Z-matrix:
 Charge =  0 Multiplicity = 2

                         Standard orientation:
 ---------------------------------------------------------------------
 Center     Atomic      Atomic             Coordinates (Angstroms)
 Number     Number       Type             X           Y           Z
 ---------------------------------------------------------------------
      1         11           0       -0.202373    0.337177    1.960164
      2         11           0        1.424616   -2.444719    0.016878
      3         11           0       -2.125097   -2.308259    0.047466
      4         11           0        3.183700    0.223356    0.011216
      5         11           0       -2.796624    1.222260   -0.211263
      6         11           0        0.063090   -0.021268   -1.727145
      7         11           0        0.452687    2.991452   -0.097316
 ---------------------------------------------------------------------

 SCF Done:  E(UB3LYP) =  -1136.14005519     A.U. after   19 cycles

 The electronic state is 2-A.
 Alpha  occ. eigenvalues --  -38.44007 -38.43956 -38.43588 -38.43582 -38.43411
 Alpha  occ. eigenvalues --  -38.43346 -38.43192  -2.19842  -2.19787  -2.19415
 Alpha  occ. eigenvalues --   -2.19408  -2.19311  -2.19229  -2.19148  -1.13522
 Alpha  occ. eigenvalues --   -1.13515  -1.13474  -1.13469  -1.13452  -1.13425
 Alpha  occ. eigenvalues --   -1.13100  -1.13094  -1.13078  -1.13075  -1.13057
 Alpha  occ. eigenvalues --   -1.13042  -1.12980  -1.12942  -1.12934  -1.12926
 Alpha  occ. eigenvalues --   -1.12885  -1.12856  -1.12821  -1.12771  -1.12763
 Alpha  occ. eigenvalues --   -0.18618  -0.12983  -0.12506  -0.10616
 Alpha virt. eigenvalues --   -0.05639  -0.05177  -0.04818  -0.03136  -0.02882
 Alpha virt. eigenvalues --   -0.02473  -0.01495  -0.01222  -0.00464  -0.00324
 Alpha virt. eigenvalues --   -0.00007   0.00370   0.00800   0.00867   0.00904

  Beta  occ. eigenvalues --  -38.44000 -38.43955 -38.43587 -38.43577 -38.43341
  Beta  occ. eigenvalues --  -38.43323 -38.43121  -2.19834  -2.19788  -2.19410
  Beta  occ. eigenvalues --   -2.19407  -2.19223  -2.19149  -2.19018  -1.13514
  Beta  occ. eigenvalues --   -1.13486  -1.13477  -1.13468  -1.13434  -1.13424
  Beta  occ. eigenvalues --   -1.13095  -1.13076  -1.13062  -1.13060  -1.13056
  Beta  occ. eigenvalues --   -1.13042  -1.12927  -1.12874  -1.12864  -1.12852
  Beta  occ. eigenvalues --   -1.12818  -1.12811  -1.12736  -1.12680  -1.12668
  Beta  occ. eigenvalues --   -0.17884  -0.12756  -0.12277
  Beta virt. eigenvalues --   -0.06711  -0.05629  -0.05167  -0.04770  -0.02338
  Beta virt. eigenvalues --   -0.02114  -0.01424  -0.01402  -0.01152  -0.00532
  Beta virt. eigenvalues --   -0.00373   0.00132   0.00387   0.00826   0.00877

 Mulliken charges and spin densities:
               1          2
     1  Na  -0.434937   0.808518
     2  Na   0.124328  -0.048514
     3  Na   0.054863  -0.071660
     4  Na   0.112459  -0.080587
     5  Na   0.204451  -0.095142
     6  Na  -0.203408   0.626391
     7  Na   0.142245  -0.139006
 Sum of Mulliken charges =  -0.00000   1.00000

 Dipole moment (field-independent basis, Debye):
    X=             -0.0797    Y=              0.2285    Z=              0.0553  Tot=              0.2482
 Quadrupole moment (field-independent basis, Debye-Ang):
   XX=            -56.6688   YY=            -61.3813   ZZ=            -75.0234
   XY=              0.7332   XZ=              0.5782   YZ=             -0.8539

 Normal termination of Gaussian 16 at Thu Dec  7 17:30:23 2023.
