 Gaussian 16, Revision B.01,
 Gaussian 16:  ES64L-G16RevB.01 20-Dec-2017

 -------------------------
 #P B3LYP/6-311+g(d) force
 -------------------------

 -----
 DPGEN
 -----
 Symbolic Z-matrix:
 Charge =  0 Multiplicity = 2

                         Standard orientation:
 ---------------------------------------------------------------------
 Center     Atomic      Atomic             Coordinates (Angstroms)
 Number     Number       Type             X           Y           Z
 ---------------------------------------------------------------------
      1         11           0        0.231639    2.830465   -0.202947
      2         11           0       -5.734248   -0.741857    0.877635
      3         11           0       -2.598523    1.366905    0.120849
      4         11           0       -3.381864   -1.827004   -1.192526
      5         11           0        0.415820   -0.088846   -0.197192
      6         11           0        4.355636   -1.202967    1.080362
      7         11           0        6.711540   -0.336696   -0.486180
 ---------------------------------------------------------------------

 SCF Done:  E(UB3LYP) =  -1136.11106687     A.U. after   19 cycles

 The electronic state is 2-A.
 Alpha  occ. eigenvalues --  -38.44404 -38.44300 -38.44286 -38.44253 -38.44061
 Alpha  occ. eigenvalues --  -38.44021 -38.43919  -2.20195  -2.20178  -2.20102
 Alpha  occ. eigenvalues --   -2.20061  -2.19955  -2.19827  -2.19804  -1.13883
 Alpha  occ. eigenvalues --   -1.13882  -1.13865  -1.13859  -1.13840  -1.13811
 Alpha  occ. eigenvalues --   -1.13808  -1.13777  -1.13755  -1.13730  -1.13704
 Alpha  occ. eigenvalues --   -1.13703  -1.13699  -1.13586  -1.13571  -1.13479
 Alpha  occ. eigenvalues --   -1.13470  -1.13463  -1.13442  -1.13432  -1.13379
 Alpha  occ. eigenvalues --   -0.16768  -0.13782  -0.12821  -0.10054
 Alpha virt. eigenvalues --   -0.06755  -0.05576  -0.04588  -0.03696  -0.02831
 Alpha virt. eigenvalues --   -0.02458  -0.01982  -0.01906  -0.01307  -0.00915
 Alpha virt. eigenvalues --   -0.00365  -0.00090   0.00366   0.00412   0.00550

  Beta  occ. eigenvalues --  -38.44384 -38.44270 -38.44252 -38.44241 -38.44036
  Beta  occ. eigenvalues --  -38.44022 -38.43879  -2.20158  -2.20127  -2.20038
  Beta  occ. eigenvalues --   -2.20038  -2.19910  -2.19831  -2.19730  -1.13852
  Beta  occ. eigenvalues --   -1.13837  -1.13834  -1.13823  -1.13811  -1.13799
  Beta  occ. eigenvalues --   -1.13770  -1.13735  -1.13709  -1.13690  -1.13688
  Beta  occ. eigenvalues --   -1.13686  -1.13644  -1.13556  -1.13530  -1.13483
  Beta  occ. eigenvalues --   -1.13473  -1.13434  -1.13415  -1.13379  -1.13323
  Beta  occ. eigenvalues --   -0.16169  -0.13642  -0.12627
  Beta virt. eigenvalues --   -0.06704  -0.06189  -0.05271  -0.04203  -0.03449
  Beta virt. eigenvalues --   -0.02664  -0.02234  -0.01876  -0.01458  -0.01148
  Beta virt. eigenvalues --   -0.00602  -0.00045   0.00127   0.00473   0.00563

 Mulliken charges and spin densities:
               1          2
     1  Na   0.694302   0.190537
     2  Na   0.666474   0.069056
     3  Na  -0.502149   0.219058
     4  Na   0.139436   0.081287
     5  Na  -0.926846   0.412216
     6  Na  -0.224443  -0.025015
     7  Na   0.153226   0.052862
 Sum of Mulliken charges =  -0.00000   1.00000

 Dipole moment (field-independent basis, Debye):
    X=             -0.4339    Y=              0.2872    Z=             -0.1386  Tot=              0.5385
 Quadrupole moment (field-independent basis, Debye-Ang):
   XX=            -56.0503   YY=            -69.6691   ZZ=            -68.5148
   XY=              8.2959   XZ=             -6.3757   YZ=             -2.0445

 Normal termination of Gaussian 16 at Wed Nov 29 00:36:50 2023.
