 Gaussian 16, Revision B.01,
 Gaussian 16:  ES64L-G16RevB.01 20-Dec-2017

 -------------------------
 #P B3LYP/6-311+g(d) force
 -------------------------

 -----
 DPGEN
 -----
 Symbolic Z-matrix:
 Charge =  0 Multiplicity = 2

                         Standard orientation:
 ---------------------------------------------------------------------
 Center     Atomic      Atomic             Coordinates (Angstroms)
 Number     Number       Type             X           Y           Z
 ---------------------------------------------------------------------
      1         11           0       -0.250364   -0.142717    2.028329
      2         11           0       -1.917412    2.638566   -0.365253
      3         11           0        1.697206    2.432322    0.154249
      4         11           0        0.080304    0.059463   -1.417522
      5         11           0        3.216188   -0.651224   -0.094152
      6         11           0        0.346463   -3.061156   -0.286260
      7         11           0       -3.172385   -1.275254   -0.019390
 ---------------------------------------------------------------------

 SCF Done:  E(UB3LYP) =  -1136.13555740     A.U. after   19 cycles

 The electronic state is 2-A.
 Alpha  occ. eigenvalues --  -38.44544 -38.43964 -38.43885 -38.43826 -38.43588
 Alpha  occ. eigenvalues --  -38.43357 -38.42949  -2.20305  -2.19780  -2.19682
 Alpha  occ. eigenvalues --   -2.19639  -2.19442  -2.19227  -2.18932  -1.13984
 Alpha  occ. eigenvalues --   -1.13956  -1.13948  -1.13456  -1.13440  -1.13425
 Alpha  occ. eigenvalues --   -1.13363  -1.13337  -1.13333  -1.13319  -1.13305
 Alpha  occ. eigenvalues --   -1.13257  -1.13140  -1.13106  -1.13064  -1.12908
 Alpha  occ. eigenvalues --   -1.12849  -1.12835  -1.12634  -1.12571  -1.12549
 Alpha  occ. eigenvalues --   -0.18228  -0.12717  -0.12537  -0.10221
 Alpha virt. eigenvalues --   -0.05967  -0.05346  -0.04970  -0.02906  -0.02723
 Alpha virt. eigenvalues --   -0.02200  -0.01746  -0.01445  -0.00729  -0.00623
 Alpha virt. eigenvalues --   -0.00004   0.00316   0.00722   0.00794   0.00836

  Beta  occ. eigenvalues --  -38.44544 -38.43963 -38.43876 -38.43818 -38.43582
  Beta  occ. eigenvalues --  -38.43259 -38.42900  -2.20307  -2.19779  -2.19668
  Beta  occ. eigenvalues --   -2.19627  -2.19434  -2.19045  -2.18844  -1.13969
  Beta  occ. eigenvalues --   -1.13960  -1.13951  -1.13454  -1.13430  -1.13422
  Beta  occ. eigenvalues --   -1.13343  -1.13322  -1.13319  -1.13311  -1.13284
  Beta  occ. eigenvalues --   -1.13249  -1.13134  -1.13079  -1.13060  -1.12787
  Beta  occ. eigenvalues --   -1.12724  -1.12702  -1.12562  -1.12509  -1.12483
  Beta  occ. eigenvalues --   -0.17539  -0.12528  -0.12279
  Beta virt. eigenvalues --   -0.06380  -0.05933  -0.05295  -0.04918  -0.02177
  Beta virt. eigenvalues --   -0.02027  -0.01670  -0.01352  -0.01165  -0.00768
  Beta virt. eigenvalues --   -0.00658   0.00151   0.00361   0.00746   0.00823

 Mulliken charges and spin densities:
               1          2
     1  Na  -0.376999   0.765559
     2  Na   0.107290  -0.010812
     3  Na   0.276554   0.052032
     4  Na  -0.357358   0.348564
     5  Na   0.163692  -0.019521
     6  Na   0.138765  -0.054645
     7  Na   0.048056  -0.081178
 Sum of Mulliken charges =  -0.00000   1.00000

 Dipole moment (field-independent basis, Debye):
    X=             -0.2645    Y=             -0.1746    Z=              0.0943  Tot=              0.3306
 Quadrupole moment (field-independent basis, Debye-Ang):
   XX=            -54.0930   YY=            -59.6233   ZZ=            -77.4022
   XY=              0.0849   XZ=              0.8257   YZ=              0.4712

 Normal termination of Gaussian 16 at Thu Dec  7 23:08:57 2023.
