 Gaussian 16, Revision B.01,
 Gaussian 16:  ES64L-G16RevB.01 20-Dec-2017

 -------------------------
 #P B3LYP/6-311+g(d) force
 -------------------------

 -----
 DPGEN
 -----
 Symbolic Z-matrix:
 Charge =  0 Multiplicity = 2

                         Standard orientation:
 ---------------------------------------------------------------------
 Center     Atomic      Atomic             Coordinates (Angstroms)
 Number     Number       Type             X           Y           Z
 ---------------------------------------------------------------------
      1         11           0        1.782054   -1.697933    1.819317
      2         11           0        1.031377    0.595196   -1.081821
      3         11           0       -2.125843    1.545556    0.472320
      4         11           0       -1.462358   -1.804391   -0.083118
      5         11           0       -4.332170   -0.785033   -0.499772
      6         11           0        1.257302    3.319658    0.384010
      7         11           0        3.849639   -1.173053   -1.010936
 ---------------------------------------------------------------------

 SCF Done:  E(UB3LYP) =  -1136.12152572     A.U. after   21 cycles

 The electronic state is 2-A.
 Alpha  occ. eigenvalues --  -38.44513 -38.44137 -38.44058 -38.43978 -38.43795
 Alpha  occ. eigenvalues --  -38.43643 -38.43487  -2.20349  -2.20021  -2.19862
 Alpha  occ. eigenvalues --   -2.19846  -2.19712  -2.19449  -2.19323  -1.14057
 Alpha  occ. eigenvalues --   -1.14047  -1.13941  -1.13729  -1.13691  -1.13689
 Alpha  occ. eigenvalues --   -1.13530  -1.13511  -1.13493  -1.13490  -1.13480
 Alpha  occ. eigenvalues --   -1.13452  -1.13442  -1.13389  -1.13335  -1.13115
 Alpha  occ. eigenvalues --   -1.13107  -1.13062  -1.12979  -1.12964  -1.12931
 Alpha  occ. eigenvalues --   -0.17545  -0.14143  -0.12092  -0.10170
 Alpha virt. eigenvalues --   -0.06608  -0.05754  -0.04086  -0.03668  -0.02822
 Alpha virt. eigenvalues --   -0.02427  -0.01770  -0.01428  -0.00864  -0.00592
 Alpha virt. eigenvalues --   -0.00128  -0.00102   0.00408   0.00610   0.00676

  Beta  occ. eigenvalues --  -38.44508 -38.44116 -38.44019 -38.43942 -38.43779
  Beta  occ. eigenvalues --  -38.43648 -38.43415  -2.20341  -2.19986  -2.19793
  Beta  occ. eigenvalues --   -2.19777  -2.19688  -2.19459  -2.19188  -1.14053
  Beta  occ. eigenvalues --   -1.14035  -1.13927  -1.13708  -1.13673  -1.13633
  Beta  occ. eigenvalues --   -1.13485  -1.13455  -1.13443  -1.13440  -1.13435
  Beta  occ. eigenvalues --   -1.13432  -1.13400  -1.13341  -1.13315  -1.13119
  Beta  occ. eigenvalues --   -1.13113  -1.13065  -1.12883  -1.12873  -1.12845
  Beta  occ. eigenvalues --   -0.17061  -0.13632  -0.11869
  Beta virt. eigenvalues --   -0.06565  -0.06412  -0.05633  -0.03635  -0.03413
  Beta virt. eigenvalues --   -0.02488  -0.02146  -0.01601  -0.01097  -0.00486
  Beta virt. eigenvalues --   -0.00213  -0.00043   0.00055   0.00569   0.00693

 Mulliken charges and spin densities:
               1          2
     1  Na  -0.077412   0.145125
     2  Na   0.550847   0.242437
     3  Na  -0.120799   0.089571
     4  Na  -0.506048   0.033827
     5  Na   0.415965   0.239337
     6  Na  -0.089101  -0.036445
     7  Na  -0.173452   0.286150
 Sum of Mulliken charges =  -0.00000   1.00000

 Dipole moment (field-independent basis, Debye):
    X=             -0.8231    Y=              0.1723    Z=              0.9175  Tot=              1.2446
 Quadrupole moment (field-independent basis, Debye-Ang):
   XX=            -61.5756   YY=            -68.5833   ZZ=            -68.3163
   XY=              0.9804   XZ=              4.2804   YZ=              3.4178

 Normal termination of Gaussian 16 at Tue Nov 28 23:52:01 2023.
