 Gaussian 16, Revision B.01,
 Gaussian 16:  ES64L-G16RevB.01 20-Dec-2017

 -------------------------
 #P B3LYP/6-311+g(d) force
 -------------------------

 -----
 DPGEN
 -----
 Symbolic Z-matrix:
 Charge =  0 Multiplicity = 2

                         Standard orientation:
 ---------------------------------------------------------------------
 Center     Atomic      Atomic             Coordinates (Angstroms)
 Number     Number       Type             X           Y           Z
 ---------------------------------------------------------------------
      1         11           0       -2.003937   -2.145548   -0.251057
      2         11           0        0.001443    0.286685    2.108914
      3         11           0        1.564442   -2.733431    0.068437
      4         11           0       -3.299568    0.877199    0.007870
      5         11           0        0.670568    3.265521   -0.172284
      6         11           0        0.075087    0.227690   -1.645515
      7         11           0        2.991965    0.221883   -0.116364
 ---------------------------------------------------------------------

 SCF Done:  E(UB3LYP) =  -1136.13543767     A.U. after   19 cycles

 The electronic state is 2-A.
 Alpha  occ. eigenvalues --  -38.44417 -38.44091 -38.43828 -38.43693 -38.43620
 Alpha  occ. eigenvalues --  -38.43381 -38.43309  -2.20205  -2.19945  -2.19618
 Alpha  occ. eigenvalues --   -2.19539  -2.19465  -2.19241  -2.19211  -1.13873
 Alpha  occ. eigenvalues --   -1.13871  -1.13849  -1.13644  -1.13612  -1.13568
 Alpha  occ. eigenvalues --   -1.13297  -1.13275  -1.13260  -1.13205  -1.13163
 Alpha  occ. eigenvalues --   -1.13158  -1.13153  -1.13126  -1.13098  -1.12928
 Alpha  occ. eigenvalues --   -1.12881  -1.12874  -1.12871  -1.12867  -1.12851
 Alpha  occ. eigenvalues --   -0.18214  -0.13010  -0.12277  -0.10553
 Alpha virt. eigenvalues --   -0.05967  -0.05187  -0.04886  -0.03145  -0.02815
 Alpha virt. eigenvalues --   -0.02541  -0.01651  -0.01364  -0.00618  -0.00453
 Alpha virt. eigenvalues --   -0.00025   0.00345   0.00769   0.00792   0.00842

  Beta  occ. eigenvalues --  -38.44418 -38.44084 -38.43827 -38.43614 -38.43593
  Beta  occ. eigenvalues --  -38.43379 -38.43248  -2.20209  -2.19936  -2.19617
  Beta  occ. eigenvalues --   -2.19456  -2.19356  -2.19211  -2.19129  -1.13877
  Beta  occ. eigenvalues --   -1.13860  -1.13852  -1.13635  -1.13581  -1.13567
  Beta  occ. eigenvalues --   -1.13287  -1.13265  -1.13261  -1.13143  -1.13105
  Beta  occ. eigenvalues --   -1.13097  -1.13080  -1.13033  -1.13027  -1.12880
  Beta  occ. eigenvalues --   -1.12868  -1.12850  -1.12845  -1.12794  -1.12779
  Beta  occ. eigenvalues --   -0.17494  -0.12813  -0.12078
  Beta virt. eigenvalues --   -0.06640  -0.05959  -0.05075  -0.04893  -0.02384
  Beta virt. eigenvalues --   -0.02083  -0.01583  -0.01484  -0.01270  -0.00666
  Beta virt. eigenvalues --   -0.00498   0.00130   0.00376   0.00766   0.00827

 Mulliken charges and spin densities:
               1          2
     1  Na   0.128541   0.021367
     2  Na  -0.491646   0.777003
     3  Na  -0.009579  -0.000870
     4  Na   0.074756  -0.090233
     5  Na   0.049347  -0.127291
     6  Na  -0.062581   0.417816
     7  Na   0.311164   0.002208
 Sum of Mulliken charges =  -0.00000   1.00000

 Dipole moment (field-independent basis, Debye):
    X=             -0.2126    Y=              0.3709    Z=              0.0762  Tot=              0.4342
 Quadrupole moment (field-independent basis, Debye-Ang):
   XX=            -57.2554   YY=            -60.2316   ZZ=            -75.8052
   XY=             -1.1194   XZ=              0.0847   YZ=             -0.0626

 Normal termination of Gaussian 16 at Thu Dec  7 22:25:59 2023.
