 Gaussian 16, Revision B.01,
 Gaussian 16:  ES64L-G16RevB.01 20-Dec-2017

 -------------------------
 #P B3LYP/6-311+g(d) force
 -------------------------

 -----
 DPGEN
 -----
 Symbolic Z-matrix:
 Charge =  0 Multiplicity = 2

                         Standard orientation:
 ---------------------------------------------------------------------
 Center     Atomic      Atomic             Coordinates (Angstroms)
 Number     Number       Type             X           Y           Z
 ---------------------------------------------------------------------
      1         11           0       -1.624152    2.520647   -0.124379
      2         11           0       -3.135986   -1.077790   -0.017378
      3         11           0       -0.083344   -0.012517    2.048780
      4         11           0        2.895567   -1.230511   -0.029136
      5         11           0        0.084756   -2.670514   -0.237005
      6         11           0        1.938657    2.327941   -0.052223
      7         11           0       -0.075498    0.142745   -1.588660
 ---------------------------------------------------------------------

 SCF Done:  E(UB3LYP) =  -1136.13794294     A.U. after   19 cycles

 The electronic state is 2-A.
 Alpha  occ. eigenvalues --  -38.44020 -38.43791 -38.43711 -38.43689 -38.43506
 Alpha  occ. eigenvalues --  -38.43229 -38.43066  -2.19815  -2.19634  -2.19559
 Alpha  occ. eigenvalues --   -2.19524  -2.19395  -2.19147  -2.19073  -1.13487
 Alpha  occ. eigenvalues --   -1.13470  -1.13463  -1.13345  -1.13299  -1.13255
 Alpha  occ. eigenvalues --   -1.13253  -1.13221  -1.13215  -1.13201  -1.13183
 Alpha  occ. eigenvalues --   -1.13146  -1.13068  -1.13023  -1.13005  -1.12904
 Alpha  occ. eigenvalues --   -1.12801  -1.12757  -1.12742  -1.12692  -1.12674
 Alpha  occ. eigenvalues --   -0.18726  -0.12829  -0.12645  -0.10650
 Alpha virt. eigenvalues --   -0.05583  -0.05308  -0.04654  -0.03007  -0.02902
 Alpha virt. eigenvalues --   -0.02511  -0.01581  -0.01241  -0.00407  -0.00226
 Alpha virt. eigenvalues --   -0.00007   0.00346   0.00783   0.00856   0.00913

  Beta  occ. eigenvalues --  -38.44020 -38.43785 -38.43709 -38.43685 -38.43408
  Beta  occ. eigenvalues --  -38.43219 -38.43002  -2.19818  -2.19628  -2.19558
  Beta  occ. eigenvalues --   -2.19520  -2.19215  -2.19132  -2.18958  -1.13475
  Beta  occ. eigenvalues --   -1.13471  -1.13466  -1.13334  -1.13275  -1.13256
  Beta  occ. eigenvalues --   -1.13254  -1.13219  -1.13194  -1.13191  -1.13167
  Beta  occ. eigenvalues --   -1.13147  -1.12952  -1.12899  -1.12876  -1.12871
  Beta  occ. eigenvalues --   -1.12764  -1.12749  -1.12664  -1.12616  -1.12594
  Beta  occ. eigenvalues --   -0.17988  -0.12595  -0.12418
  Beta virt. eigenvalues --   -0.06706  -0.05582  -0.05281  -0.04635  -0.02217
  Beta virt. eigenvalues --   -0.02133  -0.01510  -0.01409  -0.01177  -0.00472
  Beta virt. eigenvalues --   -0.00268   0.00134   0.00368   0.00820   0.00857

 Mulliken charges and spin densities:
               1          2
     1  Na   0.159528  -0.106426
     2  Na   0.120722  -0.076944
     3  Na  -0.580700   0.829983
     4  Na   0.115921  -0.029127
     5  Na   0.314993  -0.003170
     6  Na   0.172289  -0.058756
     7  Na  -0.302754   0.444442
 Sum of Mulliken charges =  -0.00000   1.00000

 Dipole moment (field-independent basis, Debye):
    X=             -0.1637    Y=              0.2279    Z=              0.1782  Tot=              0.3324
 Quadrupole moment (field-independent basis, Debye-Ang):
   XX=            -55.2737   YY=            -62.2067   ZZ=            -75.1437
   XY=              0.2668   XZ=              0.0405   YZ=              0.2905

 Normal termination of Gaussian 16 at Thu Dec  7 09:33:46 2023.
