 Gaussian 16, Revision B.01,
 Gaussian 16:  ES64L-G16RevB.01 20-Dec-2017

 -------------------------
 #P B3LYP/6-311+g(d) force
 -------------------------

 -----
 DPGEN
 -----
 Symbolic Z-matrix:
 Charge =  0 Multiplicity = 2

                         Standard orientation:
 ---------------------------------------------------------------------
 Center     Atomic      Atomic             Coordinates (Angstroms)
 Number     Number       Type             X           Y           Z
 ---------------------------------------------------------------------
      1         11           0       -0.865607   -1.129209   -1.397106
      2         11           0       -0.949025   -1.180823    1.523733
      3         11           0       -4.018730   -0.187857   -0.217098
      4         11           0        1.992941    1.320144   -1.521491
      5         11           0       -0.912216    2.234682    0.193529
      6         11           0        1.990857    0.682888    1.743823
      7         11           0        2.761781   -1.739826   -0.325392
 ---------------------------------------------------------------------

 SCF Done:  E(UB3LYP) =  -1136.12557988     A.U. after   24 cycles

 The electronic state is 2-A.
 Alpha  occ. eigenvalues --  -38.45542 -38.44125 -38.44089 -38.43914 -38.43573
 Alpha  occ. eigenvalues --  -38.43437 -38.42345  -2.21317  -2.20037  -2.19988
 Alpha  occ. eigenvalues --   -2.19819  -2.19461  -2.19279  -2.18189  -1.14999
 Alpha  occ. eigenvalues --   -1.14967  -1.14941  -1.13925  -1.13689  -1.13638
 Alpha  occ. eigenvalues --   -1.13620  -1.13596  -1.13555  -1.13494  -1.13485
 Alpha  occ. eigenvalues --   -1.13430  -1.13133  -1.13124  -1.13075  -1.12954
 Alpha  occ. eigenvalues --   -1.12936  -1.12908  -1.11889  -1.11869  -1.11800
 Alpha  occ. eigenvalues --   -0.18603  -0.13907  -0.11406  -0.10920
 Alpha virt. eigenvalues --   -0.06888  -0.04635  -0.04571  -0.03075  -0.02836
 Alpha virt. eigenvalues --   -0.02516  -0.02467  -0.00823  -0.00684  -0.00089
 Alpha virt. eigenvalues --    0.00194   0.00280   0.00336   0.00794   0.00861

  Beta  occ. eigenvalues --  -38.45540 -38.44074 -38.44060 -38.43862 -38.43528
  Beta  occ. eigenvalues --  -38.43431 -38.42339  -2.21315  -2.19954  -2.19928
  Beta  occ. eigenvalues --   -2.19725  -2.19378  -2.19271  -2.18181  -1.14991
  Beta  occ. eigenvalues --   -1.14967  -1.14941  -1.13874  -1.13619  -1.13598
  Beta  occ. eigenvalues --   -1.13563  -1.13542  -1.13500  -1.13432  -1.13407
  Beta  occ. eigenvalues --   -1.13362  -1.13075  -1.13069  -1.13013  -1.12946
  Beta  occ. eigenvalues --   -1.12911  -1.12900  -1.11887  -1.11838  -1.11799
  Beta  occ. eigenvalues --   -0.17843  -0.13738  -0.10747
  Beta virt. eigenvalues --   -0.07384  -0.06732  -0.04637  -0.03907  -0.02937
  Beta virt. eigenvalues --   -0.02491  -0.01931  -0.01729  -0.00712  -0.00304
  Beta virt. eigenvalues --   -0.00053   0.00231   0.00328   0.00428   0.00831

 Mulliken charges and spin densities:
               1          2
     1  Na  -0.222382   0.266175
     2  Na  -0.122483   0.214719
     3  Na   0.502236  -0.017862
     4  Na  -0.005509   0.332111
     5  Na  -0.527202  -0.052199
     6  Na   0.275512   0.320450
     7  Na   0.099829  -0.063394
 Sum of Mulliken charges =  -0.00000   1.00000

 Dipole moment (field-independent basis, Debye):
    X=             -1.3624    Y=             -0.1411    Z=             -0.0271  Tot=              1.3700
 Quadrupole moment (field-independent basis, Debye-Ang):
   XX=            -45.7683   YY=            -78.5392   ZZ=            -67.7010
   XY=             -0.3700   XZ=              0.4050   YZ=             -0.2907

 Normal termination of Gaussian 16 at Thu Dec  7 18:59:47 2023.
