 Gaussian 16, Revision B.01,
 Gaussian 16:  ES64L-G16RevB.01 20-Dec-2017

 -------------------------
 #P B3LYP/6-311+g(d) force
 -------------------------

 -----
 DPGEN
 -----
 Symbolic Z-matrix:
 Charge =  0 Multiplicity = 2

                         Standard orientation:
 ---------------------------------------------------------------------
 Center     Atomic      Atomic             Coordinates (Angstroms)
 Number     Number       Type             X           Y           Z
 ---------------------------------------------------------------------
      1         11           0        0.033596   -0.025336    1.796257
      2         11           0        1.806466    1.630519    0.054922
      3         11           0        2.419050   -1.069981   -0.130766
      4         11           0        0.023693    0.271666   -1.755000
      5         11           0       -2.554967   -0.718364   -0.167237
      6         11           0       -0.279299   -1.989607    0.054235
      7         11           0       -1.448538    1.901102    0.147590
 ---------------------------------------------------------------------

 SCF Done:  E(UB3LYP) =  -1136.08366842     A.U. after   19 cycles

 The electronic state is 2-A.
 Alpha  occ. eigenvalues --  -38.44243 -38.44233 -38.43945 -38.43877 -38.43602
 Alpha  occ. eigenvalues --  -38.43556 -38.43275  -2.20471  -2.20330  -2.20165
 Alpha  occ. eigenvalues --   -2.19954  -2.19828  -2.19649  -2.19364  -1.14431
 Alpha  occ. eigenvalues --   -1.14303  -1.14159  -1.14082  -1.14032  -1.13935
 Alpha  occ. eigenvalues --   -1.13925  -1.13868  -1.13814  -1.13750  -1.13679
 Alpha  occ. eigenvalues --   -1.13543  -1.13371  -1.13366  -1.13289  -1.13270
 Alpha  occ. eigenvalues --   -1.13267  -1.13181  -1.13037  -1.13006  -1.12945
 Alpha  occ. eigenvalues --   -0.21554  -0.14145  -0.12670  -0.12194
 Alpha virt. eigenvalues --   -0.05389  -0.04471  -0.03857  -0.03840  -0.03031
 Alpha virt. eigenvalues --   -0.02778  -0.01235  -0.00513  -0.00077   0.00334
 Alpha virt. eigenvalues --    0.00697   0.00761   0.00980   0.01110   0.01156

  Beta  occ. eigenvalues --  -38.44223 -38.44146 -38.43868 -38.43855 -38.43581
  Beta  occ. eigenvalues --  -38.43543 -38.43262  -2.20319  -2.20294  -2.20004
  Beta  occ. eigenvalues --   -2.19942  -2.19800  -2.19632  -2.19346  -1.14371
  Beta  occ. eigenvalues --   -1.14252  -1.14060  -1.14021  -1.13949  -1.13864
  Beta  occ. eigenvalues --   -1.13850  -1.13785  -1.13756  -1.13690  -1.13634
  Beta  occ. eigenvalues --   -1.13487  -1.13343  -1.13279  -1.13271  -1.13260
  Beta  occ. eigenvalues --   -1.13203  -1.13178  -1.13027  -1.12942  -1.12939
  Beta  occ. eigenvalues --   -0.20720  -0.13766  -0.12313
  Beta virt. eigenvalues --   -0.08004  -0.05417  -0.04460  -0.03797  -0.02859
  Beta virt. eigenvalues --   -0.02137  -0.01710  -0.01148  -0.00473   0.00065
  Beta virt. eigenvalues --    0.00359   0.00672   0.00742   0.01016   0.01130

 Mulliken charges and spin densities:
               1          2
     1  Na  -0.243728   0.471798
     2  Na   0.117219   0.008640
     3  Na  -0.071073  -0.039033
     4  Na  -0.228996   0.468425
     5  Na  -0.062439  -0.052137
     6  Na   0.353719   0.139755
     7  Na   0.135299   0.002552
 Sum of Mulliken charges =  -0.00000   1.00000

 Dipole moment (field-independent basis, Debye):
    X=              0.0606    Y=              0.2586    Z=             -0.0476  Tot=              0.2698
 Quadrupole moment (field-independent basis, Debye-Ang):
   XX=            -58.0588   YY=            -70.6195   ZZ=            -68.8881
   XY=             -0.4256   XZ=              0.0653   YZ=              0.8015

 Normal termination of Gaussian 16 at Fri Dec  8 20:10:20 2023.
