 Gaussian 16, Revision B.01,
 Gaussian 16:  ES64L-G16RevB.01 20-Dec-2017

 -------------------------
 #P B3LYP/6-311+g(d) force
 -------------------------

 -----
 DPGEN
 -----
 Symbolic Z-matrix:
 Charge =  0 Multiplicity = 2

                         Standard orientation:
 ---------------------------------------------------------------------
 Center     Atomic      Atomic             Coordinates (Angstroms)
 Number     Number       Type             X           Y           Z
 ---------------------------------------------------------------------
      1         11           0       -2.061135    0.654846   -0.448343
      2         11           0       -0.206204   -2.939655    1.180095
      3         11           0        3.369052    0.987002   -0.932063
      4         11           0        1.181925   -0.068624    1.698577
      5         11           0        2.112926   -1.971881   -1.419887
      6         11           0       -4.831093   -0.040878   -0.662029
      7         11           0        0.434530    3.379189    0.583651
 ---------------------------------------------------------------------

 SCF Done:  E(UB3LYP) =  -1136.11877745     A.U. after   20 cycles

 The electronic state is 2-A.
 Alpha  occ. eigenvalues --  -38.44478 -38.44473 -38.44410 -38.44041 -38.43906
 Alpha  occ. eigenvalues --  -38.43880 -38.43329  -2.20305  -2.20302  -2.20284
 Alpha  occ. eigenvalues --   -2.19815  -2.19744  -2.19703  -2.19175  -1.14042
 Alpha  occ. eigenvalues --   -1.13988  -1.13977  -1.13972  -1.13951  -1.13930
 Alpha  occ. eigenvalues --   -1.13913  -1.13895  -1.13883  -1.13504  -1.13487
 Alpha  occ. eigenvalues --   -1.13472  -1.13438  -1.13380  -1.13365  -1.13360
 Alpha  occ. eigenvalues --   -1.13343  -1.13323  -1.12842  -1.12824  -1.12808
 Alpha  occ. eigenvalues --   -0.17237  -0.13345  -0.12302  -0.11360
 Alpha virt. eigenvalues --   -0.06251  -0.05131  -0.04534  -0.03539  -0.03005
 Alpha virt. eigenvalues --   -0.02225  -0.01972  -0.01429  -0.00931  -0.00555
 Alpha virt. eigenvalues --   -0.00456   0.00034   0.00375   0.00602   0.00634

  Beta  occ. eigenvalues --  -38.44432 -38.44428 -38.44369 -38.44019 -38.43861
  Beta  occ. eigenvalues --  -38.43847 -38.43330  -2.20231  -2.20216  -2.20210
  Beta  occ. eigenvalues --   -2.19774  -2.19661  -2.19644  -2.19181  -1.13977
  Beta  occ. eigenvalues --   -1.13935  -1.13928  -1.13919  -1.13893  -1.13882
  Beta  occ. eigenvalues --   -1.13848  -1.13835  -1.13804  -1.13458  -1.13451
  Beta  occ. eigenvalues --   -1.13441  -1.13414  -1.13324  -1.13308  -1.13306
  Beta  occ. eigenvalues --   -1.13304  -1.13291  -1.12851  -1.12822  -1.12788
  Beta  occ. eigenvalues --   -0.16642  -0.12570  -0.12035
  Beta virt. eigenvalues --   -0.07892  -0.05984  -0.04963  -0.04240  -0.03051
  Beta virt. eigenvalues --   -0.02665  -0.01950  -0.01546  -0.01303  -0.00670
  Beta virt. eigenvalues --   -0.00306  -0.00240   0.00155   0.00412   0.00660

 Mulliken charges and spin densities:
               1          2
     1  Na  -0.998116   0.048780
     2  Na   0.053944   0.102820
     3  Na   0.430083   0.166730
     4  Na   0.010684   0.336471
     5  Na  -0.055280   0.179497
     6  Na  -0.235526   0.170557
     7  Na   0.794211  -0.004855
 Sum of Mulliken charges =  -0.00000   1.00000

 Dipole moment (field-independent basis, Debye):
    X=              0.6830    Y=             -0.3228    Z=              0.1024  Tot=              0.7623
 Quadrupole moment (field-independent basis, Debye-Ang):
   XX=            -64.5509   YY=            -62.7756   ZZ=            -69.0516
   XY=              4.1061   XZ=             -1.0451   YZ=              0.6415

 Normal termination of Gaussian 16 at Mon Dec  4 02:02:12 2023.
