 Gaussian 16, Revision B.01,
 Gaussian 16:  ES64L-G16RevB.01 20-Dec-2017

 -------------------------
 #P B3LYP/6-311+g(d) force
 -------------------------

 -----
 DPGEN
 -----
 Symbolic Z-matrix:
 Charge =  0 Multiplicity = 2

                         Standard orientation:
 ---------------------------------------------------------------------
 Center     Atomic      Atomic             Coordinates (Angstroms)
 Number     Number       Type             X           Y           Z
 ---------------------------------------------------------------------
      1         11           0        1.608213   -1.472049   -0.891163
      2         11           0        4.294891   -0.392390   -0.795050
      3         11           0        2.364437    2.074941    0.113054
      4         11           0       -0.986678    1.939209    0.640853
      5         11           0       -1.724632   -0.460448   -0.981746
      6         11           0        0.400165   -1.541098    2.347265
      7         11           0       -5.956396   -0.148167   -0.433214
 ---------------------------------------------------------------------

 SCF Done:  E(UB3LYP) =  -1136.09569930     A.U. after   34 cycles

 The electronic state is 2-A.
 Alpha  occ. eigenvalues --  -38.46297 -38.44756 -38.44616 -38.44515 -38.44511
 Alpha  occ. eigenvalues --  -38.43716 -38.43590  -2.22084  -2.20463  -2.20437
 Alpha  occ. eigenvalues --   -2.20424  -2.20367  -2.19585  -2.19476  -1.15739
 Alpha  occ. eigenvalues --   -1.15725  -1.15681  -1.14185  -1.14154  -1.14137
 Alpha  occ. eigenvalues --   -1.14135  -1.14101  -1.14090  -1.14087  -1.14069
 Alpha  occ. eigenvalues --   -1.14043  -1.14035  -1.14013  -1.13991  -1.13279
 Alpha  occ. eigenvalues --   -1.13225  -1.13193  -1.13149  -1.13118  -1.13103
 Alpha  occ. eigenvalues --   -0.18043  -0.13474  -0.12287  -0.10857
 Alpha virt. eigenvalues --   -0.07934  -0.05134  -0.04668  -0.03652  -0.03130
 Alpha virt. eigenvalues --   -0.02933  -0.02230  -0.01473  -0.01292  -0.00886
 Alpha virt. eigenvalues --   -0.00284   0.00007   0.00281   0.00493   0.00546

  Beta  occ. eigenvalues --  -38.46201 -38.44743 -38.44619 -38.44489 -38.44461
  Beta  occ. eigenvalues --  -38.43693 -38.43584  -2.21906  -2.20444  -2.20438
  Beta  occ. eigenvalues --   -2.20388  -2.20268  -2.19542  -2.19466  -1.15615
  Beta  occ. eigenvalues --   -1.15595  -1.15564  -1.14182  -1.14141  -1.14120
  Beta  occ. eigenvalues --   -1.14119  -1.14101  -1.14071  -1.14056  -1.14035
  Beta  occ. eigenvalues --   -1.14023  -1.13974  -1.13954  -1.13913  -1.13253
  Beta  occ. eigenvalues --   -1.13185  -1.13168  -1.13146  -1.13104  -1.13092
  Beta  occ. eigenvalues --   -0.17353  -0.13201  -0.10558
  Beta virt. eigenvalues --   -0.08606  -0.07429  -0.04889  -0.04264  -0.03146
  Beta virt. eigenvalues --   -0.02847  -0.02410  -0.01771  -0.01369  -0.01147
  Beta virt. eigenvalues --   -0.00760  -0.00186   0.00146   0.00355   0.00594

 Mulliken charges and spin densities:
               1          2
     1  Na  -0.485624   0.452761
     2  Na   0.547344  -0.077738
     3  Na  -0.035828   0.267270
     4  Na  -0.236490   0.141655
     5  Na  -0.064682  -0.117192
     6  Na   0.158063   0.302660
     7  Na   0.117217   0.030586
 Sum of Mulliken charges =  -0.00000   1.00000

 Dipole moment (field-independent basis, Debye):
    X=              1.2437    Y=             -0.0652    Z=              1.7720  Tot=              2.1659
 Quadrupole moment (field-independent basis, Debye-Ang):
   XX=            -67.0316   YY=            -71.1733   ZZ=            -67.8038
   XY=              0.0617   XZ=             -1.4016   YZ=             -3.4428

 Normal termination of Gaussian 16 at Tue Nov 28 20:14:57 2023.
