 Gaussian 16, Revision B.01,
 Gaussian 16:  ES64L-G16RevB.01 20-Dec-2017

 -------------------------
 #P B3LYP/6-311+g(d) force
 -------------------------

 -----
 DPGEN
 -----
 Symbolic Z-matrix:
 Charge =  0 Multiplicity = 2

                         Standard orientation:
 ---------------------------------------------------------------------
 Center     Atomic      Atomic             Coordinates (Angstroms)
 Number     Number       Type             X           Y           Z
 ---------------------------------------------------------------------
      1         11           0        0.236305   -0.954166   -1.200262
      2         11           0       -3.972303   -0.903002   -1.103613
      3         11           0        0.952186    0.843682    1.923584
      4         11           0        2.952093    1.379978   -1.128002
      5         11           0        3.553476   -1.714623    0.087647
      6         11           0       -1.988272   -0.750238    1.768881
      7         11           0       -1.733486    2.098371   -0.348235
 ---------------------------------------------------------------------

 SCF Done:  E(UB3LYP) =  -1136.12028887     A.U. after   26 cycles

 The electronic state is 2-A.
 Alpha  occ. eigenvalues --  -38.45130 -38.45036 -38.44471 -38.44403 -38.43944
 Alpha  occ. eigenvalues --  -38.43483 -38.42308  -2.20942  -2.20856  -2.20285
 Alpha  occ. eigenvalues --   -2.20209  -2.19821  -2.19266  -2.18177  -1.14667
 Alpha  occ. eigenvalues --   -1.14623  -1.14549  -1.14530  -1.14498  -1.14472
 Alpha  occ. eigenvalues --   -1.13975  -1.13939  -1.13889  -1.13877  -1.13862
 Alpha  occ. eigenvalues --   -1.13837  -1.13511  -1.13470  -1.13427  -1.12944
 Alpha  occ. eigenvalues --   -1.12936  -1.12901  -1.11871  -1.11834  -1.11806
 Alpha  occ. eigenvalues --   -0.17952  -0.14182  -0.10870  -0.10629
 Alpha virt. eigenvalues --   -0.06758  -0.06081  -0.04835  -0.02941  -0.02767
 Alpha virt. eigenvalues --   -0.02412  -0.02176  -0.01449  -0.01028  -0.00582
 Alpha virt. eigenvalues --    0.00060   0.00145   0.00318   0.00359   0.00463

  Beta  occ. eigenvalues --  -38.45113 -38.45003 -38.44433 -38.44383 -38.43898
  Beta  occ. eigenvalues --  -38.43489 -38.42289  -2.20916  -2.20795  -2.20214
  Beta  occ. eigenvalues --   -2.20171  -2.19737  -2.19279  -2.18146  -1.14616
  Beta  occ. eigenvalues --   -1.14603  -1.14529  -1.14488  -1.14462  -1.14424
  Beta  occ. eigenvalues --   -1.13921  -1.13887  -1.13848  -1.13839  -1.13831
  Beta  occ. eigenvalues --   -1.13814  -1.13449  -1.13416  -1.13362  -1.12951
  Beta  occ. eigenvalues --   -1.12940  -1.12909  -1.11848  -1.11797  -1.11779
  Beta  occ. eigenvalues --   -0.17292  -0.14003  -0.10467
  Beta virt. eigenvalues --   -0.07266  -0.06583  -0.05386  -0.04607  -0.02751
  Beta virt. eigenvalues --   -0.02592  -0.01923  -0.01639  -0.01075  -0.00661
  Beta virt. eigenvalues --   -0.00420   0.00098   0.00242   0.00366   0.00468

 Mulliken charges and spin densities:
               1          2
     1  Na  -0.547467   0.434235
     2  Na   0.133494  -0.002022
     3  Na  -0.021294   0.353374
     4  Na   0.320101   0.100342
     5  Na   0.214704  -0.066408
     6  Na   0.033148  -0.083473
     7  Na  -0.132685   0.263952
 Sum of Mulliken charges =  -0.00000   1.00000

 Dipole moment (field-independent basis, Debye):
    X=              0.8723    Y=              0.5044    Z=             -0.0503  Tot=              1.0089
 Quadrupole moment (field-independent basis, Debye-Ang):
   XX=            -54.7473   YY=            -69.3483   ZZ=            -73.2206
   XY=             -0.4183   XZ=             -0.1114   YZ=             -5.5778

 Normal termination of Gaussian 16 at Thu Dec  7 15:12:42 2023.
