 Gaussian 16, Revision B.01,
 Gaussian 16:  ES64L-G16RevB.01 20-Dec-2017

 -------------------------
 #P B3LYP/6-311+g(d) force
 -------------------------

 -----
 DPGEN
 -----
 Symbolic Z-matrix:
 Charge =  0 Multiplicity = 2

                         Standard orientation:
 ---------------------------------------------------------------------
 Center     Atomic      Atomic             Coordinates (Angstroms)
 Number     Number       Type             X           Y           Z
 ---------------------------------------------------------------------
      1         11           0       -0.646612    2.875224    0.098285
      2         11           0        2.455468   -2.073923   -0.162678
      3         11           0        0.194364    0.190036    1.863275
      4         11           0        2.697848    1.484709   -0.198487
      5         11           0       -3.173289   -0.033203   -0.073836
      6         11           0       -0.388803    0.028588   -1.781827
      7         11           0       -1.138976   -2.471432    0.255269
 ---------------------------------------------------------------------

 SCF Done:  E(UB3LYP) =  -1136.13888164     A.U. after   19 cycles

 The electronic state is 2-A.
 Alpha  occ. eigenvalues --  -38.44039 -38.44029 -38.43685 -38.43362 -38.43341
 Alpha  occ. eigenvalues --  -38.43285 -38.43256  -2.19900  -2.19851  -2.19489
 Alpha  occ. eigenvalues --   -2.19291  -2.19220  -2.19214  -2.19158  -1.13591
 Alpha  occ. eigenvalues --   -1.13566  -1.13534  -1.13531  -1.13519  -1.13482
 Alpha  occ. eigenvalues --   -1.13159  -1.13143  -1.13141  -1.12993  -1.12957
 Alpha  occ. eigenvalues --   -1.12928  -1.12909  -1.12902  -1.12869  -1.12853
 Alpha  occ. eigenvalues --   -1.12834  -1.12826  -1.12814  -1.12802  -1.12778
 Alpha  occ. eigenvalues --   -0.18729  -0.13095  -0.12439  -0.10659
 Alpha virt. eigenvalues --   -0.05654  -0.05248  -0.04650  -0.03215  -0.02853
 Alpha virt. eigenvalues --   -0.02434  -0.01568  -0.01152  -0.00398  -0.00271
 Alpha virt. eigenvalues --   -0.00005   0.00360   0.00791   0.00872   0.00905

  Beta  occ. eigenvalues --  -38.44035 -38.44024 -38.43684 -38.43356 -38.43269
  Beta  occ. eigenvalues --  -38.43245 -38.43201  -2.19896  -2.19846  -2.19489
  Beta  occ. eigenvalues --   -2.19206  -2.19157  -2.19143  -2.19066  -1.13588
  Beta  occ. eigenvalues --   -1.13547  -1.13524  -1.13520  -1.13504  -1.13481
  Beta  occ. eigenvalues --   -1.13148  -1.13145  -1.13138  -1.12926  -1.12906
  Beta  occ. eigenvalues --   -1.12872  -1.12838  -1.12835  -1.12820  -1.12806
  Beta  occ. eigenvalues --   -1.12780  -1.12774  -1.12765  -1.12725  -1.12714
  Beta  occ. eigenvalues --   -0.17992  -0.12861  -0.12196
  Beta virt. eigenvalues --   -0.06762  -0.05610  -0.05240  -0.04614  -0.02421
  Beta virt. eigenvalues --   -0.02085  -0.01477  -0.01399  -0.01095  -0.00455
  Beta virt. eigenvalues --   -0.00304   0.00130   0.00384   0.00832   0.00879

 Mulliken charges and spin densities:
               1          2
     1  Na   0.113009  -0.151035
     2  Na  -0.070908  -0.086066
     3  Na  -0.225225   0.692987
     4  Na   0.028222  -0.094047
     5  Na   0.332565  -0.057911
     6  Na  -0.317052   0.728112
     7  Na   0.139390  -0.032041
 Sum of Mulliken charges =  -0.00000   1.00000

 Dipole moment (field-independent basis, Debye):
    X=              0.0297    Y=              0.1796    Z=             -0.0263  Tot=              0.1839
 Quadrupole moment (field-independent basis, Debye-Ang):
   XX=            -55.5770   YY=            -62.8252   ZZ=            -74.7095
   XY=             -0.3940   XZ=             -1.2283   YZ=             -0.3305

 Normal termination of Gaussian 16 at Thu Dec  7 20:54:37 2023.
