 Gaussian 16, Revision B.01,
 Gaussian 16:  ES64L-G16RevB.01 20-Dec-2017

 -------------------------
 #P B3LYP/6-311+g(d) force
 -------------------------

 -----
 DPGEN
 -----
 Symbolic Z-matrix:
 Charge =  0 Multiplicity = 2

                         Standard orientation:
 ---------------------------------------------------------------------
 Center     Atomic      Atomic             Coordinates (Angstroms)
 Number     Number       Type             X           Y           Z
 ---------------------------------------------------------------------
      1         11           0        0.958902    1.280237   -1.382938
      2         11           0       -2.048101    1.964323   -0.608553
      3         11           0       -1.220257   -1.128966   -1.332030
      4         11           0        1.765047   -1.902360   -0.679110
      5         11           0        3.853699    0.348909    0.798994
      6         11           0       -3.375288   -1.007805    1.057032
      7         11           0        0.065997    0.445662    2.146606
 ---------------------------------------------------------------------

 SCF Done:  E(UB3LYP) =  -1136.12129723     A.U. after   36 cycles

 The electronic state is 2-A.
 Alpha  occ. eigenvalues --  -38.44514 -38.44357 -38.44243 -38.44236 -38.43992
 Alpha  occ. eigenvalues --  -38.43026 -38.42984  -2.20304  -2.20257  -2.20141
 Alpha  occ. eigenvalues --   -2.20005  -2.19820  -2.18978  -2.18975  -1.13986
 Alpha  occ. eigenvalues --   -1.13965  -1.13950  -1.13932  -1.13910  -1.13856
 Alpha  occ. eigenvalues --   -1.13843  -1.13777  -1.13742  -1.13710  -1.13708
 Alpha  occ. eigenvalues --   -1.13594  -1.13514  -1.13469  -1.13431  -1.12720
 Alpha  occ. eigenvalues --   -1.12667  -1.12644  -1.12613  -1.12597  -1.12555
 Alpha  occ. eigenvalues --   -0.18663  -0.13931  -0.11929  -0.10900
 Alpha virt. eigenvalues --   -0.06812  -0.05109  -0.04405  -0.03384  -0.02709
 Alpha virt. eigenvalues --   -0.02462  -0.02324  -0.01050  -0.00871  -0.00103
 Alpha virt. eigenvalues --    0.00132   0.00183   0.00361   0.00687   0.00731

  Beta  occ. eigenvalues --  -38.44508 -38.44302 -38.44234 -38.44189 -38.43963
  Beta  occ. eigenvalues --  -38.42995 -38.42943  -2.20294  -2.20159  -2.20043
  Beta  occ. eigenvalues --   -2.20003  -2.19768  -2.18925  -2.18904  -1.13973
  Beta  occ. eigenvalues --   -1.13961  -1.13925  -1.13874  -1.13843  -1.13784
  Beta  occ. eigenvalues --   -1.13771  -1.13717  -1.13712  -1.13689  -1.13665
  Beta  occ. eigenvalues --   -1.13597  -1.13469  -1.13433  -1.13399  -1.12686
  Beta  occ. eigenvalues --   -1.12610  -1.12575  -1.12560  -1.12550  -1.12503
  Beta  occ. eigenvalues --   -0.17930  -0.13712  -0.10680
  Beta virt. eigenvalues --   -0.07905  -0.06605  -0.04516  -0.04285  -0.02955
  Beta virt. eigenvalues --   -0.02423  -0.01988  -0.01861  -0.00747  -0.00576
  Beta virt. eigenvalues --    0.00044   0.00171   0.00323   0.00405   0.00746

 Mulliken charges and spin densities:
               1          2
     1  Na  -0.317291   0.352680
     2  Na   0.348168   0.134404
     3  Na  -0.206008   0.530507
     4  Na   0.147688  -0.024026
     5  Na   0.428158  -0.000388
     6  Na   0.279625  -0.065280
     7  Na  -0.680339   0.072105
 Sum of Mulliken charges =  -0.00000   1.00000

 Dipole moment (field-independent basis, Debye):
    X=              0.3412    Y=              0.2351    Z=             -0.0742  Tot=              0.4209
 Quadrupole moment (field-independent basis, Debye-Ang):
   XX=            -51.8682   YY=            -64.9342   ZZ=            -79.0971
   XY=             -0.6193   XZ=              0.2722   YZ=             -0.2384

 Normal termination of Gaussian 16 at Thu Dec  7 04:30:31 2023.
