 Gaussian 16, Revision B.01,
 Gaussian 16:  ES64L-G16RevB.01 20-Dec-2017

 -------------------------
 #P B3LYP/6-311+g(d) force
 -------------------------

 -----
 DPGEN
 -----
 Symbolic Z-matrix:
 Charge =  0 Multiplicity = 2

                         Standard orientation:
 ---------------------------------------------------------------------
 Center     Atomic      Atomic             Coordinates (Angstroms)
 Number     Number       Type             X           Y           Z
 ---------------------------------------------------------------------
      1         11           0       -0.058595    0.142759    2.202745
      2         11           0       -0.227121    3.091696    0.097364
      3         11           0        3.481799    0.611983   -0.443946
      4         11           0       -3.086923    0.589436   -0.348581
      5         11           0       -1.828805   -2.413743   -0.058621
      6         11           0       -0.211502    0.051310   -1.545666
      7         11           0        1.931147   -2.073441    0.096706
 ---------------------------------------------------------------------

 SCF Done:  E(UB3LYP) =  -1136.13282280     A.U. after   20 cycles

 The electronic state is 2-A.
 Alpha  occ. eigenvalues --  -38.44545 -38.44331 -38.43801 -38.43509 -38.43424
 Alpha  occ. eigenvalues --  -38.43256 -38.43245  -2.20342  -2.20193  -2.19659
 Alpha  occ. eigenvalues --   -2.19476  -2.19293  -2.19108  -2.19058  -1.14023
 Alpha  occ. eigenvalues --   -1.14001  -1.13971  -1.13901  -1.13854  -1.13806
 Alpha  occ. eigenvalues --   -1.13318  -1.13289  -1.13270  -1.13172  -1.13128
 Alpha  occ. eigenvalues --   -1.13109  -1.12968  -1.12957  -1.12928  -1.12782
 Alpha  occ. eigenvalues --   -1.12771  -1.12745  -1.12732  -1.12725  -1.12695
 Alpha  occ. eigenvalues --   -0.18393  -0.13297  -0.12019  -0.10814
 Alpha virt. eigenvalues --   -0.06152  -0.04896  -0.04645  -0.03252  -0.02796
 Alpha virt. eigenvalues --   -0.02644  -0.01914  -0.01083  -0.00579  -0.00251
 Alpha virt. eigenvalues --   -0.00064   0.00311   0.00759   0.00810   0.00876

  Beta  occ. eigenvalues --  -38.44535 -38.44319 -38.43692 -38.43463 -38.43419
  Beta  occ. eigenvalues --  -38.43255 -38.43242  -2.20324  -2.20174  -2.19458
  Beta  occ. eigenvalues --   -2.19393  -2.19287  -2.19106  -2.19059  -1.14014
  Beta  occ. eigenvalues --   -1.13979  -1.13960  -1.13881  -1.13832  -1.13791
  Beta  occ. eigenvalues --   -1.13187  -1.13153  -1.13123  -1.13111  -1.13072
  Beta  occ. eigenvalues --   -1.13046  -1.12963  -1.12942  -1.12909  -1.12779
  Beta  occ. eigenvalues --   -1.12768  -1.12730  -1.12724  -1.12709  -1.12698
  Beta  occ. eigenvalues --   -0.17691  -0.13032  -0.11815
  Beta virt. eigenvalues --   -0.06923  -0.06037  -0.04878  -0.04580  -0.02550
  Beta virt. eigenvalues --   -0.02026  -0.01787  -0.01634  -0.01023  -0.00588
  Beta virt. eigenvalues --   -0.00284   0.00100   0.00358   0.00815   0.00829

 Mulliken charges and spin densities:
               1          2
     1  Na  -0.482927   0.683119
     2  Na  -0.025166  -0.052313
     3  Na   0.043234   0.012237
     4  Na   0.425269   0.037608
     5  Na   0.158487   0.047166
     6  Na  -0.328661   0.197484
     7  Na   0.209763   0.074701
 Sum of Mulliken charges =  -0.00000   1.00000

 Dipole moment (field-independent basis, Debye):
    X=              0.0569    Y=              0.2147    Z=              0.1037  Tot=              0.2452
 Quadrupole moment (field-independent basis, Debye-Ang):
   XX=            -54.9324   YY=            -64.9635   ZZ=            -74.0366
   XY=              1.4149   XZ=             -0.5910   YZ=             -0.6781

 Normal termination of Gaussian 16 at Thu Dec  7 05:35:43 2023.
