 Gaussian 16, Revision B.01,
 Gaussian 16:  ES64L-G16RevB.01 20-Dec-2017

 -------------------------
 #P B3LYP/6-311+g(d) force
 -------------------------

 -----
 DPGEN
 -----
 Symbolic Z-matrix:
 Charge =  0 Multiplicity = 2

                         Standard orientation:
 ---------------------------------------------------------------------
 Center     Atomic      Atomic             Coordinates (Angstroms)
 Number     Number       Type             X           Y           Z
 ---------------------------------------------------------------------
      1         11           0        0.159260    2.146893    0.204443
      2         11           0       -0.031505   -0.182043   -1.858956
      3         11           0       -2.183347    0.961131   -0.247466
      4         11           0        2.461810    0.562112   -0.236204
      5         11           0        0.039565   -0.052963    1.956843
      6         11           0       -1.655874   -1.579202    0.121006
      7         11           0        1.210091   -1.855928    0.060333
 ---------------------------------------------------------------------

 SCF Done:  E(UB3LYP) =  -1136.07342590     A.U. after   20 cycles

 The electronic state is 2-A.
 Alpha  occ. eigenvalues --  -38.44670 -38.44451 -38.44140 -38.43853 -38.43713
 Alpha  occ. eigenvalues --  -38.43510 -38.43440  -2.20859  -2.20686  -2.20315
 Alpha  occ. eigenvalues --   -2.19949  -2.19892  -2.19688  -2.19608  -1.14632
 Alpha  occ. eigenvalues --   -1.14567  -1.14493  -1.14461  -1.14422  -1.14323
 Alpha  occ. eigenvalues --   -1.14250  -1.14091  -1.13867  -1.13820  -1.13713
 Alpha  occ. eigenvalues --   -1.13617  -1.13550  -1.13484  -1.13394  -1.13310
 Alpha  occ. eigenvalues --   -1.13283  -1.13238  -1.13194  -1.13173  -1.13111
 Alpha  occ. eigenvalues --   -0.21919  -0.13794  -0.12960  -0.12818
 Alpha virt. eigenvalues --   -0.05061  -0.04128  -0.03991  -0.03929  -0.03447
 Alpha virt. eigenvalues --   -0.03268  -0.00823  -0.00403  -0.00196   0.00340
 Alpha virt. eigenvalues --    0.00896   0.00980   0.01101   0.01205   0.01283

  Beta  occ. eigenvalues --  -38.44565 -38.44354 -38.44126 -38.43843 -38.43697
  Beta  occ. eigenvalues --  -38.43495 -38.43425  -2.20670  -2.20511  -2.20296
  Beta  occ. eigenvalues --   -2.19935  -2.19871  -2.19668  -2.19588  -1.14530
  Beta  occ. eigenvalues --   -1.14426  -1.14399  -1.14334  -1.14302  -1.14259
  Beta  occ. eigenvalues --   -1.14175  -1.14058  -1.13816  -1.13793  -1.13706
  Beta  occ. eigenvalues --   -1.13605  -1.13494  -1.13406  -1.13388  -1.13276
  Beta  occ. eigenvalues --   -1.13230  -1.13216  -1.13168  -1.13132  -1.13105
  Beta  occ. eigenvalues --   -0.21040  -0.13401  -0.12576
  Beta virt. eigenvalues --   -0.08589  -0.05086  -0.04116  -0.03929  -0.02932
  Beta virt. eigenvalues --   -0.02496  -0.02215  -0.00755  -0.00363  -0.00028
  Beta virt. eigenvalues --    0.00358   0.00892   0.00962   0.01139   0.01209

 Mulliken charges and spin densities:
               1          2
     1  Na   0.181858   0.089646
     2  Na  -0.114862   0.450533
     3  Na   0.107920   0.038496
     4  Na  -0.054259  -0.021822
     5  Na  -0.203485   0.451738
     6  Na   0.042536  -0.004458
     7  Na   0.040291  -0.004133
 Sum of Mulliken charges =  -0.00000   1.00000

 Dipole moment (field-independent basis, Debye):
    X=              0.1708    Y=              0.0325    Z=              0.0687  Tot=              0.1869
 Quadrupole moment (field-independent basis, Debye-Ang):
   XX=            -63.4308   YY=            -70.5286   ZZ=            -65.6759
   XY=              0.2988   XZ=             -0.1994   YZ=             -0.4639

 Normal termination of Gaussian 16 at Thu Dec  7 13:19:25 2023.
