 Gaussian 16, Revision B.01,
 Gaussian 16:  ES64L-G16RevB.01 20-Dec-2017

 -------------------------
 #P B3LYP/6-311+g(d) force
 -------------------------

 -----
 DPGEN
 -----
 Symbolic Z-matrix:
 Charge =  0 Multiplicity = 2

                         Standard orientation:
 ---------------------------------------------------------------------
 Center     Atomic      Atomic             Coordinates (Angstroms)
 Number     Number       Type             X           Y           Z
 ---------------------------------------------------------------------
      1         11           0       -0.167070    0.272740    2.153877
      2         11           0        1.228953    2.543504    0.118649
      3         11           0        3.304283   -0.685295   -0.443650
      4         11           0       -2.075452    2.021533   -0.334335
      5         11           0        0.070229    0.044310   -1.518600
      6         11           0       -2.668067   -1.568151   -0.364798
      7         11           0        0.307125   -2.628640    0.388856
 ---------------------------------------------------------------------

 SCF Done:  E(UB3LYP) =  -1136.13716618     A.U. after   20 cycles

 The electronic state is 2-A.
 Alpha  occ. eigenvalues --  -38.43847 -38.43809 -38.43558 -38.43528 -38.43505
 Alpha  occ. eigenvalues --  -38.43262 -38.43094  -2.19711  -2.19641  -2.19415
 Alpha  occ. eigenvalues --   -2.19412  -2.19392  -2.19154  -2.19130  -1.13377
 Alpha  occ. eigenvalues --   -1.13342  -1.13333  -1.13317  -1.13290  -1.13284
 Alpha  occ. eigenvalues --   -1.13149  -1.13113  -1.13096  -1.13084  -1.13074
 Alpha  occ. eigenvalues --   -1.13066  -1.13049  -1.13031  -1.12980  -1.12874
 Alpha  occ. eigenvalues --   -1.12827  -1.12798  -1.12763  -1.12747  -1.12732
 Alpha  occ. eigenvalues --   -0.18880  -0.12782  -0.12662  -0.11048
 Alpha virt. eigenvalues --   -0.05401  -0.05066  -0.04609  -0.03167  -0.02953
 Alpha virt. eigenvalues --   -0.02733  -0.01500  -0.01110  -0.00211  -0.00104
 Alpha virt. eigenvalues --    0.00013   0.00335   0.00827   0.00885   0.00935

  Beta  occ. eigenvalues --  -38.43841 -38.43704 -38.43553 -38.43521 -38.43495
  Beta  occ. eigenvalues --  -38.43252 -38.43040  -2.19632  -2.19518  -2.19409
  Beta  occ. eigenvalues --   -2.19403  -2.19378  -2.19139  -2.19031  -1.13300
  Beta  occ. eigenvalues --   -1.13286  -1.13281  -1.13254  -1.13205  -1.13202
  Beta  occ. eigenvalues --   -1.13134  -1.13106  -1.13086  -1.13063  -1.13050
  Beta  occ. eigenvalues --   -1.13045  -1.13029  -1.13020  -1.12972  -1.12854
  Beta  occ. eigenvalues --   -1.12787  -1.12757  -1.12735  -1.12688  -1.12657
  Beta  occ. eigenvalues --   -0.18147  -0.12543  -0.12398
  Beta virt. eigenvalues --   -0.07089  -0.05335  -0.05041  -0.04560  -0.02337
  Beta virt. eigenvalues --   -0.02275  -0.01658  -0.01391  -0.01063  -0.00206
  Beta virt. eigenvalues --   -0.00106   0.00117   0.00365   0.00871   0.00897

 Mulliken charges and spin densities:
               1          2
     1  Na  -0.445290   0.577166
     2  Na   0.313264   0.037404
     3  Na   0.029021  -0.023493
     4  Na   0.267957  -0.005970
     5  Na  -0.520019   0.332019
     6  Na   0.095287  -0.027614
     7  Na   0.259781   0.110488
 Sum of Mulliken charges =  -0.00000   1.00000

 Dipole moment (field-independent basis, Debye):
    X=              0.0234    Y=              0.1412    Z=              0.2065  Tot=              0.2513
 Quadrupole moment (field-independent basis, Debye-Ang):
   XX=            -57.1968   YY=            -63.3452   ZZ=            -72.9626
   XY=              0.1860   XZ=              0.4429   YZ=             -0.2661

 Normal termination of Gaussian 16 at Fri Dec  8 06:20:37 2023.
