 Gaussian 16, Revision B.01,
 Gaussian 16:  ES64L-G16RevB.01 20-Dec-2017

 -------------------------
 #P B3LYP/6-311+g(d) force
 -------------------------

 -----
 DPGEN
 -----
 Symbolic Z-matrix:
 Charge =  0 Multiplicity = 2

                         Standard orientation:
 ---------------------------------------------------------------------
 Center     Atomic      Atomic             Coordinates (Angstroms)
 Number     Number       Type             X           Y           Z
 ---------------------------------------------------------------------
      1         11           0       -1.787345    1.753524    0.896275
      2         11           0        1.021711    2.965328   -0.163763
      3         11           0        3.384681    0.366305   -0.765734
      4         11           0       -4.787117   -0.520895    1.073862
      5         11           0        5.263329   -2.147636    1.235567
      6         11           0        0.186332   -0.073713   -1.289254
      7         11           0       -3.281591   -2.342913   -0.986953
 ---------------------------------------------------------------------

 SCF Done:  E(UB3LYP) =  -1136.11159396     A.U. after   22 cycles

 The electronic state is 2-A.
 Alpha  occ. eigenvalues --  -38.44829 -38.44784 -38.44676 -38.44534 -38.44235
 Alpha  occ. eigenvalues --  -38.43989 -38.43787  -2.20696  -2.20585  -2.20532
 Alpha  occ. eigenvalues --   -2.20333  -2.19997  -2.19830  -2.19590  -1.14376
 Alpha  occ. eigenvalues --   -1.14357  -1.14325  -1.14276  -1.14249  -1.14228
 Alpha  occ. eigenvalues --   -1.14201  -1.14186  -1.14162  -1.13994  -1.13975
 Alpha  occ. eigenvalues --   -1.13963  -1.13648  -1.13647  -1.13604  -1.13513
 Alpha  occ. eigenvalues --   -1.13505  -1.13435  -1.13300  -1.13275  -1.13216
 Alpha  occ. eigenvalues --   -0.17073  -0.14176  -0.12079  -0.10721
 Alpha virt. eigenvalues --   -0.07119  -0.06312  -0.04315  -0.03583  -0.02982
 Alpha virt. eigenvalues --   -0.02584  -0.02118  -0.01541  -0.01249  -0.01009
 Alpha virt. eigenvalues --   -0.00464  -0.00158   0.00056   0.00293   0.00505

  Beta  occ. eigenvalues --  -38.44778 -38.44777 -38.44673 -38.44510 -38.44156
  Beta  occ. eigenvalues --  -38.43959 -38.43809  -2.20601  -2.20571  -2.20526
  Beta  occ. eigenvalues --   -2.20286  -2.19850  -2.19773  -2.19636  -1.14310
  Beta  occ. eigenvalues --   -1.14306  -1.14266  -1.14259  -1.14241  -1.14211
  Beta  occ. eigenvalues --   -1.14196  -1.14188  -1.14140  -1.13963  -1.13938
  Beta  occ. eigenvalues --   -1.13933  -1.13547  -1.13546  -1.13509  -1.13471
  Beta  occ. eigenvalues --   -1.13464  -1.13397  -1.13328  -1.13311  -1.13222
  Beta  occ. eigenvalues --   -0.16738  -0.14028  -0.11473
  Beta virt. eigenvalues --   -0.07472  -0.06774  -0.05606  -0.04078  -0.03329
  Beta virt. eigenvalues --   -0.02719  -0.02500  -0.01818  -0.01291  -0.00855
  Beta virt. eigenvalues --   -0.00736  -0.00256   0.00087   0.00152   0.00479

 Mulliken charges and spin densities:
               1          2
     1  Na   0.052527   0.213760
     2  Na   0.837546   0.076827
     3  Na   0.075722  -0.073167
     4  Na  -0.161533  -0.005799
     5  Na   0.233472   0.408678
     6  Na  -1.305475   0.312645
     7  Na   0.267741   0.067056
 Sum of Mulliken charges =  -0.00000   1.00000

 Dipole moment (field-independent basis, Debye):
    X=             -1.3204    Y=              0.6373    Z=              0.0717  Tot=              1.4679
 Quadrupole moment (field-independent basis, Debye-Ang):
   XX=            -66.4835   YY=            -63.9337   ZZ=            -70.5688
   XY=              6.9000   XZ=             -1.1835   YZ=             -2.3456

 Normal termination of Gaussian 16 at Wed Nov 29 03:00:34 2023.
