 Gaussian 16, Revision B.01,
 Gaussian 16:  ES64L-G16RevB.01 20-Dec-2017

 -------------------------
 #P B3LYP/6-311+g(d) force
 -------------------------

 -----
 DPGEN
 -----
 Symbolic Z-matrix:
 Charge =  0 Multiplicity = 2

                         Standard orientation:
 ---------------------------------------------------------------------
 Center     Atomic      Atomic             Coordinates (Angstroms)
 Number     Number       Type             X           Y           Z
 ---------------------------------------------------------------------
      1         11           0        0.854150   -1.475156    0.884757
      2         11           0        0.456049   -0.100157   -1.519443
      3         11           0        3.104909   -0.003954   -0.272443
      4         11           0        0.874347    1.642544    0.668257
      5         11           0       -1.962553    1.583741   -0.604843
      6         11           0       -1.488951   -0.106458    1.612057
      7         11           0       -1.837950   -1.540559   -0.768343
 ---------------------------------------------------------------------

 SCF Done:  E(UB3LYP) =  -1136.08416757     A.U. after   22 cycles

 The electronic state is 2-A.
 Alpha  occ. eigenvalues --  -38.44614 -38.44335 -38.44122 -38.43539 -38.43323
 Alpha  occ. eigenvalues --  -38.43208 -38.42922  -2.20622  -2.20533  -2.20423
 Alpha  occ. eigenvalues --   -2.19640  -2.19408  -2.19386  -2.19077  -1.14466
 Alpha  occ. eigenvalues --   -1.14332  -1.14294  -1.14275  -1.14252  -1.14187
 Alpha  occ. eigenvalues --   -1.14148  -1.14090  -1.14013  -1.13315  -1.13278
 Alpha  occ. eigenvalues --   -1.13231  -1.13113  -1.13074  -1.13056  -1.13029
 Alpha  occ. eigenvalues --   -1.12981  -1.12955  -1.12780  -1.12714  -1.12644
 Alpha  occ. eigenvalues --   -0.21411  -0.14490  -0.12415  -0.11889
 Alpha virt. eigenvalues --   -0.05946  -0.04146  -0.04126  -0.03468  -0.02704
 Alpha virt. eigenvalues --   -0.02622  -0.01568  -0.00373  -0.00317   0.00288
 Alpha virt. eigenvalues --    0.00618   0.00840   0.00913   0.01042   0.01053

  Beta  occ. eigenvalues --  -38.44610 -38.44265 -38.44048 -38.43513 -38.43306
  Beta  occ. eigenvalues --  -38.43170 -38.42896  -2.20617  -2.20407  -2.20292
  Beta  occ. eigenvalues --   -2.19598  -2.19360  -2.19346  -2.19037  -1.14439
  Beta  occ. eigenvalues --   -1.14268  -1.14260  -1.14251  -1.14165  -1.14110
  Beta  occ. eigenvalues --   -1.14058  -1.14003  -1.13920  -1.13284  -1.13229
  Beta  occ. eigenvalues --   -1.13184  -1.13076  -1.13058  -1.13005  -1.12960
  Beta  occ. eigenvalues --   -1.12944  -1.12907  -1.12758  -1.12646  -1.12609
  Beta  occ. eigenvalues --   -0.20564  -0.14243  -0.11628
  Beta virt. eigenvalues --   -0.08007  -0.05851  -0.04142  -0.03391  -0.03179
  Beta virt. eigenvalues --   -0.01941  -0.01653  -0.01473  -0.00358  -0.00045
  Beta virt. eigenvalues --    0.00326   0.00667   0.00824   0.01037   0.01064

 Mulliken charges and spin densities:
               1          2
     1  Na  -0.704628   0.231051
     2  Na  -0.104235   0.356209
     3  Na   1.108913   0.008507
     4  Na  -0.735998   0.159386
     5  Na  -0.127941  -0.003035
     6  Na   0.737316   0.271167
     7  Na  -0.173427  -0.023285
 Sum of Mulliken charges =  -0.00000   1.00000

 Dipole moment (field-independent basis, Debye):
    X=              0.3600    Y=              0.0730    Z=             -0.0601  Tot=              0.3722
 Quadrupole moment (field-independent basis, Debye-Ang):
   XX=            -53.4531   YY=            -75.2010   ZZ=            -66.8714
   XY=             -0.0786   XZ=              0.4874   YZ=              0.1003

 Normal termination of Gaussian 16 at Sat Dec  9 05:33:46 2023.
