 Gaussian 16, Revision B.01,
 Gaussian 16:  ES64L-G16RevB.01 20-Dec-2017

 -------------------------
 #P B3LYP/6-311+g(d) force
 -------------------------

 -----
 DPGEN
 -----
 Symbolic Z-matrix:
 Charge =  0 Multiplicity = 2

                         Standard orientation:
 ---------------------------------------------------------------------
 Center     Atomic      Atomic             Coordinates (Angstroms)
 Number     Number       Type             X           Y           Z
 ---------------------------------------------------------------------
      1         11           0        0.079178   -0.201306   -1.675809
      2         11           0       -0.681068   -3.034205   -0.132378
      3         11           0        2.625413   -1.477432   -0.075971
      4         11           0        0.036460    0.018565    2.201827
      5         11           0        2.631462    2.025225   -0.068748
      6         11           0       -3.235282   -0.216423    0.011161
      7         11           0       -1.456162    2.885575   -0.260082
 ---------------------------------------------------------------------

 SCF Done:  E(UB3LYP) =  -1136.13611548     A.U. after   19 cycles

 The electronic state is 2-A.
 Alpha  occ. eigenvalues --  -38.44189 -38.44006 -38.43892 -38.43852 -38.43833
 Alpha  occ. eigenvalues --  -38.43482 -38.43400  -2.19978  -2.19788  -2.19687
 Alpha  occ. eigenvalues --   -2.19681  -2.19668  -2.19325  -2.19307  -1.13656
 Alpha  occ. eigenvalues --   -1.13639  -1.13617  -1.13461  -1.13452  -1.13438
 Alpha  occ. eigenvalues --   -1.13383  -1.13355  -1.13347  -1.13338  -1.13327
 Alpha  occ. eigenvalues --   -1.13308  -1.13307  -1.13303  -1.13298  -1.13040
 Alpha  occ. eigenvalues --   -1.12996  -1.12964  -1.12958  -1.12940  -1.12921
 Alpha  occ. eigenvalues --   -0.18051  -0.12826  -0.12253  -0.10634
 Alpha virt. eigenvalues --   -0.05703  -0.05372  -0.05024  -0.03123  -0.02847
 Alpha virt. eigenvalues --   -0.02644  -0.01523  -0.01289  -0.00751  -0.00603
 Alpha virt. eigenvalues --   -0.00040   0.00349   0.00755   0.00806   0.00826

  Beta  occ. eigenvalues --  -38.44188 -38.44006 -38.43889 -38.43827 -38.43748
  Beta  occ. eigenvalues --  -38.43478 -38.43341  -2.19978  -2.19790  -2.19675
  Beta  occ. eigenvalues --   -2.19665  -2.19492  -2.19303  -2.19218  -1.13642
  Beta  occ. eigenvalues --   -1.13637  -1.13621  -1.13456  -1.13445  -1.13441
  Beta  occ. eigenvalues --   -1.13372  -1.13332  -1.13325  -1.13321  -1.13307
  Beta  occ. eigenvalues --   -1.13298  -1.13212  -1.13174  -1.13166  -1.13008
  Beta  occ. eigenvalues --   -1.12950  -1.12941  -1.12928  -1.12877  -1.12857
  Beta  occ. eigenvalues --   -0.17330  -0.12645  -0.12059
  Beta virt. eigenvalues --   -0.06698  -0.05699  -0.05365  -0.04911  -0.02365
  Beta virt. eigenvalues --   -0.02106  -0.01595  -0.01430  -0.01203  -0.00808
  Beta virt. eigenvalues --   -0.00664   0.00120   0.00381   0.00798   0.00816

 Mulliken charges and spin densities:
               1          2
     1  Na  -0.011454   0.473202
     2  Na   0.174864  -0.044461
     3  Na   0.292412  -0.009298
     4  Na  -0.483732   0.813758
     5  Na  -0.007144  -0.088516
     6  Na   0.072430  -0.054225
     7  Na  -0.037376  -0.090461
 Sum of Mulliken charges =  -0.00000   1.00000

 Dipole moment (field-independent basis, Debye):
    X=             -0.0493    Y=              0.0666    Z=              0.0732  Tot=              0.1106
 Quadrupole moment (field-independent basis, Debye-Ang):
   XX=            -57.5890   YY=            -60.6298   ZZ=            -75.3745
   XY=              0.8784   XZ=             -0.0254   YZ=             -0.5186

 Normal termination of Gaussian 16 at Thu Dec  7 02:08:25 2023.
