 Gaussian 16, Revision B.01,
 Gaussian 16:  ES64L-G16RevB.01 20-Dec-2017

 -------------------------
 #P B3LYP/6-311+g(d) force
 -------------------------

 -----
 DPGEN
 -----
 Symbolic Z-matrix:
 Charge =  0 Multiplicity = 2

                         Standard orientation:
 ---------------------------------------------------------------------
 Center     Atomic      Atomic             Coordinates (Angstroms)
 Number     Number       Type             X           Y           Z
 ---------------------------------------------------------------------
      1         11           0        2.586863   -1.633463   -0.199623
      2         11           0       -3.262959    0.282645   -0.373890
      3         11           0       -1.438960   -2.299564    0.324076
      4         11           0       -0.199852   -0.278424   -1.671381
      5         11           0        0.368594   -0.230237    1.957464
      6         11           0        2.501619    1.366596   -0.429564
      7         11           0       -0.555306    2.792448    0.392918
 ---------------------------------------------------------------------

 SCF Done:  E(UB3LYP) =  -1136.13345087     A.U. after   19 cycles

 The electronic state is 2-A.
 Alpha  occ. eigenvalues --  -38.44406 -38.43780 -38.43705 -38.43549 -38.43529
 Alpha  occ. eigenvalues --  -38.43325 -38.42835  -2.20242  -2.19676  -2.19618
 Alpha  occ. eigenvalues --   -2.19535  -2.19477  -2.19245  -2.18670  -1.13919
 Alpha  occ. eigenvalues --   -1.13908  -1.13874  -1.13473  -1.13340  -1.13324
 Alpha  occ. eigenvalues --   -1.13290  -1.13259  -1.13253  -1.13197  -1.13177
 Alpha  occ. eigenvalues --   -1.13159  -1.13143  -1.13109  -1.13087  -1.12912
 Alpha  occ. eigenvalues --   -1.12900  -1.12850  -1.12348  -1.12333  -1.12307
 Alpha  occ. eigenvalues --   -0.19041  -0.13610  -0.12071  -0.11065
 Alpha virt. eigenvalues --   -0.05929  -0.04963  -0.04236  -0.03520  -0.02808
 Alpha virt. eigenvalues --   -0.02625  -0.01775  -0.00896  -0.00243  -0.00041
 Alpha virt. eigenvalues --    0.00038   0.00349   0.00771   0.00902   0.00936

  Beta  occ. eigenvalues --  -38.44400 -38.43772 -38.43693 -38.43490 -38.43433
  Beta  occ. eigenvalues --  -38.43313 -38.42829  -2.20233  -2.19666  -2.19600
  Beta  occ. eigenvalues --   -2.19426  -2.19302  -2.19228  -2.18661  -1.13907
  Beta  occ. eigenvalues --   -1.13896  -1.13867  -1.13467  -1.13321  -1.13295
  Beta  occ. eigenvalues --   -1.13270  -1.13230  -1.13188  -1.13183  -1.13106
  Beta  occ. eigenvalues --   -1.13062  -1.13051  -1.12991  -1.12963  -1.12891
  Beta  occ. eigenvalues --   -1.12862  -1.12826  -1.12337  -1.12318  -1.12301
  Beta  occ. eigenvalues --   -0.18306  -0.13324  -0.11821
  Beta virt. eigenvalues --   -0.07135  -0.05839  -0.04970  -0.04186  -0.02743
  Beta virt. eigenvalues --   -0.02040  -0.01658  -0.01585  -0.00848  -0.00226
  Beta virt. eigenvalues --   -0.00039   0.00121   0.00384   0.00840   0.00909

 Mulliken charges and spin densities:
               1          2
     1  Na   0.340915  -0.029390
     2  Na  -0.000440  -0.017452
     3  Na   0.290724  -0.037338
     4  Na  -0.288422   0.380228
     5  Na  -0.312735   0.659794
     6  Na   0.043927   0.072237
     7  Na  -0.073969  -0.028079
 Sum of Mulliken charges =  -0.00000   1.00000

 Dipole moment (field-independent basis, Debye):
    X=             -0.2282    Y=             -0.1593    Z=             -0.0210  Tot=              0.2791
 Quadrupole moment (field-independent basis, Debye-Ang):
   XX=            -54.3866   YY=            -67.2340   ZZ=            -72.6929
   XY=             -1.0754   XZ=             -0.6041   YZ=             -0.2852

 Normal termination of Gaussian 16 at Thu Dec  7 20:17:59 2023.
