 Gaussian 16, Revision B.01,
 Gaussian 16:  ES64L-G16RevB.01 20-Dec-2017

 -------------------------
 #P B3LYP/6-311+g(d) force
 -------------------------

 -----
 DPGEN
 -----
 Symbolic Z-matrix:
 Charge =  0 Multiplicity = 2

                         Standard orientation:
 ---------------------------------------------------------------------
 Center     Atomic      Atomic             Coordinates (Angstroms)
 Number     Number       Type             X           Y           Z
 ---------------------------------------------------------------------
      1         11           0        3.146519   -1.727110   -0.563622
      2         11           0       -0.796387   -2.220467    0.876353
      3         11           0        1.652504    0.646692    1.486031
      4         11           0        0.849908    3.300544   -0.795266
      5         11           0        0.093373   -0.564071   -1.236367
      6         11           0       -3.149696   -0.634437   -0.905317
      7         11           0       -1.796221    1.198849    1.138187
 ---------------------------------------------------------------------

 SCF Done:  E(UB3LYP) =  -1136.12669129     A.U. after   20 cycles

 The electronic state is 2-A.
 Alpha  occ. eigenvalues --  -38.44109 -38.44059 -38.43912 -38.43605 -38.43551
 Alpha  occ. eigenvalues --  -38.43285 -38.43186  -2.20035  -2.19865  -2.19821
 Alpha  occ. eigenvalues --   -2.19466  -2.19381  -2.19232  -2.19181  -1.13862
 Alpha  occ. eigenvalues --   -1.13673  -1.13619  -1.13542  -1.13530  -1.13525
 Alpha  occ. eigenvalues --   -1.13494  -1.13480  -1.13431  -1.13157  -1.13133
 Alpha  occ. eigenvalues --   -1.13062  -1.13048  -1.13043  -1.13008  -1.12957
 Alpha  occ. eigenvalues --   -1.12897  -1.12849  -1.12832  -1.12815  -1.12777
 Alpha  occ. eigenvalues --   -0.18744  -0.13281  -0.12047  -0.10525
 Alpha virt. eigenvalues --   -0.06012  -0.05105  -0.04591  -0.03158  -0.02796
 Alpha virt. eigenvalues --   -0.02003  -0.01829  -0.01133  -0.00697   0.00017
 Alpha virt. eigenvalues --    0.00244   0.00329   0.00544   0.00769   0.00811

  Beta  occ. eigenvalues --  -38.44082 -38.44052 -38.43893 -38.43589 -38.43523
  Beta  occ. eigenvalues --  -38.43250 -38.43145  -2.19989  -2.19853  -2.19785
  Beta  occ. eigenvalues --   -2.19420  -2.19351  -2.19160  -2.19120  -1.13832
  Beta  occ. eigenvalues --   -1.13606  -1.13593  -1.13524  -1.13519  -1.13509
  Beta  occ. eigenvalues --   -1.13486  -1.13443  -1.13405  -1.13125  -1.13077
  Beta  occ. eigenvalues --   -1.13029  -1.13023  -1.13019  -1.12989  -1.12894
  Beta  occ. eigenvalues --   -1.12852  -1.12792  -1.12775  -1.12756  -1.12738
  Beta  occ. eigenvalues --   -0.17994  -0.13085  -0.11846
  Beta virt. eigenvalues --   -0.06692  -0.05913  -0.04910  -0.04330  -0.02708
  Beta virt. eigenvalues --   -0.02290  -0.01787  -0.01126  -0.01045  -0.00308
  Beta virt. eigenvalues --    0.00012   0.00305   0.00365   0.00654   0.00783

 Mulliken charges and spin densities:
               1          2
     1  Na   0.297279  -0.046053
     2  Na   0.011723   0.236590
     3  Na   0.104612   0.232367
     4  Na  -0.150544  -0.055787
     5  Na  -0.911956   0.455599
     6  Na   0.920513  -0.096604
     7  Na  -0.271627   0.273889
 Sum of Mulliken charges =  -0.00000   1.00000

 Dipole moment (field-independent basis, Debye):
    X=             -0.0273    Y=             -0.3353    Z=              0.1053  Tot=              0.3525
 Quadrupole moment (field-independent basis, Debye-Ang):
   XX=            -54.5913   YY=            -65.0421   ZZ=            -71.4806
   XY=             -0.6815   XZ=              0.1716   YZ=             -1.8934

 Normal termination of Gaussian 16 at Tue Dec  5 12:48:08 2023.
