 Gaussian 16, Revision B.01,
 Gaussian 16:  ES64L-G16RevB.01 20-Dec-2017

 -------------------------
 #P B3LYP/6-311+g(d) force
 -------------------------

 -----
 DPGEN
 -----
 Symbolic Z-matrix:
 Charge =  0 Multiplicity = 2

                         Standard orientation:
 ---------------------------------------------------------------------
 Center     Atomic      Atomic             Coordinates (Angstroms)
 Number     Number       Type             X           Y           Z
 ---------------------------------------------------------------------
      1         11           0        1.898364   -0.130185    1.977577
      2         11           0       -0.404825   -0.158733   -0.949134
      3         11           0       -2.608442    2.246707    0.024962
      4         11           0        1.369881    2.946084   -0.108140
      5         11           0       -3.160011   -1.331630    0.139180
      6         11           0        2.889415   -0.746286   -1.206903
      7         11           0        0.015618   -2.825957    0.122457
 ---------------------------------------------------------------------

 SCF Done:  E(UB3LYP) =  -1136.12726055     A.U. after   20 cycles

 The electronic state is 2-A.
 Alpha  occ. eigenvalues --  -38.44361 -38.44293 -38.44225 -38.44050 -38.43771
 Alpha  occ. eigenvalues --  -38.43359 -38.42919  -2.20123  -2.20073  -2.20057
 Alpha  occ. eigenvalues --   -2.19900  -2.19650  -2.19218  -2.18969  -1.13800
 Alpha  occ. eigenvalues --   -1.13789  -1.13761  -1.13758  -1.13751  -1.13741
 Alpha  occ. eigenvalues --   -1.13721  -1.13706  -1.13671  -1.13574  -1.13552
 Alpha  occ. eigenvalues --   -1.13525  -1.13438  -1.13297  -1.13243  -1.12879
 Alpha  occ. eigenvalues --   -1.12853  -1.12831  -1.12661  -1.12617  -1.12596
 Alpha  occ. eigenvalues --   -0.18069  -0.13448  -0.12390  -0.09998
 Alpha virt. eigenvalues --   -0.06183  -0.05715  -0.04853  -0.03184  -0.02462
 Alpha virt. eigenvalues --   -0.02014  -0.01723  -0.01281  -0.01050  -0.00713
 Alpha virt. eigenvalues --   -0.00101   0.00311   0.00656   0.00713   0.00768

  Beta  occ. eigenvalues --  -38.44358 -38.44296 -38.44225 -38.44005 -38.43763
  Beta  occ. eigenvalues --  -38.43275 -38.42888  -2.20120  -2.20079  -2.20058
  Beta  occ. eigenvalues --   -2.19820  -2.19640  -2.19060  -2.18917  -1.13789
  Beta  occ. eigenvalues --   -1.13780  -1.13762  -1.13759  -1.13751  -1.13742
  Beta  occ. eigenvalues --   -1.13718  -1.13710  -1.13674  -1.13511  -1.13484
  Beta  occ. eigenvalues --   -1.13470  -1.13430  -1.13262  -1.13238  -1.12770
  Beta  occ. eigenvalues --   -1.12749  -1.12718  -1.12615  -1.12579  -1.12545
  Beta  occ. eigenvalues --   -0.17488  -0.13198  -0.12237
  Beta virt. eigenvalues --   -0.06179  -0.06049  -0.05586  -0.04741  -0.02643
  Beta virt. eigenvalues --   -0.01884  -0.01711  -0.01299  -0.00999  -0.00880
  Beta virt. eigenvalues --   -0.00735   0.00199   0.00409   0.00724   0.00773

 Mulliken charges and spin densities:
               1          2
     1  Na  -0.766804   0.476841
     2  Na  -0.106583   0.540064
     3  Na   0.085835  -0.126207
     4  Na   0.127098   0.011872
     5  Na   0.045566  -0.122988
     6  Na   0.445198   0.144158
     7  Na   0.169690   0.076259
 Sum of Mulliken charges =  -0.00000   1.00000

 Dipole moment (field-independent basis, Debye):
    X=             -0.5550    Y=              0.2086    Z=              0.0335  Tot=              0.5938
 Quadrupole moment (field-independent basis, Debye-Ang):
   XX=            -54.2862   YY=            -60.0908   ZZ=            -77.5372
   XY=              0.6331   XZ=             -3.5303   YZ=             -0.4400

 Normal termination of Gaussian 16 at Fri Dec  8 00:48:44 2023.
