 Gaussian 16, Revision B.01,
 Gaussian 16:  ES64L-G16RevB.01 20-Dec-2017

 -------------------------
 #P B3LYP/6-311+g(d) force
 -------------------------

 -----
 DPGEN
 -----
 Symbolic Z-matrix:
 Charge =  0 Multiplicity = 2

                         Standard orientation:
 ---------------------------------------------------------------------
 Center     Atomic      Atomic             Coordinates (Angstroms)
 Number     Number       Type             X           Y           Z
 ---------------------------------------------------------------------
      1         11           0        0.142701   -2.755807    0.624751
      2         11           0        3.182239   -2.669266   -0.313853
      3         11           0        3.305951    0.465505   -0.595255
      4         11           0       -0.165219    0.921448    0.124672
      5         11           0       -2.966732    0.441887    1.408279
      6         11           0        1.970832    3.827961    0.033135
      7         11           0       -5.469772   -0.231728   -1.281729
 ---------------------------------------------------------------------

 SCF Done:  E(UB3LYP) =  -1136.11744343     A.U. after   20 cycles

 The electronic state is 2-A.
 Alpha  occ. eigenvalues --  -38.44808 -38.44737 -38.44232 -38.44193 -38.44073
 Alpha  occ. eigenvalues --  -38.43753 -38.43662  -2.20604  -2.20520  -2.20070
 Alpha  occ. eigenvalues --   -2.19959  -2.19865  -2.19610  -2.19535  -1.14280
 Alpha  occ. eigenvalues --   -1.14270  -1.14232  -1.14156  -1.14155  -1.14119
 Alpha  occ. eigenvalues --   -1.13755  -1.13749  -1.13699  -1.13633  -1.13626
 Alpha  occ. eigenvalues --   -1.13597  -1.13582  -1.13518  -1.13513  -1.13275
 Alpha  occ. eigenvalues --   -1.13255  -1.13248  -1.13228  -1.13211  -1.13121
 Alpha  occ. eigenvalues --   -0.16649  -0.13736  -0.12463  -0.11008
 Alpha virt. eigenvalues --   -0.06607  -0.05383  -0.04638  -0.03826  -0.02571
 Alpha virt. eigenvalues --   -0.02107  -0.01971  -0.01678  -0.01397  -0.00774
 Alpha virt. eigenvalues --   -0.00455  -0.00050   0.00076   0.00276   0.00631

  Beta  occ. eigenvalues --  -38.44789 -38.44609 -38.44202 -38.44196 -38.44087
  Beta  occ. eigenvalues --  -38.43738 -38.43633  -2.20567  -2.20282  -2.20016
  Beta  occ. eigenvalues --   -2.19964  -2.19897  -2.19583  -2.19483  -1.14256
  Beta  occ. eigenvalues --   -1.14247  -1.14202  -1.13994  -1.13992  -1.13962
  Beta  occ. eigenvalues --   -1.13721  -1.13715  -1.13654  -1.13637  -1.13626
  Beta  occ. eigenvalues --   -1.13609  -1.13584  -1.13544  -1.13507  -1.13244
  Beta  occ. eigenvalues --   -1.13237  -1.13233  -1.13194  -1.13180  -1.13080
  Beta  occ. eigenvalues --   -0.16237  -0.12996  -0.12404
  Beta virt. eigenvalues --   -0.07369  -0.06121  -0.05149  -0.04401  -0.03526
  Beta virt. eigenvalues --   -0.02246  -0.01992  -0.01654  -0.01353  -0.01160
  Beta virt. eigenvalues --   -0.00512  -0.00020   0.00128   0.00232   0.00491

 Mulliken charges and spin densities:
               1          2
     1  Na   0.497707   0.069833
     2  Na  -0.184831   0.034728
     3  Na   0.270948   0.303722
     4  Na  -1.834500  -0.028594
     5  Na   0.438306  -0.106394
     6  Na   0.608965   0.050781
     7  Na   0.203406   0.675924
 Sum of Mulliken charges =  -0.00000   1.00000

 Dipole moment (field-independent basis, Debye):
    X=              0.6152    Y=             -0.1036    Z=              0.1924  Tot=              0.6528
 Quadrupole moment (field-independent basis, Debye-Ang):
   XX=            -69.5344   YY=            -59.0506   ZZ=            -69.7041
   XY=              1.5711   XZ=             -1.1892   YZ=              1.1219

 Normal termination of Gaussian 16 at Tue Nov 28 23:24:50 2023.
