 Gaussian 16, Revision B.01,
 Gaussian 16:  ES64L-G16RevB.01 20-Dec-2017

 -------------------------
 #P B3LYP/6-311+g(d) force
 -------------------------

 -----
 DPGEN
 -----
 Symbolic Z-matrix:
 Charge =  0 Multiplicity = 2

                         Standard orientation:
 ---------------------------------------------------------------------
 Center     Atomic      Atomic             Coordinates (Angstroms)
 Number     Number       Type             X           Y           Z
 ---------------------------------------------------------------------
      1         11           0       -3.077018   -1.306286   -0.590678
      2         11           0        3.002006   -0.999570   -1.192862
      3         11           0        0.604456    2.665386   -0.521113
      4         11           0       -2.088075    1.433676    1.406654
      5         11           0       -0.760021    0.284384   -1.788507
      6         11           0        0.089753   -2.435851    1.089975
      7         11           0        2.228900    0.358262    1.596532
 ---------------------------------------------------------------------

 SCF Done:  E(UB3LYP) =  -1136.12703235     A.U. after   19 cycles

 The electronic state is 2-A.
 Alpha  occ. eigenvalues --  -38.44680 -38.44420 -38.44080 -38.43893 -38.43754
 Alpha  occ. eigenvalues --  -38.43625 -38.42861  -2.20477  -2.20235  -2.19933
 Alpha  occ. eigenvalues --   -2.19675  -2.19604  -2.19572  -2.18732  -1.14163
 Alpha  occ. eigenvalues --   -1.14129  -1.14106  -1.13901  -1.13887  -1.13865
 Alpha  occ. eigenvalues --   -1.13605  -1.13594  -1.13554  -1.13402  -1.13366
 Alpha  occ. eigenvalues --   -1.13346  -1.13289  -1.13259  -1.13242  -1.13226
 Alpha  occ. eigenvalues --   -1.13189  -1.13155  -1.12441  -1.12383  -1.12345
 Alpha  occ. eigenvalues --   -0.18034  -0.13352  -0.11803  -0.11090
 Alpha virt. eigenvalues --   -0.05987  -0.05422  -0.04255  -0.03776  -0.03025
 Alpha virt. eigenvalues --   -0.02787  -0.01593  -0.00974  -0.00469  -0.00031
 Alpha virt. eigenvalues --    0.00117   0.00318   0.00396   0.00530   0.00729

  Beta  occ. eigenvalues --  -38.44661 -38.44382 -38.44052 -38.43876 -38.43747
  Beta  occ. eigenvalues --  -38.43562 -38.42856  -2.20443  -2.20163  -2.19881
  Beta  occ. eigenvalues --   -2.19644  -2.19593  -2.19458  -2.18727  -1.14140
  Beta  occ. eigenvalues --   -1.14102  -1.14078  -1.13850  -1.13833  -1.13815
  Beta  occ. eigenvalues --   -1.13565  -1.13553  -1.13519  -1.13362  -1.13340
  Beta  occ. eigenvalues --   -1.13315  -1.13271  -1.13236  -1.13217  -1.13177
  Beta  occ. eigenvalues --   -1.13118  -1.13084  -1.12428  -1.12371  -1.12333
  Beta  occ. eigenvalues --   -0.17341  -0.13174  -0.11590
  Beta virt. eigenvalues --   -0.07404  -0.05758  -0.05055  -0.04042  -0.03448
  Beta virt. eigenvalues --   -0.02403  -0.01916  -0.01498  -0.00744  -0.00325
  Beta virt. eigenvalues --    0.00082   0.00148   0.00427   0.00468   0.00670

 Mulliken charges and spin densities:
               1          2
     1  Na   0.406549  -0.014613
     2  Na   0.229971  -0.011178
     3  Na   0.445550  -0.006556
     4  Na  -0.135901   0.258577
     5  Na  -0.583939   0.369935
     6  Na  -0.248732   0.083764
     7  Na  -0.113499   0.320071
 Sum of Mulliken charges =  -0.00000   1.00000

 Dipole moment (field-independent basis, Debye):
    X=              0.1500    Y=             -0.2643    Z=              0.2668  Tot=              0.4044
 Quadrupole moment (field-independent basis, Debye-Ang):
   XX=            -57.1421   YY=            -70.9944   ZZ=            -67.5289
   XY=              0.2661   XZ=             -3.1585   YZ=              2.4619

 Normal termination of Gaussian 16 at Mon Dec  4 03:18:14 2023.
