 Gaussian 16, Revision B.01,
 Gaussian 16:  ES64L-G16RevB.01 20-Dec-2017

 -------------------------
 #P B3LYP/6-311+g(d) force
 -------------------------

 -----
 DPGEN
 -----
 Symbolic Z-matrix:
 Charge =  0 Multiplicity = 2

                         Standard orientation:
 ---------------------------------------------------------------------
 Center     Atomic      Atomic             Coordinates (Angstroms)
 Number     Number       Type             X           Y           Z
 ---------------------------------------------------------------------
      1         11           0        1.522847    1.803006    0.620010
      2         11           0       -1.903424    2.221584    0.014002
      3         11           0       -3.373884   -0.448874   -1.318266
      4         11           0       -1.465173   -0.456840    1.778711
      5         11           0        1.964038   -1.401743    1.283047
      6         11           0       -0.079959   -2.277780   -0.776240
      7         11           0        3.335555    0.560646   -1.601264
 ---------------------------------------------------------------------

 SCF Done:  E(UB3LYP) =  -1136.12676147     A.U. after   21 cycles

 The electronic state is 2-A.
 Alpha  occ. eigenvalues --  -38.44455 -38.44418 -38.44136 -38.43785 -38.43423
 Alpha  occ. eigenvalues --  -38.43381 -38.43169  -2.20282  -2.20245  -2.20036
 Alpha  occ. eigenvalues --   -2.19692  -2.19277  -2.19235  -2.19052  -1.13948
 Alpha  occ. eigenvalues --   -1.13920  -1.13913  -1.13911  -1.13889  -1.13863
 Alpha  occ. eigenvalues --   -1.13727  -1.13679  -1.13669  -1.13415  -1.13372
 Alpha  occ. eigenvalues --   -1.13299  -1.12960  -1.12944  -1.12913  -1.12909
 Alpha  occ. eigenvalues --   -1.12886  -1.12867  -1.12736  -1.12726  -1.12686
 Alpha  occ. eigenvalues --   -0.18138  -0.14006  -0.11731  -0.11145
 Alpha virt. eigenvalues --   -0.05714  -0.05355  -0.05081  -0.03472  -0.02799
 Alpha virt. eigenvalues --   -0.02577  -0.01686  -0.00789  -0.00588  -0.00129
 Alpha virt. eigenvalues --    0.00017   0.00330   0.00337   0.00427   0.00571

  Beta  occ. eigenvalues --  -38.44402 -38.44361 -38.44091 -38.43767 -38.43418
  Beta  occ. eigenvalues --  -38.43376 -38.43162  -2.20182  -2.20139  -2.19958
  Beta  occ. eigenvalues --   -2.19664  -2.19271  -2.19227  -2.19045  -1.13878
  Beta  occ. eigenvalues --   -1.13856  -1.13844  -1.13841  -1.13816  -1.13791
  Beta  occ. eigenvalues --   -1.13677  -1.13615  -1.13600  -1.13403  -1.13346
  Beta  occ. eigenvalues --   -1.13259  -1.12951  -1.12939  -1.12904  -1.12895
  Beta  occ. eigenvalues --   -1.12866  -1.12863  -1.12729  -1.12720  -1.12653
  Beta  occ. eigenvalues --   -0.17485  -0.13579  -0.11509
  Beta virt. eigenvalues --   -0.07602  -0.05439  -0.05063  -0.04545  -0.03395
  Beta virt. eigenvalues --   -0.02302  -0.01813  -0.01491  -0.00540  -0.00401
  Beta virt. eigenvalues --   -0.00031   0.00111   0.00416   0.00478   0.00563

 Mulliken charges and spin densities:
               1          2
     1  Na  -0.500582   0.032401
     2  Na   0.105593  -0.020470
     3  Na   0.121061   0.249016
     4  Na   0.045633   0.288987
     5  Na   0.551960   0.147257
     6  Na  -0.562533   0.084648
     7  Na   0.238868   0.218161
 Sum of Mulliken charges =  -0.00000   1.00000

 Dipole moment (field-independent basis, Debye):
    X=             -0.1959    Y=             -0.3554    Z=             -0.3560  Tot=              0.5399
 Quadrupole moment (field-independent basis, Debye-Ang):
   XX=            -58.5348   YY=            -74.7906   ZZ=            -64.0836
   XY=             -1.5943   XZ=             -0.0115   YZ=             -0.0498

 Normal termination of Gaussian 16 at Tue Nov 28 23:40:57 2023.
