 Gaussian 16, Revision B.01,
 Gaussian 16:  ES64L-G16RevB.01 20-Dec-2017

 -------------------------
 #P B3LYP/6-311+g(d) force
 -------------------------

 -----
 DPGEN
 -----
 Symbolic Z-matrix:
 Charge =  0 Multiplicity = 2

                         Standard orientation:
 ---------------------------------------------------------------------
 Center     Atomic      Atomic             Coordinates (Angstroms)
 Number     Number       Type             X           Y           Z
 ---------------------------------------------------------------------
      1         11           0       -0.612411    3.044988    0.832461
      2         11           0        3.838039   -1.114878   -0.383377
      3         11           0        2.193468    1.344996   -1.942122
      4         11           0        0.898928    0.441363    2.054039
      5         11           0       -0.032174   -2.960652    0.588414
      6         11           0       -1.543128   -0.276008   -0.324309
      7         11           0       -4.742722   -0.479809   -0.825107
 ---------------------------------------------------------------------

 SCF Done:  E(UB3LYP) =  -1136.11388405     A.U. after   22 cycles

 The electronic state is 2-A.
 Alpha  occ. eigenvalues --  -38.44947 -38.44786 -38.44729 -38.44258 -38.44052
 Alpha  occ. eigenvalues --  -38.43107 -38.43059  -2.20734  -2.20580  -2.20578
 Alpha  occ. eigenvalues --   -2.20025  -2.19851  -2.19002  -2.18874  -1.14405
 Alpha  occ. eigenvalues --   -1.14376  -1.14343  -1.14263  -1.14225  -1.14222
 Alpha  occ. eigenvalues --   -1.14215  -1.14201  -1.14193  -1.13705  -1.13689
 Alpha  occ. eigenvalues --   -1.13662  -1.13544  -1.13508  -1.13459  -1.12705
 Alpha  occ. eigenvalues --   -1.12693  -1.12629  -1.12551  -1.12526  -1.12515
 Alpha  occ. eigenvalues --   -0.17110  -0.13200  -0.11729  -0.11463
 Alpha virt. eigenvalues --   -0.06778  -0.04867  -0.04459  -0.03613  -0.02894
 Alpha virt. eigenvalues --   -0.02466  -0.02233  -0.01149  -0.00864  -0.00756
 Alpha virt. eigenvalues --   -0.00266  -0.00089   0.00307   0.00647   0.00692

  Beta  occ. eigenvalues --  -38.44885 -38.44704 -38.44682 -38.44258 -38.44021
  Beta  occ. eigenvalues --  -38.43110 -38.43058  -2.20618  -2.20494  -2.20426
  Beta  occ. eigenvalues --   -2.20028  -2.19795  -2.19013  -2.18875  -1.14327
  Beta  occ. eigenvalues --   -1.14301  -1.14257  -1.14206  -1.14169  -1.14124
  Beta  occ. eigenvalues --   -1.14118  -1.14110  -1.14099  -1.13708  -1.13684
  Beta  occ. eigenvalues --   -1.13654  -1.13511  -1.13461  -1.13424  -1.12706
  Beta  occ. eigenvalues --   -1.12674  -1.12637  -1.12541  -1.12529  -1.12517
  Beta  occ. eigenvalues --   -0.16585  -0.12325  -0.11545
  Beta virt. eigenvalues --   -0.08097  -0.06371  -0.04725  -0.04154  -0.03194
  Beta virt. eigenvalues --   -0.02534  -0.02220  -0.01831  -0.01078  -0.00533
  Beta virt. eigenvalues --   -0.00392  -0.00113   0.00047   0.00382   0.00695

 Mulliken charges and spin densities:
               1          2
     1  Na   0.230411  -0.024165
     2  Na  -0.033915  -0.008371
     3  Na   0.356711   0.255423
     4  Na   0.608491   0.186119
     5  Na   0.461273   0.063836
     6  Na  -1.465133   0.049207
     7  Na  -0.157837   0.477951
 Sum of Mulliken charges =  -0.00000   1.00000

 Dipole moment (field-independent basis, Debye):
    X=              0.1569    Y=              0.0558    Z=              0.2282  Tot=              0.2825
 Quadrupole moment (field-independent basis, Debye-Ang):
   XX=            -60.8844   YY=            -67.5606   ZZ=            -67.0960
   XY=             -2.9249   XZ=              3.3448   YZ=             -2.7883

 Normal termination of Gaussian 16 at Sun Dec  3 13:27:26 2023.
