 Gaussian 16, Revision B.01,
 Gaussian 16:  ES64L-G16RevB.01 20-Dec-2017

 -------------------------
 #P B3LYP/6-311+g(d) force
 -------------------------

 -----
 DPGEN
 -----
 Symbolic Z-matrix:
 Charge =  0 Multiplicity = 2

                         Standard orientation:
 ---------------------------------------------------------------------
 Center     Atomic      Atomic             Coordinates (Angstroms)
 Number     Number       Type             X           Y           Z
 ---------------------------------------------------------------------
      1         11           0       -3.287051    1.270327    0.855488
      2         11           0        0.114837   -0.252985    1.775223
      3         11           0        0.824692   -2.279051   -0.308261
      4         11           0        1.789405    2.685168   -0.166237
      5         11           0        3.790038   -0.749447    0.151693
      6         11           0       -2.671064   -1.773168   -0.611567
      7         11           0       -0.560857    1.099155   -1.696338
 ---------------------------------------------------------------------

 SCF Done:  E(UB3LYP) =  -1136.12276638     A.U. after   22 cycles

 The electronic state is 2-A.
 Alpha  occ. eigenvalues --  -38.45429 -38.44721 -38.44568 -38.44088 -38.43253
 Alpha  occ. eigenvalues --  -38.43225 -38.43005  -2.21191  -2.20586  -2.20374
 Alpha  occ. eigenvalues --   -2.19916  -2.19096  -2.19054  -2.18902  -1.14875
 Alpha  occ. eigenvalues --   -1.14837  -1.14823  -1.14326  -1.14232  -1.14176
 Alpha  occ. eigenvalues --   -1.14030  -1.14022  -1.14006  -1.13582  -1.13570
 Alpha  occ. eigenvalues --   -1.13562  -1.12814  -1.12759  -1.12743  -1.12716
 Alpha  occ. eigenvalues --   -1.12691  -1.12663  -1.12637  -1.12554  -1.12501
 Alpha  occ. eigenvalues --   -0.18002  -0.13508  -0.11744  -0.10482
 Alpha virt. eigenvalues --   -0.07055  -0.05521  -0.04086  -0.03292  -0.02727
 Alpha virt. eigenvalues --   -0.02589  -0.02193  -0.01474  -0.00728  -0.00268
 Alpha virt. eigenvalues --   -0.00033   0.00127   0.00456   0.00638   0.00672

  Beta  occ. eigenvalues --  -38.45429 -38.44675 -38.44523 -38.44069 -38.43254
  Beta  occ. eigenvalues --  -38.43169 -38.42993  -2.21192  -2.20500  -2.20289
  Beta  occ. eigenvalues --   -2.19885  -2.19058  -2.18995  -2.18882  -1.14874
  Beta  occ. eigenvalues --   -1.14839  -1.14824  -1.14259  -1.14175  -1.14110
  Beta  occ. eigenvalues --   -1.13973  -1.13954  -1.13951  -1.13554  -1.13549
  Beta  occ. eigenvalues --   -1.13524  -1.12779  -1.12717  -1.12700  -1.12692
  Beta  occ. eigenvalues --   -1.12665  -1.12624  -1.12611  -1.12537  -1.12467
  Beta  occ. eigenvalues --   -0.17367  -0.13270  -0.11475
  Beta virt. eigenvalues --   -0.06973  -0.06694  -0.05440  -0.03774  -0.02876
  Beta virt. eigenvalues --   -0.02505  -0.02005  -0.01440  -0.01325  -0.00619
  Beta virt. eigenvalues --   -0.00073  -0.00010   0.00192   0.00587   0.00709

 Mulliken charges and spin densities:
               1          2
     1  Na   0.061264   0.254204
     2  Na  -0.057066   0.312760
     3  Na  -0.126526   0.129235
     4  Na  -0.058211  -0.049995
     5  Na   0.072375  -0.020943
     6  Na   0.254991   0.159152
     7  Na  -0.146827   0.215587
 Sum of Mulliken charges =  -0.00000   1.00000

 Dipole moment (field-independent basis, Debye):
    X=              0.4058    Y=             -0.1601    Z=              0.1021  Tot=              0.4481
 Quadrupole moment (field-independent basis, Debye-Ang):
   XX=            -47.3829   YY=            -72.0039   ZZ=            -73.8521
   XY=              0.1197   XZ=              0.7220   YZ=              3.1521

 Normal termination of Gaussian 16 at Thu Dec  7 14:02:50 2023.
