 Gaussian 16, Revision B.01,
 Gaussian 16:  ES64L-G16RevB.01 20-Dec-2017

 -------------------------
 #P B3LYP/6-311+g(d) force
 -------------------------

 -----
 DPGEN
 -----
 Symbolic Z-matrix:
 Charge =  0 Multiplicity = 2

                         Standard orientation:
 ---------------------------------------------------------------------
 Center     Atomic      Atomic             Coordinates (Angstroms)
 Number     Number       Type             X           Y           Z
 ---------------------------------------------------------------------
      1         11           0        1.817461   -0.637725   -0.589797
      2         11           0       -2.925032   -2.163465    0.361586
      3         11           0       -3.339979    0.379695   -2.180448
      4         11           0       -0.774354   -1.355426    2.394936
      5         11           0        4.676530   -1.230963   -1.383332
      6         11           0        1.313267    2.235092    2.038978
      7         11           0       -0.767894    2.772792   -0.641923
 ---------------------------------------------------------------------

 SCF Done:  E(UB3LYP) =  -1136.11039822     A.U. after   23 cycles

 The electronic state is 2-A.
 Alpha  occ. eigenvalues --  -38.45213 -38.45070 -38.44614 -38.44038 -38.43885
 Alpha  occ. eigenvalues --  -38.43812 -38.43741  -2.20989  -2.20894  -2.20398
 Alpha  occ. eigenvalues --   -2.19799  -2.19701  -2.19622  -2.19559  -1.14647
 Alpha  occ. eigenvalues --   -1.14621  -1.14610  -1.14565  -1.14535  -1.14511
 Alpha  occ. eigenvalues --   -1.14061  -1.14043  -1.14033  -1.13491  -1.13472
 Alpha  occ. eigenvalues --   -1.13440  -1.13431  -1.13336  -1.13334  -1.13316
 Alpha  occ. eigenvalues --   -1.13281  -1.13261  -1.13235  -1.13209  -1.13156
 Alpha  occ. eigenvalues --   -0.16531  -0.13324  -0.12285  -0.11895
 Alpha virt. eigenvalues --   -0.06009  -0.05606  -0.05330  -0.03402  -0.02724
 Alpha virt. eigenvalues --   -0.02504  -0.02133  -0.01499  -0.01027  -0.00577
 Alpha virt. eigenvalues --   -0.00512  -0.00268  -0.00043   0.00129   0.00763

  Beta  occ. eigenvalues --  -38.45136 -38.44998 -38.44584 -38.44045 -38.43839
  Beta  occ. eigenvalues --  -38.43815 -38.43739  -2.20846  -2.20761  -2.20341
  Beta  occ. eigenvalues --   -2.19815  -2.19633  -2.19618  -2.19559  -1.14550
  Beta  occ. eigenvalues --   -1.14526  -1.14514  -1.14477  -1.14448  -1.14413
  Beta  occ. eigenvalues --   -1.14017  -1.14005  -1.13999  -1.13503  -1.13485
  Beta  occ. eigenvalues --   -1.13425  -1.13392  -1.13311  -1.13293  -1.13282
  Beta  occ. eigenvalues --   -1.13279  -1.13254  -1.13232  -1.13211  -1.13126
  Beta  occ. eigenvalues --   -0.15909  -0.12741  -0.11590
  Beta virt. eigenvalues --   -0.08879  -0.05636  -0.05217  -0.04720  -0.03113
  Beta virt. eigenvalues --   -0.02632  -0.02207  -0.01850  -0.01219  -0.00768
  Beta virt. eigenvalues --   -0.00305  -0.00272  -0.00038   0.00093   0.00182

 Mulliken charges and spin densities:
               1          2
     1  Na  -0.911380   0.060675
     2  Na   0.168003  -0.027292
     3  Na   0.250613   0.370606
     4  Na   0.241702   0.358576
     5  Na  -0.075982   0.148259
     6  Na   0.586907   0.116749
     7  Na  -0.259863  -0.027572
 Sum of Mulliken charges =  -0.00000   1.00000

 Dipole moment (field-independent basis, Debye):
    X=             -0.2613    Y=              0.4345    Z=              0.4514  Tot=              0.6789
 Quadrupole moment (field-independent basis, Debye-Ang):
   XX=            -62.2663   YY=            -73.5595   ZZ=            -62.0404
   XY=              2.1099   XZ=              5.6741   YZ=              1.0555

 Normal termination of Gaussian 16 at Sun Dec  3 23:37:05 2023.
