 Gaussian 16, Revision B.01,
 Gaussian 16:  ES64L-G16RevB.01 20-Dec-2017

 -------------------------
 #P B3LYP/6-311+g(d) force
 -------------------------

 -----
 DPGEN
 -----
 Symbolic Z-matrix:
 Charge =  0 Multiplicity = 2

                         Standard orientation:
 ---------------------------------------------------------------------
 Center     Atomic      Atomic             Coordinates (Angstroms)
 Number     Number       Type             X           Y           Z
 ---------------------------------------------------------------------
      1         11           0       -1.871299    0.843124   -1.553691
      2         11           0        3.652586    0.731548   -0.763536
      3         11           0        3.831445   -2.101041    0.090242
      4         11           0       -2.191799   -0.239255    1.558974
      5         11           0       -4.775019   -0.912301   -0.420872
      6         11           0        0.385113   -0.769358    0.192020
      7         11           0        0.968974    2.447283    0.896864
 ---------------------------------------------------------------------

 SCF Done:  E(UB3LYP) =  -1136.11206855     A.U. after   24 cycles

 The electronic state is 2-A.
 Alpha  occ. eigenvalues --  -38.45408 -38.44310 -38.44021 -38.43788 -38.43766
 Alpha  occ. eigenvalues --  -38.43619 -38.43236  -2.21257  -2.20255  -2.19891
 Alpha  occ. eigenvalues --   -2.19755  -2.19595  -2.19449  -2.19081  -1.14981
 Alpha  occ. eigenvalues --   -1.14933  -1.14825  -1.14012  -1.13900  -1.13855
 Alpha  occ. eigenvalues --   -1.13587  -1.13557  -1.13527  -1.13454  -1.13390
 Alpha  occ. eigenvalues --   -1.13361  -1.13267  -1.13255  -1.13232  -1.13121
 Alpha  occ. eigenvalues --   -1.13104  -1.13065  -1.12747  -1.12724  -1.12718
 Alpha  occ. eigenvalues --   -0.17992  -0.14542  -0.11307  -0.10579
 Alpha virt. eigenvalues --   -0.07224  -0.05214  -0.04696  -0.03230  -0.03036
 Alpha virt. eigenvalues --   -0.02347  -0.01917  -0.01566  -0.01028  -0.00415
 Alpha virt. eigenvalues --   -0.00265   0.00272   0.00337   0.00546   0.00573

  Beta  occ. eigenvalues --  -38.45384 -38.44264 -38.43999 -38.43787 -38.43712
  Beta  occ. eigenvalues --  -38.43583 -38.43230  -2.21211  -2.20175  -2.19851
  Beta  occ. eigenvalues --   -2.19663  -2.19592  -2.19384  -2.19070  -1.14944
  Beta  occ. eigenvalues --   -1.14899  -1.14792  -1.13940  -1.13839  -1.13799
  Beta  occ. eigenvalues --   -1.13556  -1.13528  -1.13496  -1.13386  -1.13307
  Beta  occ. eigenvalues --   -1.13294  -1.13269  -1.13251  -1.13223  -1.13078
  Beta  occ. eigenvalues --   -1.13046  -1.13020  -1.12739  -1.12717  -1.12705
  Beta  occ. eigenvalues --   -0.17408  -0.14258  -0.11116
  Beta virt. eigenvalues --   -0.07045  -0.06843  -0.04948  -0.04265  -0.03026
  Beta virt. eigenvalues --   -0.02695  -0.01818  -0.01595  -0.01435  -0.00628
  Beta virt. eigenvalues --   -0.00276  -0.00215   0.00321   0.00499   0.00693

 Mulliken charges and spin densities:
               1          2
     1  Na  -0.040729   0.288277
     2  Na   0.206224   0.161073
     3  Na   0.483475   0.032520
     4  Na   0.493138  -0.062420
     5  Na   0.008503  -0.019435
     6  Na  -1.087946   0.403458
     7  Na  -0.062664   0.196528
 Sum of Mulliken charges =  -0.00000   1.00000

 Dipole moment (field-independent basis, Debye):
    X=             -0.6298    Y=              0.5738    Z=              0.1972  Tot=              0.8745
 Quadrupole moment (field-independent basis, Debye-Ang):
   XX=            -67.3950   YY=            -69.3712   ZZ=            -65.8796
   XY=              2.7012   XZ=             -1.6709   YZ=              0.9264

 Normal termination of Gaussian 16 at Tue Dec  5 22:56:07 2023.
