 Gaussian 16, Revision B.01,
 Gaussian 16:  ES64L-G16RevB.01 20-Dec-2017

 -------------------------
 #P B3LYP/6-311+g(d) force
 -------------------------

 -----
 DPGEN
 -----
 Symbolic Z-matrix:
 Charge =  0 Multiplicity = 2

                         Standard orientation:
 ---------------------------------------------------------------------
 Center     Atomic      Atomic             Coordinates (Angstroms)
 Number     Number       Type             X           Y           Z
 ---------------------------------------------------------------------
      1         11           0        1.593010   -1.682734    0.293959
      2         11           0        4.829316   -1.270305   -0.301165
      3         11           0        2.325619    1.072294   -1.270569
      4         11           0       -0.909976    2.410806   -0.755871
      5         11           0       -2.358515   -0.921576    0.725602
      6         11           0        0.183142    1.464106    2.116318
      7         11           0       -5.662595   -1.072591   -0.808275
 ---------------------------------------------------------------------

 SCF Done:  E(UB3LYP) =  -1136.11682503     A.U. after   21 cycles

 The electronic state is 2-A.
 Alpha  occ. eigenvalues --  -38.44883 -38.44876 -38.44735 -38.44477 -38.44306
 Alpha  occ. eigenvalues --  -38.43466 -38.43141  -2.20711  -2.20676  -2.20585
 Alpha  occ. eigenvalues --   -2.20334  -2.20142  -2.19227  -2.18919  -1.14395
 Alpha  occ. eigenvalues --   -1.14359  -1.14352  -1.14347  -1.14341  -1.14321
 Alpha  occ. eigenvalues --   -1.14298  -1.14253  -1.14162  -1.14042  -1.14004
 Alpha  occ. eigenvalues --   -1.13909  -1.13811  -1.13786  -1.13759  -1.12883
 Alpha  occ. eigenvalues --   -1.12883  -1.12842  -1.12629  -1.12613  -1.12533
 Alpha  occ. eigenvalues --   -0.17598  -0.13745  -0.11731  -0.10824
 Alpha virt. eigenvalues --   -0.06832  -0.05907  -0.04849  -0.03217  -0.03060
 Alpha virt. eigenvalues --   -0.02258  -0.02136  -0.01671  -0.01311  -0.00606
 Alpha virt. eigenvalues --   -0.00343  -0.00066   0.00264   0.00353   0.00468

  Beta  occ. eigenvalues --  -38.44873 -38.44861 -38.44702 -38.44435 -38.44275
  Beta  occ. eigenvalues --  -38.43412 -38.43147  -2.20672  -2.20671  -2.20525
  Beta  occ. eigenvalues --   -2.20256  -2.20085  -2.19125  -2.18937  -1.14370
  Beta  occ. eigenvalues --   -1.14342  -1.14338  -1.14336  -1.14311  -1.14301
  Beta  occ. eigenvalues --   -1.14259  -1.14215  -1.14108  -1.13991  -1.13950
  Beta  occ. eigenvalues --   -1.13846  -1.13771  -1.13748  -1.13716  -1.12814
  Beta  occ. eigenvalues --   -1.12813  -1.12777  -1.12646  -1.12629  -1.12508
  Beta  occ. eigenvalues --   -0.17024  -0.13605  -0.11120
  Beta virt. eigenvalues --   -0.07442  -0.06592  -0.05579  -0.04362  -0.03053
  Beta virt. eigenvalues --   -0.02747  -0.02139  -0.01640  -0.01484  -0.00898
  Beta virt. eigenvalues --   -0.00384  -0.00211   0.00117   0.00378   0.00461

 Mulliken charges and spin densities:
               1          2
     1  Na  -0.197321   0.174813
     2  Na   0.629691   0.041031
     3  Na  -0.209246   0.235246
     4  Na   0.173054   0.196481
     5  Na  -0.729353  -0.135998
     6  Na   0.282832   0.182912
     7  Na   0.050343   0.305515
 Sum of Mulliken charges =  -0.00000   1.00000

 Dipole moment (field-independent basis, Debye):
    X=              3.2579    Y=              0.8386    Z=              0.5343  Tot=              3.4063
 Quadrupole moment (field-independent basis, Debye-Ang):
   XX=            -60.2947   YY=            -71.2721   ZZ=            -67.9475
   XY=             -7.3175   XZ=              3.2393   YZ=              2.5261

 Normal termination of Gaussian 16 at Tue Nov 28 22:54:27 2023.
