 Gaussian 16, Revision B.01,
 Gaussian 16:  ES64L-G16RevB.01 20-Dec-2017

 -------------------------
 #P B3LYP/6-311+g(d) force
 -------------------------

 -----
 DPGEN
 -----
 Symbolic Z-matrix:
 Charge =  0 Multiplicity = 2

                         Standard orientation:
 ---------------------------------------------------------------------
 Center     Atomic      Atomic             Coordinates (Angstroms)
 Number     Number       Type             X           Y           Z
 ---------------------------------------------------------------------
      1         11           0        1.698558    2.203532   -0.521725
      2         11           0       -0.090663   -0.006887    2.360003
      3         11           0       -3.283517   -1.040391   -0.767107
      4         11           0       -1.743856    2.362232    0.465526
      5         11           0        0.129647   -0.106893   -1.838028
      6         11           0        0.002874   -2.493060    0.413820
      7         11           0        3.286957   -0.918533   -0.112489
 ---------------------------------------------------------------------

 SCF Done:  E(UB3LYP) =  -1136.13129918     A.U. after   20 cycles

 The electronic state is 2-A.
 Alpha  occ. eigenvalues --  -38.44516 -38.44351 -38.44211 -38.44049 -38.43353
 Alpha  occ. eigenvalues --  -38.43203 -38.43035  -2.20386  -2.20124  -2.20005
 Alpha  occ. eigenvalues --   -2.19976  -2.19167  -2.19068  -2.18915  -1.14055
 Alpha  occ. eigenvalues --   -1.14006  -1.14000  -1.13798  -1.13772  -1.13757
 Alpha  occ. eigenvalues --   -1.13684  -1.13676  -1.13655  -1.13653  -1.13644
 Alpha  occ. eigenvalues --   -1.13571  -1.12856  -1.12825  -1.12804  -1.12782
 Alpha  occ. eigenvalues --   -1.12722  -1.12667  -1.12628  -1.12600  -1.12502
 Alpha  occ. eigenvalues --   -0.18286  -0.12763  -0.12025  -0.11602
 Alpha virt. eigenvalues --   -0.05934  -0.04959  -0.04078  -0.03434  -0.03228
 Alpha virt. eigenvalues --   -0.03139  -0.01872  -0.00970  -0.00279  -0.00024
 Alpha virt. eigenvalues --    0.00050   0.00304   0.00717   0.00766   0.00902

  Beta  occ. eigenvalues --  -38.44408 -38.44329 -38.44215 -38.43991 -38.43345
  Beta  occ. eigenvalues --  -38.43196 -38.43023  -2.20187  -2.20085  -2.20014
  Beta  occ. eigenvalues --   -2.19870  -2.19156  -2.19059  -2.18898  -1.13921
  Beta  occ. eigenvalues --   -1.13869  -1.13857  -1.13760  -1.13747  -1.13734
  Beta  occ. eigenvalues --   -1.13687  -1.13664  -1.13652  -1.13596  -1.13576
  Beta  occ. eigenvalues --   -1.13494  -1.12837  -1.12812  -1.12797  -1.12766
  Beta  occ. eigenvalues --   -1.12712  -1.12660  -1.12612  -1.12562  -1.12492
  Beta  occ. eigenvalues --   -0.17545  -0.12494  -0.11775
  Beta virt. eigenvalues --   -0.07688  -0.05817  -0.04893  -0.03954  -0.02754
  Beta virt. eigenvalues --   -0.02390  -0.02284  -0.01736  -0.00908  -0.00176
  Beta virt. eigenvalues --    0.00016   0.00045   0.00338   0.00827   0.00876

 Mulliken charges and spin densities:
               1          2
     1  Na   0.209776  -0.018523
     2  Na  -0.284124   0.461544
     3  Na   0.071805   0.050231
     4  Na  -0.022938   0.049464
     5  Na  -0.246008   0.475191
     6  Na   0.212551   0.072828
     7  Na   0.058939  -0.090735
 Sum of Mulliken charges =  -0.00000   1.00000

 Dipole moment (field-independent basis, Debye):
    X=              0.0363    Y=             -0.1255    Z=              0.0983  Tot=              0.1635
 Quadrupole moment (field-independent basis, Debye-Ang):
   XX=            -55.0645   YY=            -70.0489   ZZ=            -69.6914
   XY=             -0.6484   XZ=              1.3336   YZ=              0.6634

 Normal termination of Gaussian 16 at Tue Dec  5 15:13:14 2023.
