 Gaussian 16, Revision B.01,
 Gaussian 16:  ES64L-G16RevB.01 20-Dec-2017

 -------------------------
 #P B3LYP/6-311+g(d) force
 -------------------------

 -----
 DPGEN
 -----
 Symbolic Z-matrix:
 Charge =  0 Multiplicity = 2

                         Standard orientation:
 ---------------------------------------------------------------------
 Center     Atomic      Atomic             Coordinates (Angstroms)
 Number     Number       Type             X           Y           Z
 ---------------------------------------------------------------------
      1         11           0        0.237491   -0.651158   -0.934876
      2         11           0       -1.740069   -1.586405    1.495201
      3         11           0       -3.536084   -0.526837   -1.681676
      4         11           0       -1.884304    1.757620    0.648733
      5         11           0        1.723036   -0.895938    1.731013
      6         11           0        1.384137    2.826676    0.033388
      7         11           0        3.815793   -0.923957   -1.291782
 ---------------------------------------------------------------------

 SCF Done:  E(UB3LYP) =  -1136.12423433     A.U. after   23 cycles

 The electronic state is 2-A.
 Alpha  occ. eigenvalues --  -38.44669 -38.44627 -38.44348 -38.44085 -38.43811
 Alpha  occ. eigenvalues --  -38.43319 -38.42523  -2.20471  -2.20414  -2.20210
 Alpha  occ. eigenvalues --   -2.20018  -2.19689  -2.19166  -2.18311  -1.14133
 Alpha  occ. eigenvalues --   -1.14117  -1.14081  -1.14075  -1.14057  -1.14029
 Alpha  occ. eigenvalues --   -1.13987  -1.13837  -1.13825  -1.13743  -1.13654
 Alpha  occ. eigenvalues --   -1.13625  -1.13372  -1.13356  -1.13288  -1.12860
 Alpha  occ. eigenvalues --   -1.12849  -1.12771  -1.11992  -1.11969  -1.11950
 Alpha  occ. eigenvalues --   -0.18049  -0.13728  -0.11415  -0.10956
 Alpha virt. eigenvalues --   -0.06156  -0.05649  -0.04662  -0.03202  -0.02585
 Alpha virt. eigenvalues --   -0.02392  -0.02190  -0.01285  -0.00773  -0.00297
 Alpha virt. eigenvalues --    0.00048   0.00174   0.00265   0.00495   0.00624

  Beta  occ. eigenvalues --  -38.44604 -38.44578 -38.44316 -38.44077 -38.43771
  Beta  occ. eigenvalues --  -38.43317 -38.42527  -2.20350  -2.20321  -2.20155
  Beta  occ. eigenvalues --   -2.20007  -2.19619  -2.19164  -2.18319  -1.14047
  Beta  occ. eigenvalues --   -1.14032  -1.14014  -1.13999  -1.13993  -1.13974
  Beta  occ. eigenvalues --   -1.13950  -1.13803  -1.13755  -1.13700  -1.13651
  Beta  occ. eigenvalues --   -1.13621  -1.13324  -1.13312  -1.13215  -1.12852
  Beta  occ. eigenvalues --   -1.12840  -1.12770  -1.11995  -1.11975  -1.11954
  Beta  occ. eigenvalues --   -0.17411  -0.13283  -0.10853
  Beta virt. eigenvalues --   -0.07708  -0.05857  -0.05009  -0.04574  -0.03045
  Beta virt. eigenvalues --   -0.02147  -0.01896  -0.01773  -0.00862  -0.00674
  Beta virt. eigenvalues --   -0.00081   0.00188   0.00325   0.00381   0.00559

 Mulliken charges and spin densities:
               1          2
     1  Na  -2.163166   0.091984
     2  Na   0.303141   0.156262
     3  Na   0.896707   0.234821
     4  Na  -0.107097   0.156977
     5  Na   0.332932   0.179003
     6  Na  -0.116241  -0.079842
     7  Na   0.853725   0.260794
 Sum of Mulliken charges =  -0.00000   1.00000

 Dipole moment (field-independent basis, Debye):
    X=              0.0484    Y=             -0.7059    Z=             -0.0668  Tot=              0.7107
 Quadrupole moment (field-independent basis, Debye-Ang):
   XX=            -51.1355   YY=            -78.8226   ZZ=            -63.7955
   XY=              0.9092   XZ=             -0.0862   YZ=              0.0408

 Normal termination of Gaussian 16 at Tue Dec  5 19:05:32 2023.
