 Gaussian 16, Revision B.01,
 Gaussian 16:  ES64L-G16RevB.01 20-Dec-2017

 -------------------------
 #P B3LYP/6-311+g(d) force
 -------------------------

 -----
 DPGEN
 -----
 Symbolic Z-matrix:
 Charge =  0 Multiplicity = 2

                         Standard orientation:
 ---------------------------------------------------------------------
 Center     Atomic      Atomic             Coordinates (Angstroms)
 Number     Number       Type             X           Y           Z
 ---------------------------------------------------------------------
      1         11           0       -1.819346   -2.082555   -0.709030
      2         11           0        1.663030   -1.963965   -0.921746
      3         11           0        3.211582    2.083305    0.232131
      4         11           0        4.900859   -0.772081    0.967687
      5         11           0       -4.317928   -1.126788    1.355156
      6         11           0       -0.280784    1.518424   -0.811452
      7         11           0       -3.357414    2.343661   -0.112745
 ---------------------------------------------------------------------

 SCF Done:  E(UB3LYP) =  -1136.11314811     A.U. after   24 cycles

 The electronic state is 2-A.
 Alpha  occ. eigenvalues --  -38.45203 -38.45155 -38.44953 -38.44438 -38.44119
 Alpha  occ. eigenvalues --  -38.43509 -38.43344  -2.20965  -2.20944  -2.20748
 Alpha  occ. eigenvalues --   -2.20204  -2.19903  -2.19336  -2.19144  -1.14651
 Alpha  occ. eigenvalues --   -1.14635  -1.14628  -1.14598  -1.14580  -1.14544
 Alpha  occ. eigenvalues --   -1.14399  -1.14389  -1.14365  -1.13890  -1.13881
 Alpha  occ. eigenvalues --   -1.13841  -1.13584  -1.13574  -1.13516  -1.13013
 Alpha  occ. eigenvalues --   -1.12986  -1.12964  -1.12832  -1.12819  -1.12789
 Alpha  occ. eigenvalues --   -0.16454  -0.14371  -0.11545  -0.11374
 Alpha virt. eigenvalues --   -0.07300  -0.05339  -0.04196  -0.03828  -0.03308
 Alpha virt. eigenvalues --   -0.02464  -0.02279  -0.01629  -0.00880  -0.00790
 Alpha virt. eigenvalues --   -0.00280  -0.00036   0.00149   0.00234   0.00500

  Beta  occ. eigenvalues --  -38.45200 -38.45096 -38.44875 -38.44451 -38.44083
  Beta  occ. eigenvalues --  -38.43463 -38.43343  -2.20963  -2.20833  -2.20602
  Beta  occ. eigenvalues --   -2.20229  -2.19839  -2.19251  -2.19148  -1.14652
  Beta  occ. eigenvalues --   -1.14629  -1.14596  -1.14523  -1.14504  -1.14483
  Beta  occ. eigenvalues --   -1.14298  -1.14295  -1.14264  -1.13905  -1.13900
  Beta  occ. eigenvalues --   -1.13847  -1.13543  -1.13523  -1.13464  -1.12955
  Beta  occ. eigenvalues --   -1.12938  -1.12899  -1.12839  -1.12821  -1.12755
  Beta  occ. eigenvalues --   -0.15781  -0.13687  -0.11195
  Beta virt. eigenvalues --   -0.08120  -0.07169  -0.04743  -0.03885  -0.03540
  Beta virt. eigenvalues --   -0.02962  -0.02213  -0.01718  -0.01399  -0.00854
  Beta virt. eigenvalues --   -0.00639  -0.00022   0.00017   0.00285   0.00381

 Mulliken charges and spin densities:
               1          2
     1  Na  -0.530887  -0.071248
     2  Na   0.252151   0.088030
     3  Na   0.455843   0.056172
     4  Na   0.090612   0.344927
     5  Na   0.464518   0.398392
     6  Na  -0.946138   0.130359
     7  Na   0.213902   0.053369
 Sum of Mulliken charges =  -0.00000   1.00000

 Dipole moment (field-independent basis, Debye):
    X=              0.7967    Y=              0.1224    Z=              0.8719  Tot=              1.1874
 Quadrupole moment (field-independent basis, Debye-Ang):
   XX=            -50.8113   YY=            -71.9612   ZZ=            -70.2510
   XY=             -3.1742   XZ=             -0.8836   YZ=             -1.0378

 Normal termination of Gaussian 16 at Sun Dec  3 22:33:34 2023.
