 Gaussian 16, Revision B.01,
 Gaussian 16:  ES64L-G16RevB.01 20-Dec-2017

 -------------------------
 #P B3LYP/6-311+g(d) force
 -------------------------

 -----
 DPGEN
 -----
 Symbolic Z-matrix:
 Charge =  0 Multiplicity = 2

                         Standard orientation:
 ---------------------------------------------------------------------
 Center     Atomic      Atomic             Coordinates (Angstroms)
 Number     Number       Type             X           Y           Z
 ---------------------------------------------------------------------
      1         11           0       -0.828007   -2.432993   -0.435840
      2         11           0       -2.375198    1.655216   -1.030057
      3         11           0        1.307358    0.936494   -1.112376
      4         11           0       -0.861684    2.974817    1.572237
      5         11           0       -3.737048   -1.722677    0.287432
      6         11           0        3.912585    0.346497   -0.585981
      7         11           0        2.581993   -1.757355    1.304585
 ---------------------------------------------------------------------

 SCF Done:  E(UB3LYP) =  -1136.10938102     A.U. after   23 cycles

 The electronic state is 2-A.
 Alpha  occ. eigenvalues --  -38.44490 -38.44470 -38.44358 -38.44285 -38.44192
 Alpha  occ. eigenvalues --  -38.44023 -38.43816  -2.20411  -2.20290  -2.20263
 Alpha  occ. eigenvalues --   -2.20093  -2.19998  -2.19820  -2.19666  -1.14386
 Alpha  occ. eigenvalues --   -1.14038  -1.14021  -1.13989  -1.13962  -1.13911
 Alpha  occ. eigenvalues --   -1.13899  -1.13884  -1.13828  -1.13759  -1.13747
 Alpha  occ. eigenvalues --   -1.13733  -1.13674  -1.13662  -1.13585  -1.13478
 Alpha  occ. eigenvalues --   -1.13470  -1.13435  -1.13318  -1.13307  -1.13291
 Alpha  occ. eigenvalues --   -0.17135  -0.14132  -0.12479  -0.10036
 Alpha virt. eigenvalues --   -0.06927  -0.06000  -0.04225  -0.03386  -0.03079
 Alpha virt. eigenvalues --   -0.02619  -0.01842  -0.01714  -0.00728  -0.00453
 Alpha virt. eigenvalues --   -0.00277  -0.00032   0.00281   0.00498   0.00612

  Beta  occ. eigenvalues --  -38.44497 -38.44432 -38.44315 -38.44280 -38.44188
  Beta  occ. eigenvalues --  -38.43979 -38.43751  -2.20346  -2.20303  -2.20189
  Beta  occ. eigenvalues --   -2.20082  -2.19994  -2.19737  -2.19545  -1.14325
  Beta  occ. eigenvalues --   -1.13994  -1.13980  -1.13974  -1.13971  -1.13912
  Beta  occ. eigenvalues --   -1.13852  -1.13826  -1.13815  -1.13738  -1.13725
  Beta  occ. eigenvalues --   -1.13706  -1.13673  -1.13657  -1.13565  -1.13420
  Beta  occ. eigenvalues --   -1.13413  -1.13383  -1.13234  -1.13222  -1.13212
  Beta  occ. eigenvalues --   -0.16702  -0.13825  -0.12099
  Beta virt. eigenvalues --   -0.06733  -0.06568  -0.05611  -0.03936  -0.03189
  Beta virt. eigenvalues --   -0.02770  -0.02338  -0.01534  -0.01314  -0.00516
  Beta virt. eigenvalues --   -0.00329   0.00008   0.00155   0.00454   0.00608

 Mulliken charges and spin densities:
               1          2
     1  Na  -0.455503   0.045326
     2  Na   0.784591   0.240006
     3  Na  -0.502955   0.496285
     4  Na  -0.210963   0.146954
     5  Na   0.223523  -0.024033
     6  Na   0.194243  -0.349294
     7  Na  -0.032936   0.444755
 Sum of Mulliken charges =  -0.00000   1.00000

 Dipole moment (field-independent basis, Debye):
    X=             -0.4931    Y=              0.3066    Z=              0.4574  Tot=              0.7392
 Quadrupole moment (field-independent basis, Debye-Ang):
   XX=            -55.4258   YY=            -75.7893   ZZ=            -69.0799
   XY=             -1.3037   XZ=              1.7490   YZ=              2.3342

 Normal termination of Gaussian 16 at Sun Dec  3 16:16:22 2023.
