 Gaussian 16, Revision B.01,
 Gaussian 16:  ES64L-G16RevB.01 20-Dec-2017

 -------------------------
 #P B3LYP/6-311+g(d) force
 -------------------------

 -----
 DPGEN
 -----
 Symbolic Z-matrix:
 Charge =  0 Multiplicity = 2

                         Standard orientation:
 ---------------------------------------------------------------------
 Center     Atomic      Atomic             Coordinates (Angstroms)
 Number     Number       Type             X           Y           Z
 ---------------------------------------------------------------------
      1         11           0       -3.334148   -0.486106    0.141355
      2         11           0        0.223673    0.058944   -1.742589
      3         11           0        3.169646   -1.443965    0.297099
      4         11           0        2.183503    2.079939   -0.252314
      5         11           0        0.052790   -0.034759    2.003179
      6         11           0       -0.808402   -2.734240   -0.441704
      7         11           0       -1.487062    2.560187   -0.005027
 ---------------------------------------------------------------------

 SCF Done:  E(UB3LYP) =  -1136.13521185     A.U. after   20 cycles

 The electronic state is 2-A.
 Alpha  occ. eigenvalues --  -38.44442 -38.44368 -38.43864 -38.43795 -38.43336
 Alpha  occ. eigenvalues --  -38.43293 -38.43253  -2.20209  -2.20169  -2.19725
 Alpha  occ. eigenvalues --   -2.19639  -2.19282  -2.19134  -2.19085  -1.13882
 Alpha  occ. eigenvalues --   -1.13864  -1.13851  -1.13842  -1.13822  -1.13820
 Alpha  occ. eigenvalues --   -1.13403  -1.13363  -1.13356  -1.13335  -1.13296
 Alpha  occ. eigenvalues --   -1.13252  -1.12972  -1.12942  -1.12898  -1.12805
 Alpha  occ. eigenvalues --   -1.12791  -1.12761  -1.12755  -1.12752  -1.12716
 Alpha  occ. eigenvalues --   -0.18286  -0.13045  -0.12117  -0.10690
 Alpha virt. eigenvalues --   -0.06086  -0.05369  -0.04398  -0.03228  -0.02796
 Alpha virt. eigenvalues --   -0.02575  -0.01889  -0.01250  -0.00472  -0.00346
 Alpha virt. eigenvalues --   -0.00050   0.00322   0.00713   0.00820   0.00841

  Beta  occ. eigenvalues --  -38.44437 -38.44369 -38.43786 -38.43781 -38.43280
  Beta  occ. eigenvalues --  -38.43262 -38.43250  -2.20203  -2.20172  -2.19627
  Beta  occ. eigenvalues --   -2.19570  -2.19147  -2.19114  -2.19084  -1.13864
  Beta  occ. eigenvalues --   -1.13860  -1.13848  -1.13838  -1.13823  -1.13816
  Beta  occ. eigenvalues --   -1.13339  -1.13299  -1.13278  -1.13251  -1.13245
  Beta  occ. eigenvalues --   -1.13219  -1.12891  -1.12854  -1.12811  -1.12772
  Beta  occ. eigenvalues --   -1.12758  -1.12747  -1.12742  -1.12741  -1.12708
  Beta  occ. eigenvalues --   -0.17565  -0.12839  -0.11857
  Beta virt. eigenvalues --   -0.06847  -0.05971  -0.05368  -0.04351  -0.02513
  Beta virt. eigenvalues --   -0.02059  -0.01756  -0.01532  -0.01193  -0.00504
  Beta virt. eigenvalues --   -0.00380   0.00089   0.00346   0.00779   0.00829

 Mulliken charges and spin densities:
               1          2
     1  Na   0.027152  -0.043739
     2  Na   0.012402   0.519874
     3  Na  -0.007136  -0.039956
     4  Na   0.223911  -0.073284
     5  Na  -0.394976   0.803203
     6  Na   0.107901  -0.072468
     7  Na   0.030746  -0.093631
 Sum of Mulliken charges =  -0.00000   1.00000

 Dipole moment (field-independent basis, Debye):
    X=              0.1511    Y=             -0.0722    Z=              0.1958  Tot=              0.2576
 Quadrupole moment (field-independent basis, Debye-Ang):
   XX=            -52.9340   YY=            -65.1347   ZZ=            -74.8066
   XY=             -0.5747   XZ=              0.1001   YZ=             -0.1111

 Normal termination of Gaussian 16 at Thu Dec  7 03:08:09 2023.
