 Gaussian 16, Revision B.01,
 Gaussian 16:  ES64L-G16RevB.01 20-Dec-2017

 -------------------------
 #P B3LYP/6-311+g(d) force
 -------------------------

 -----
 DPGEN
 -----
 Symbolic Z-matrix:
 Charge =  0 Multiplicity = 2

                         Standard orientation:
 ---------------------------------------------------------------------
 Center     Atomic      Atomic             Coordinates (Angstroms)
 Number     Number       Type             X           Y           Z
 ---------------------------------------------------------------------
      1         11           0        3.152379   -2.438048   -0.365934
      2         11           0        4.748982    0.102108   -0.539322
      3         11           0        2.029503    1.812650    0.883798
      4         11           0       -0.677381    2.307027   -1.031769
      5         11           0        0.024144   -0.825706    0.809872
      6         11           0       -3.609302   -0.158227    1.254038
      7         11           0       -5.668324   -0.799804   -1.010682
 ---------------------------------------------------------------------

 SCF Done:  E(UB3LYP) =  -1136.11275652     A.U. after   21 cycles

 The electronic state is 2-A.
 Alpha  occ. eigenvalues --  -38.45010 -38.44345 -38.44159 -38.44074 -38.43923
 Alpha  occ. eigenvalues --  -38.43906 -38.43887  -2.20789  -2.20199  -2.20019
 Alpha  occ. eigenvalues --   -2.19903  -2.19772  -2.19708  -2.19685  -1.14468
 Alpha  occ. eigenvalues --   -1.14441  -1.14420  -1.13902  -1.13867  -1.13808
 Alpha  occ. eigenvalues --   -1.13701  -1.13667  -1.13658  -1.13611  -1.13563
 Alpha  occ. eigenvalues --   -1.13539  -1.13447  -1.13418  -1.13408  -1.13384
 Alpha  occ. eigenvalues --   -1.13366  -1.13363  -1.13330  -1.13328  -1.13262
 Alpha  occ. eigenvalues --   -0.16979  -0.13903  -0.11940  -0.10837
 Alpha virt. eigenvalues --   -0.06731  -0.05996  -0.04240  -0.03395  -0.02998
 Alpha virt. eigenvalues --   -0.02658  -0.02077  -0.01707  -0.00871  -0.00464
 Alpha virt. eigenvalues --   -0.00350  -0.00246   0.00224   0.00432   0.00503

  Beta  occ. eigenvalues --  -38.45003 -38.44315 -38.44081 -38.44060 -38.43912
  Beta  occ. eigenvalues --  -38.43892 -38.43854  -2.20776  -2.20147  -2.19880
  Beta  occ. eigenvalues --   -2.19874  -2.19723  -2.19713  -2.19623  -1.14459
  Beta  occ. eigenvalues --   -1.14427  -1.14411  -1.13849  -1.13834  -1.13766
  Beta  occ. eigenvalues --   -1.13634  -1.13607  -1.13577  -1.13548  -1.13519
  Beta  occ. eigenvalues --   -1.13493  -1.13434  -1.13392  -1.13378  -1.13366
  Beta  occ. eigenvalues --   -1.13363  -1.13331  -1.13289  -1.13286  -1.13235
  Beta  occ. eigenvalues --   -0.16334  -0.13646  -0.11694
  Beta virt. eigenvalues --   -0.07372  -0.06410  -0.05451  -0.03946  -0.03135
  Beta virt. eigenvalues --   -0.02604  -0.02433  -0.01727  -0.01437  -0.00730
  Beta virt. eigenvalues --   -0.00359  -0.00122   0.00004   0.00352   0.00498

 Mulliken charges and spin densities:
               1          2
     1  Na   1.444999  -0.148336
     2  Na  -0.698662   0.074666
     3  Na   0.835596   0.466380
     4  Na   0.247457  -0.044775
     5  Na  -1.580857   0.502847
     6  Na  -0.386251  -0.008883
     7  Na   0.137718   0.158101
 Sum of Mulliken charges =  -0.00000   1.00000

 Dipole moment (field-independent basis, Debye):
    X=              0.2449    Y=              0.7656    Z=             -0.7770  Tot=              1.1179
 Quadrupole moment (field-independent basis, Debye-Ang):
   XX=            -71.3935   YY=            -69.5210   ZZ=            -63.5406
   XY=             -1.1157   XZ=              4.6133   YZ=              0.4230

 Normal termination of Gaussian 16 at Wed Nov 29 01:03:17 2023.
