 Gaussian 16, Revision B.01,
 Gaussian 16:  ES64L-G16RevB.01 20-Dec-2017

 -------------------------
 #P B3LYP/6-311+g(d) force
 -------------------------

 -----
 DPGEN
 -----
 Symbolic Z-matrix:
 Charge =  0 Multiplicity = 2

                         Standard orientation:
 ---------------------------------------------------------------------
 Center     Atomic      Atomic             Coordinates (Angstroms)
 Number     Number       Type             X           Y           Z
 ---------------------------------------------------------------------
      1         11           0       -2.697515   -1.961878    0.507947
      2         11           0       -3.388108    1.303246    0.304907
      3         11           0        0.633177   -0.179123    1.746674
      4         11           0        3.958882    0.146959    0.489943
      5         11           0        0.826766    2.593317   -0.434356
      6         11           0        1.603106   -2.075457   -1.075746
      7         11           0       -0.936307    0.172935   -1.539369
 ---------------------------------------------------------------------

 SCF Done:  E(UB3LYP) =  -1136.12178715     A.U. after   22 cycles

 The electronic state is 2-A.
 Alpha  occ. eigenvalues --  -38.45165 -38.45049 -38.44896 -38.43713 -38.43434
 Alpha  occ. eigenvalues --  -38.42951 -38.42685  -2.20947  -2.20881  -2.20712
 Alpha  occ. eigenvalues --   -2.19534  -2.19271  -2.18936  -2.18515  -1.14620
 Alpha  occ. eigenvalues --   -1.14591  -1.14585  -1.14574  -1.14526  -1.14494
 Alpha  occ. eigenvalues --   -1.14400  -1.14364  -1.14333  -1.13209  -1.13199
 Alpha  occ. eigenvalues --   -1.13171  -1.12954  -1.12923  -1.12895  -1.12633
 Alpha  occ. eigenvalues --   -1.12585  -1.12554  -1.12204  -1.12186  -1.12125
 Alpha  occ. eigenvalues --   -0.18057  -0.13903  -0.11175  -0.10665
 Alpha virt. eigenvalues --   -0.07075  -0.05323  -0.04231  -0.03204  -0.02850
 Alpha virt. eigenvalues --   -0.02449  -0.02147  -0.01316  -0.00759  -0.00315
 Alpha virt. eigenvalues --    0.00010   0.00109   0.00372   0.00628   0.00736

  Beta  occ. eigenvalues --  -38.45138 -38.45023 -38.44879 -38.43703 -38.43393
  Beta  occ. eigenvalues --  -38.42885 -38.42677  -2.20897  -2.20833  -2.20682
  Beta  occ. eigenvalues --   -2.19518  -2.19198  -2.18817  -2.18504  -1.14576
  Beta  occ. eigenvalues --   -1.14560  -1.14550  -1.14534  -1.14498  -1.14457
  Beta  occ. eigenvalues --   -1.14381  -1.14343  -1.14304  -1.13199  -1.13189
  Beta  occ. eigenvalues --   -1.13146  -1.12898  -1.12870  -1.12836  -1.12557
  Beta  occ. eigenvalues --   -1.12492  -1.12460  -1.12194  -1.12165  -1.12116
  Beta  occ. eigenvalues --   -0.17436  -0.13532  -0.10923
  Beta virt. eigenvalues --   -0.07051  -0.06796  -0.05259  -0.03838  -0.02914
  Beta virt. eigenvalues --   -0.02579  -0.01889  -0.01398  -0.01211  -0.00629
  Beta virt. eigenvalues --   -0.00114   0.00024   0.00181   0.00521   0.00709

 Mulliken charges and spin densities:
               1          2
     1  Na  -0.066533   0.133625
     2  Na   0.086382   0.117088
     3  Na  -0.237452   0.413981
     4  Na   0.254709   0.190070
     5  Na  -0.397821  -0.189934
     6  Na  -0.249529  -0.034291
     7  Na   0.610244   0.369460
 Sum of Mulliken charges =  -0.00000   1.00000

 Dipole moment (field-independent basis, Debye):
    X=              0.2700    Y=              0.1142    Z=              0.4380  Tot=              0.5271
 Quadrupole moment (field-independent basis, Debye-Ang):
   XX=            -49.3615   YY=            -72.6548   ZZ=            -71.5015
   XY=             -1.1602   XZ=             -2.1885   YZ=              1.1291

 Normal termination of Gaussian 16 at Thu Dec  7 08:11:55 2023.
