 Gaussian 16, Revision B.01,
 Gaussian 16:  ES64L-G16RevB.01 20-Dec-2017

 -------------------------
 #P B3LYP/6-311+g(d) force
 -------------------------

 -----
 DPGEN
 -----
 Symbolic Z-matrix:
 Charge =  0 Multiplicity = 2

                         Standard orientation:
 ---------------------------------------------------------------------
 Center     Atomic      Atomic             Coordinates (Angstroms)
 Number     Number       Type             X           Y           Z
 ---------------------------------------------------------------------
      1         11           0        0.380388   -1.956572   -0.862846
      2         11           0        2.668367    0.699624   -0.068999
      3         11           0       -1.326326    1.314868   -0.664390
      4         11           0       -3.281182   -1.451429   -0.913612
      5         11           0       -2.714942   -0.024021    2.000345
      6         11           0        0.925617    3.695530   -0.147938
      7         11           0        3.348078   -2.277998    0.657440
 ---------------------------------------------------------------------

 SCF Done:  E(UB3LYP) =  -1136.12808770     A.U. after   20 cycles

 The electronic state is 2-A.
 Alpha  occ. eigenvalues --  -38.44506 -38.44095 -38.43911 -38.43848 -38.43778
 Alpha  occ. eigenvalues --  -38.43705 -38.43243  -2.20351  -2.19952  -2.19759
 Alpha  occ. eigenvalues --   -2.19715  -2.19672  -2.19558  -2.19057  -1.14034
 Alpha  occ. eigenvalues --   -1.14006  -1.13992  -1.13649  -1.13644  -1.13584
 Alpha  occ. eigenvalues --   -1.13461  -1.13444  -1.13424  -1.13370  -1.13354
 Alpha  occ. eigenvalues --   -1.13344  -1.13339  -1.13324  -1.13261  -1.13218
 Alpha  occ. eigenvalues --   -1.13201  -1.13173  -1.12726  -1.12712  -1.12696
 Alpha  occ. eigenvalues --   -0.17505  -0.14210  -0.12465  -0.10240
 Alpha virt. eigenvalues --   -0.06040  -0.05424  -0.05111  -0.03663  -0.02376
 Alpha virt. eigenvalues --   -0.02171  -0.01948  -0.01389  -0.01065  -0.00406
 Alpha virt. eigenvalues --   -0.00174   0.00180   0.00442   0.00591   0.00658

  Beta  occ. eigenvalues --  -38.44493 -38.44090 -38.43872 -38.43765 -38.43753
  Beta  occ. eigenvalues --  -38.43687 -38.43245  -2.20332  -2.19943  -2.19690
  Beta  occ. eigenvalues --   -2.19652  -2.19537  -2.19524  -2.19062  -1.14025
  Beta  occ. eigenvalues --   -1.13996  -1.13937  -1.13641  -1.13636  -1.13570
  Beta  occ. eigenvalues --   -1.13417  -1.13398  -1.13379  -1.13325  -1.13297
  Beta  occ. eigenvalues --   -1.13281  -1.13225  -1.13218  -1.13198  -1.13189
  Beta  occ. eigenvalues --   -1.13177  -1.13151  -1.12730  -1.12715  -1.12699
  Beta  occ. eigenvalues --   -0.16942  -0.13820  -0.12328
  Beta virt. eigenvalues --   -0.06485  -0.05827  -0.05183  -0.04969  -0.03208
  Beta virt. eigenvalues --   -0.02077  -0.01888  -0.01496  -0.01170  -0.00992
  Beta virt. eigenvalues --   -0.00201   0.00174   0.00300   0.00679   0.00730

 Mulliken charges and spin densities:
               1          2
     1  Na  -0.588307   0.083916
     2  Na  -0.746402   0.054065
     3  Na  -1.318993   0.389200
     4  Na   1.330911   0.138531
     5  Na  -0.169710   0.337104
     6  Na   0.604363  -0.093558
     7  Na   0.888138   0.090742
 Sum of Mulliken charges =  -0.00000   1.00000

 Dipole moment (field-independent basis, Debye):
    X=              0.0258    Y=             -0.6858    Z=             -0.0705  Tot=              0.6899
 Quadrupole moment (field-independent basis, Debye-Ang):
   XX=            -60.1790   YY=            -63.0523   ZZ=            -72.7294
   XY=              2.5948   XZ=              5.8178   YZ=             -1.0323

 Normal termination of Gaussian 16 at Wed Nov 29 01:36:04 2023.
