 Gaussian 16, Revision B.01,
 Gaussian 16:  ES64L-G16RevB.01 20-Dec-2017

 -------------------------
 #P B3LYP/6-311+g(d) force
 -------------------------

 -----
 DPGEN
 -----
 Symbolic Z-matrix:
 Charge =  0 Multiplicity = 2

                         Standard orientation:
 ---------------------------------------------------------------------
 Center     Atomic      Atomic             Coordinates (Angstroms)
 Number     Number       Type             X           Y           Z
 ---------------------------------------------------------------------
      1         11           0        3.122910   -1.701508   -1.016998
      2         11           0       -3.039789    1.015632   -0.670912
      3         11           0       -0.108573   -0.987468   -1.111940
      4         11           0       -2.739201   -2.116538    0.718599
      5         11           0       -0.509733    0.709776    1.570764
      6         11           0        2.766266    0.572531    1.561239
      7         11           0        0.508120    2.507574   -1.050753
 ---------------------------------------------------------------------

 SCF Done:  E(UB3LYP) =  -1136.12712463     A.U. after   22 cycles

 The electronic state is 2-A.
 Alpha  occ. eigenvalues --  -38.44879 -38.44243 -38.43656 -38.43610 -38.43537
 Alpha  occ. eigenvalues --  -38.43495 -38.43185  -2.20720  -2.20081  -2.19504
 Alpha  occ. eigenvalues --   -2.19468  -2.19445  -2.19438  -2.19020  -1.14413
 Alpha  occ. eigenvalues --   -1.14384  -1.14326  -1.13773  -1.13718  -1.13704
 Alpha  occ. eigenvalues --   -1.13271  -1.13167  -1.13151  -1.13141  -1.13118
 Alpha  occ. eigenvalues --   -1.13116  -1.13112  -1.13103  -1.13096  -1.13080
 Alpha  occ. eigenvalues --   -1.13069  -1.13015  -1.12701  -1.12672  -1.12645
 Alpha  occ. eigenvalues --   -0.18393  -0.13751  -0.11491  -0.11004
 Alpha virt. eigenvalues --   -0.06300  -0.05246  -0.04651  -0.03201  -0.02770
 Alpha virt. eigenvalues --   -0.02216  -0.02072  -0.01143  -0.00751  -0.00168
 Alpha virt. eigenvalues --    0.00206   0.00239   0.00412   0.00606   0.00739

  Beta  occ. eigenvalues --  -38.44867 -38.44198 -38.43636 -38.43599 -38.43487
  Beta  occ. eigenvalues --  -38.43457 -38.43167  -2.20701  -2.20000  -2.19433
  Beta  occ. eigenvalues --   -2.19426  -2.19415  -2.19371  -2.18989  -1.14394
  Beta  occ. eigenvalues --   -1.14372  -1.14306  -1.13704  -1.13667  -1.13645
  Beta  occ. eigenvalues --   -1.13217  -1.13130  -1.13109  -1.13093  -1.13088
  Beta  occ. eigenvalues --   -1.13086  -1.13082  -1.13072  -1.13055  -1.13029
  Beta  occ. eigenvalues --   -1.13017  -1.12970  -1.12678  -1.12647  -1.12616
  Beta  occ. eigenvalues --   -0.17759  -0.13476  -0.11181
  Beta virt. eigenvalues --   -0.07238  -0.06210  -0.05095  -0.04113  -0.02874
  Beta virt. eigenvalues --   -0.02182  -0.02098  -0.01409  -0.00968  -0.00425
  Beta virt. eigenvalues --   -0.00083   0.00231   0.00278   0.00511   0.00726

 Mulliken charges and spin densities:
               1          2
     1  Na   0.058145   0.047344
     2  Na   0.708219   0.089242
     3  Na  -0.932679   0.380518
     4  Na   0.445665  -0.052886
     5  Na  -0.127027   0.306353
     6  Na  -0.001466   0.105269
     7  Na  -0.150857   0.124161
 Sum of Mulliken charges =  -0.00000   1.00000

 Dipole moment (field-independent basis, Debye):
    X=             -0.6389    Y=              0.4641    Z=             -0.0428  Tot=              0.7909
 Quadrupole moment (field-independent basis, Debye-Ang):
   XX=            -51.3450   YY=            -71.1609   ZZ=            -70.4237
   XY=              0.5944   XZ=              1.1688   YZ=             -2.2696

 Normal termination of Gaussian 16 at Tue Dec  5 17:11:13 2023.
