 Gaussian 16, Revision B.01,
 Gaussian 16:  ES64L-G16RevB.01 20-Dec-2017

 -------------------------
 #P B3LYP/6-311+g(d) force
 -------------------------

 -----
 DPGEN
 -----
 Symbolic Z-matrix:
 Charge =  0 Multiplicity = 2

                         Standard orientation:
 ---------------------------------------------------------------------
 Center     Atomic      Atomic             Coordinates (Angstroms)
 Number     Number       Type             X           Y           Z
 ---------------------------------------------------------------------
      1         11           0        1.202761    1.806385    0.638230
      2         11           0        3.875633    0.201111   -1.148190
      3         11           0       -1.542764   -0.353757    1.737078
      4         11           0        1.806124   -1.519869    1.630309
      5         11           0       -0.047894   -0.302953   -1.570247
      6         11           0       -2.722598    2.197273   -0.216775
      7         11           0       -2.571261   -2.028190   -1.070406
 ---------------------------------------------------------------------

 SCF Done:  E(UB3LYP) =  -1136.12390385     A.U. after   26 cycles

 The electronic state is 2-A.
 Alpha  occ. eigenvalues --  -38.45073 -38.44505 -38.44083 -38.43987 -38.43516
 Alpha  occ. eigenvalues --  -38.43469 -38.43009  -2.20853  -2.20335  -2.19994
 Alpha  occ. eigenvalues --   -2.19888  -2.19330  -2.19303  -2.18856  -1.14517
 Alpha  occ. eigenvalues --   -1.14512  -1.14468  -1.14015  -1.13977  -1.13945
 Alpha  occ. eigenvalues --   -1.13699  -1.13655  -1.13617  -1.13582  -1.13540
 Alpha  occ. eigenvalues --   -1.13497  -1.13057  -1.13021  -1.12990  -1.12958
 Alpha  occ. eigenvalues --   -1.12932  -1.12901  -1.12545  -1.12500  -1.12482
 Alpha  occ. eigenvalues --   -0.18274  -0.13674  -0.11670  -0.10804
 Alpha virt. eigenvalues --   -0.06468  -0.05262  -0.04739  -0.03182  -0.02612
 Alpha virt. eigenvalues --   -0.02495  -0.02148  -0.01274  -0.00941  -0.00041
 Alpha virt. eigenvalues --    0.00127   0.00196   0.00300   0.00543   0.00670

  Beta  occ. eigenvalues --  -38.45043 -38.44439 -38.44042 -38.43943 -38.43516
  Beta  occ. eigenvalues --  -38.43459 -38.42999  -2.20797  -2.20215  -2.19921
  Beta  occ. eigenvalues --   -2.19810  -2.19318  -2.19304  -2.18837  -1.14476
  Beta  occ. eigenvalues --   -1.14468  -1.14434  -1.13924  -1.13897  -1.13854
  Beta  occ. eigenvalues --   -1.13643  -1.13601  -1.13565  -1.13524  -1.13470
  Beta  occ. eigenvalues --   -1.13444  -1.13052  -1.12988  -1.12977  -1.12956
  Beta  occ. eigenvalues --   -1.12932  -1.12898  -1.12522  -1.12492  -1.12469
  Beta  occ. eigenvalues --   -0.17532  -0.13430  -0.10631
  Beta virt. eigenvalues --   -0.07730  -0.06245  -0.05030  -0.04306  -0.02771
  Beta virt. eigenvalues --   -0.02225  -0.02012  -0.01759  -0.01008  -0.00647
  Beta virt. eigenvalues --    0.00108   0.00198   0.00212   0.00416   0.00581

 Mulliken charges and spin densities:
               1          2
     1  Na  -0.202855   0.174325
     2  Na   0.465335   0.119796
     3  Na   0.309832   0.109019
     4  Na  -0.120442   0.250679
     5  Na  -0.470821   0.357666
     6  Na  -0.042879  -0.051384
     7  Na   0.061829   0.039899
 Sum of Mulliken charges =  -0.00000   1.00000

 Dipole moment (field-independent basis, Debye):
    X=              1.1974    Y=             -0.0940    Z=             -0.0285  Tot=              1.2014
 Quadrupole moment (field-independent basis, Debye-Ang):
   XX=            -49.7320   YY=            -76.1345   ZZ=            -67.6516
   XY=             -0.9725   XZ=             -1.7012   YZ=             -3.7794

 Normal termination of Gaussian 16 at Tue Dec  5 22:48:29 2023.
