 Gaussian 16, Revision B.01,
 Gaussian 16:  ES64L-G16RevB.01 20-Dec-2017

 -------------------------
 #P B3LYP/6-311+g(d) force
 -------------------------

 -----
 DPGEN
 -----
 Symbolic Z-matrix:
 Charge =  0 Multiplicity = 2

                         Standard orientation:
 ---------------------------------------------------------------------
 Center     Atomic      Atomic             Coordinates (Angstroms)
 Number     Number       Type             X           Y           Z
 ---------------------------------------------------------------------
      1         11           0        4.002713    0.512104    0.486607
      2         11           0        2.080291   -1.973935   -0.722710
      3         11           0       -2.527359    1.900632   -0.037201
      4         11           0        1.165707    1.620847   -0.140841
      5         11           0       -3.667125   -1.260770    0.206684
      6         11           0       -0.394413   -0.677499    1.961854
      7         11           0       -0.659814   -0.121379   -1.754393
 ---------------------------------------------------------------------

 SCF Done:  E(UB3LYP) =  -1136.11155287     A.U. after   28 cycles

 The electronic state is 2-A.
 Alpha  occ. eigenvalues --  -38.45553 -38.45356 -38.44534 -38.43862 -38.43802
 Alpha  occ. eigenvalues --  -38.43450 -38.42630  -2.21334  -2.21191  -2.20333
 Alpha  occ. eigenvalues --   -2.19723  -2.19654  -2.19433  -2.18592  -1.15037
 Alpha  occ. eigenvalues --   -1.14999  -1.14944  -1.14868  -1.14839  -1.14811
 Alpha  occ. eigenvalues --   -1.14005  -1.14002  -1.13959  -1.13424  -1.13391
 Alpha  occ. eigenvalues --   -1.13344  -1.13332  -1.13300  -1.13291  -1.13168
 Alpha  occ. eigenvalues --   -1.13051  -1.13018  -1.12306  -1.12274  -1.12181
 Alpha  occ. eigenvalues --   -0.18606  -0.14461  -0.11100  -0.10590
 Alpha virt. eigenvalues --   -0.07804  -0.05517  -0.04112  -0.03313  -0.02969
 Alpha virt. eigenvalues --   -0.02333  -0.02170  -0.01489  -0.00872  -0.00407
 Alpha virt. eigenvalues --   -0.00140   0.00171   0.00301   0.00548   0.00638

  Beta  occ. eigenvalues --  -38.45543 -38.45318 -38.44524 -38.43863 -38.43758
  Beta  occ. eigenvalues --  -38.43368 -38.42609  -2.21315  -2.21121  -2.20315
  Beta  occ. eigenvalues --   -2.19728  -2.19576  -2.19283  -2.18561  -1.15024
  Beta  occ. eigenvalues --   -1.14976  -1.14930  -1.14820  -1.14784  -1.14766
  Beta  occ. eigenvalues --   -1.13996  -1.13981  -1.13949  -1.13423  -1.13391
  Beta  occ. eigenvalues --   -1.13336  -1.13267  -1.13252  -1.13223  -1.13069
  Beta  occ. eigenvalues --   -1.12950  -1.12901  -1.12282  -1.12218  -1.12162
  Beta  occ. eigenvalues --   -0.17942  -0.14117  -0.10453
  Beta virt. eigenvalues --   -0.07548  -0.07260  -0.05316  -0.03620  -0.03061
  Beta virt. eigenvalues --   -0.02757  -0.01917  -0.01466  -0.01288  -0.00544
  Beta virt. eigenvalues --   -0.00285  -0.00063   0.00215   0.00433   0.00611

 Mulliken charges and spin densities:
               1          2
     1  Na   0.480622   0.258431
     2  Na   0.050441   0.017741
     3  Na   0.152127   0.091999
     4  Na  -0.512642   0.042342
     5  Na   0.018017   0.015877
     6  Na  -0.342455   0.165784
     7  Na   0.153889   0.407826
 Sum of Mulliken charges =  -0.00000   1.00000

 Dipole moment (field-independent basis, Debye):
    X=              0.1380    Y=             -0.0417    Z=              0.1891  Tot=              0.2378
 Quadrupole moment (field-independent basis, Debye-Ang):
   XX=            -47.2205   YY=            -77.0181   ZZ=            -70.9399
   XY=             -2.1327   XZ=              2.5037   YZ=              4.7440

 Normal termination of Gaussian 16 at Thu Dec  7 03:19:13 2023.
