 Gaussian 16, Revision B.01,
 Gaussian 16:  ES64L-G16RevB.01 20-Dec-2017

 -------------------------
 #P B3LYP/6-311+g(d) force
 -------------------------

 -----
 DPGEN
 -----
 Symbolic Z-matrix:
 Charge =  0 Multiplicity = 2

                         Standard orientation:
 ---------------------------------------------------------------------
 Center     Atomic      Atomic             Coordinates (Angstroms)
 Number     Number       Type             X           Y           Z
 ---------------------------------------------------------------------
      1         11           0        3.972713   -0.821375   -0.576352
      2         11           0       -2.362489    2.363370   -0.698418
      3         11           0        0.813401    2.149547   -0.883599
      4         11           0       -2.180642   -1.841937   -1.455096
      5         11           0        2.186425    1.012415    1.888166
      6         11           0       -3.508547   -0.862402    1.701253
      7         11           0        1.079140   -1.999618    0.024045
 ---------------------------------------------------------------------

 SCF Done:  E(UB3LYP) =  -1136.11324540     A.U. after   23 cycles

 The electronic state is 2-A.
 Alpha  occ. eigenvalues --  -38.45664 -38.44730 -38.44184 -38.44163 -38.44162
 Alpha  occ. eigenvalues --  -38.43929 -38.43143  -2.21463  -2.20564  -2.19967
 Alpha  occ. eigenvalues --   -2.19946  -2.19931  -2.19763  -2.18985  -1.15145
 Alpha  occ. eigenvalues --   -1.15129  -1.15092  -1.14235  -1.14221  -1.14168
 Alpha  occ. eigenvalues --   -1.13647  -1.13631  -1.13612  -1.13604  -1.13600
 Alpha  occ. eigenvalues --   -1.13596  -1.13587  -1.13585  -1.13542  -1.13449
 Alpha  occ. eigenvalues --   -1.13434  -1.13382  -1.12667  -1.12646  -1.12622
 Alpha  occ. eigenvalues --   -0.17068  -0.13890  -0.11844  -0.10106
 Alpha virt. eigenvalues --   -0.07071  -0.05616  -0.05221  -0.03447  -0.02694
 Alpha virt. eigenvalues --   -0.02428  -0.02070  -0.01391  -0.00843  -0.00699
 Alpha virt. eigenvalues --   -0.00210  -0.00016   0.00109   0.00296   0.00453

  Beta  occ. eigenvalues --  -38.45670 -38.44678 -38.44169 -38.44164 -38.44079
  Beta  occ. eigenvalues --  -38.43906 -38.43132  -2.21475  -2.20466  -2.19943
  Beta  occ. eigenvalues --   -2.19935  -2.19790  -2.19723  -2.18967  -1.15148
  Beta  occ. eigenvalues --   -1.15136  -1.15092  -1.14166  -1.14156  -1.14102
  Beta  occ. eigenvalues --   -1.13624  -1.13613  -1.13610  -1.13595  -1.13578
  Beta  occ. eigenvalues --   -1.13570  -1.13491  -1.13483  -1.13452  -1.13409
  Beta  occ. eigenvalues --   -1.13406  -1.13355  -1.12657  -1.12623  -1.12602
  Beta  occ. eigenvalues --   -0.16657  -0.13463  -0.11495
  Beta virt. eigenvalues --   -0.06953  -0.06633  -0.05600  -0.04533  -0.03303
  Beta virt. eigenvalues --   -0.02402  -0.02076  -0.01506  -0.01302  -0.00614
  Beta virt. eigenvalues --   -0.00407  -0.00042   0.00112   0.00227   0.00432

 Mulliken charges and spin densities:
               1          2
     1  Na   0.630935  -0.127322
     2  Na  -0.051785   0.019972
     3  Na  -0.195969   0.065011
     4  Na   0.165497  -0.004856
     5  Na   0.241082   0.314617
     6  Na  -0.070437   0.474099
     7  Na  -0.719323   0.258479
 Sum of Mulliken charges =  -0.00000   1.00000

 Dipole moment (field-independent basis, Debye):
    X=              1.6902    Y=             -0.0895    Z=             -0.2434  Tot=              1.7100
 Quadrupole moment (field-independent basis, Debye-Ang):
   XX=            -52.9831   YY=            -77.9286   ZZ=            -67.7919
   XY=             -3.1291   XZ=             -0.6609   YZ=              1.1248

 Normal termination of Gaussian 16 at Mon Dec  4 04:33:42 2023.
