 Gaussian 16, Revision B.01,
 Gaussian 16:  ES64L-G16RevB.01 20-Dec-2017

 -------------------------
 #P B3LYP/6-311+g(d) force
 -------------------------

 -----
 DPGEN
 -----
 Symbolic Z-matrix:
 Charge =  0 Multiplicity = 2

                         Standard orientation:
 ---------------------------------------------------------------------
 Center     Atomic      Atomic             Coordinates (Angstroms)
 Number     Number       Type             X           Y           Z
 ---------------------------------------------------------------------
      1         11           0        2.614515    1.538039   -0.371443
      2         11           0        3.580784   -1.828950    0.593718
      3         11           0        0.319848   -0.750065   -1.691500
      4         11           0       -0.592136    2.757043   -0.640655
      5         11           0        0.131588   -0.040205    1.937257
      6         11           0       -3.346505    0.208018    1.222739
      7         11           0       -2.708096   -1.883879   -1.050116
 ---------------------------------------------------------------------

 SCF Done:  E(UB3LYP) =  -1136.12399775     A.U. after   23 cycles

 The electronic state is 2-A.
 Alpha  occ. eigenvalues --  -38.45146 -38.44590 -38.44363 -38.44194 -38.43878
 Alpha  occ. eigenvalues --  -38.43755 -38.42751  -2.20958  -2.20415  -2.20228
 Alpha  occ. eigenvalues --   -2.20040  -2.19723  -2.19522  -2.18562  -1.14648
 Alpha  occ. eigenvalues --   -1.14600  -1.14568  -1.14088  -1.14075  -1.14047
 Alpha  occ. eigenvalues --   -1.13919  -1.13874  -1.13847  -1.13737  -1.13711
 Alpha  occ. eigenvalues --   -1.13637  -1.13388  -1.13372  -1.13357  -1.13195
 Alpha  occ. eigenvalues --   -1.13190  -1.13151  -1.12236  -1.12217  -1.12210
 Alpha  occ. eigenvalues --   -0.17862  -0.13689  -0.11575  -0.11155
 Alpha virt. eigenvalues --   -0.06534  -0.05286  -0.04787  -0.03334  -0.02980
 Alpha virt. eigenvalues --   -0.02418  -0.02311  -0.01252  -0.00866  -0.00276
 Alpha virt. eigenvalues --    0.00130   0.00168   0.00320   0.00416   0.00694

  Beta  occ. eigenvalues --  -38.45084 -38.44565 -38.44290 -38.44188 -38.43852
  Beta  occ. eigenvalues --  -38.43752 -38.42749  -2.20844  -2.20370  -2.20096
  Beta  occ. eigenvalues --   -2.20031  -2.19676  -2.19517  -2.18560  -1.14571
  Beta  occ. eigenvalues --   -1.14524  -1.14474  -1.14060  -1.14035  -1.14016
  Beta  occ. eigenvalues --   -1.13834  -1.13775  -1.13754  -1.13717  -1.13700
  Beta  occ. eigenvalues --   -1.13630  -1.13346  -1.13342  -1.13319  -1.13193
  Beta  occ. eigenvalues --   -1.13182  -1.13149  -1.12231  -1.12219  -1.12199
  Beta  occ. eigenvalues --   -0.17154  -0.13508  -0.11046
  Beta virt. eigenvalues --   -0.07586  -0.06299  -0.05222  -0.04244  -0.03003
  Beta virt. eigenvalues --   -0.02275  -0.02151  -0.01773  -0.01137  -0.00628
  Beta virt. eigenvalues --   -0.00217   0.00174   0.00223   0.00446   0.00558

 Mulliken charges and spin densities:
               1          2
     1  Na   0.599396   0.030701
     2  Na   0.164139  -0.039861
     3  Na  -0.285456   0.549656
     4  Na  -0.232614  -0.091562
     5  Na  -0.473558   0.393093
     6  Na   0.332658   0.203332
     7  Na  -0.104565  -0.045360
 Sum of Mulliken charges =  -0.00000   1.00000

 Dipole moment (field-independent basis, Debye):
    X=             -0.1784    Y=              0.1856    Z=              0.3001  Tot=              0.3954
 Quadrupole moment (field-independent basis, Debye-Ang):
   XX=            -54.8975   YY=            -72.1375   ZZ=            -70.2613
   XY=             -0.2582   XZ=             -1.1157   YZ=              0.3776

 Normal termination of Gaussian 16 at Thu Dec  7 04:08:19 2023.
