 Gaussian 16, Revision B.01,
 Gaussian 16:  ES64L-G16RevB.01 20-Dec-2017

 -------------------------
 #P B3LYP/6-311+g(d) force
 -------------------------

 -----
 DPGEN
 -----
 Symbolic Z-matrix:
 Charge =  0 Multiplicity = 2

                         Standard orientation:
 ---------------------------------------------------------------------
 Center     Atomic      Atomic             Coordinates (Angstroms)
 Number     Number       Type             X           Y           Z
 ---------------------------------------------------------------------
      1         11           0        1.375331    2.899935   -0.472947
      2         11           0        1.127177   -2.633120   -0.188556
      3         11           0        0.004030   -0.094196   -1.661674
      4         11           0       -2.514679    2.088228    0.005971
      5         11           0        3.149271   -0.300110    0.515262
      6         11           0       -0.656849    0.167078    2.045791
      7         11           0       -2.484282   -2.127816   -0.243847
 ---------------------------------------------------------------------

 SCF Done:  E(UB3LYP) =  -1136.13357325     A.U. after   19 cycles

 The electronic state is 2-A.
 Alpha  occ. eigenvalues --  -38.44303 -38.44029 -38.43979 -38.43778 -38.43716
 Alpha  occ. eigenvalues --  -38.43462 -38.43325  -2.20091  -2.19829  -2.19761
 Alpha  occ. eigenvalues --   -2.19632  -2.19541  -2.19347  -2.19263  -1.13780
 Alpha  occ. eigenvalues --   -1.13754  -1.13721  -1.13508  -1.13489  -1.13467
 Alpha  occ. eigenvalues --   -1.13444  -1.13418  -1.13392  -1.13295  -1.13262
 Alpha  occ. eigenvalues --   -1.13254  -1.13249  -1.13199  -1.13177  -1.13095
 Alpha  occ. eigenvalues --   -1.12998  -1.12959  -1.12934  -1.12887  -1.12870
 Alpha  occ. eigenvalues --   -0.18135  -0.12798  -0.12464  -0.10604
 Alpha virt. eigenvalues --   -0.05905  -0.05289  -0.04768  -0.03235  -0.02925
 Alpha virt. eigenvalues --   -0.02475  -0.01543  -0.01427  -0.00619  -0.00386
 Alpha virt. eigenvalues --   -0.00027   0.00344   0.00753   0.00817   0.00848

  Beta  occ. eigenvalues --  -38.44301 -38.44024 -38.43967 -38.43706 -38.43693
  Beta  occ. eigenvalues --  -38.43456 -38.43261  -2.20092  -2.19823  -2.19742
  Beta  occ. eigenvalues --   -2.19523  -2.19476  -2.19340  -2.19148  -1.13767
  Beta  occ. eigenvalues --   -1.13750  -1.13721  -1.13490  -1.13487  -1.13458
  Beta  occ. eigenvalues --   -1.13419  -1.13403  -1.13382  -1.13242  -1.13190
  Beta  occ. eigenvalues --   -1.13177  -1.13161  -1.13154  -1.13139  -1.13071
  Beta  occ. eigenvalues --   -1.12979  -1.12950  -1.12858  -1.12815  -1.12783
  Beta  occ. eigenvalues --   -0.17450  -0.12552  -0.12206
  Beta virt. eigenvalues --   -0.06839  -0.05869  -0.05124  -0.04730  -0.02487
  Beta virt. eigenvalues --   -0.02239  -0.01532  -0.01441  -0.01315  -0.00628
  Beta virt. eigenvalues --   -0.00424   0.00116   0.00383   0.00758   0.00856

 Mulliken charges and spin densities:
               1          2
     1  Na  -0.012296   0.011708
     2  Na   0.186607   0.035359
     3  Na   0.072873   0.406348
     4  Na   0.045161  -0.137281
     5  Na  -0.069528   0.081961
     6  Na  -0.307022   0.711715
     7  Na   0.084205  -0.109810
 Sum of Mulliken charges =  -0.00000   1.00000

 Dipole moment (field-independent basis, Debye):
    X=             -0.4638    Y=              0.2252    Z=              0.0915  Tot=              0.5237
 Quadrupole moment (field-independent basis, Debye-Ang):
   XX=            -57.9266   YY=            -60.7327   ZZ=            -74.8207
   XY=              0.7654   XZ=              1.8405   YZ=             -0.6325

 Normal termination of Gaussian 16 at Thu Dec  7 22:11:53 2023.
