 Gaussian 16, Revision B.01,
 Gaussian 16:  ES64L-G16RevB.01 20-Dec-2017

 -------------------------
 #P B3LYP/6-311+g(d) force
 -------------------------

 -----
 DPGEN
 -----
 Symbolic Z-matrix:
 Charge =  0 Multiplicity = 2

                         Standard orientation:
 ---------------------------------------------------------------------
 Center     Atomic      Atomic             Coordinates (Angstroms)
 Number     Number       Type             X           Y           Z
 ---------------------------------------------------------------------
      1         11           0        0.429896    0.630176   -2.338006
      2         11           0        3.337534   -0.160527    1.638874
      3         11           0       -2.618223    2.028223   -0.121931
      4         11           0        1.730474    2.389451    0.206875
      5         11           0        1.621238   -2.367783   -0.672147
      6         11           0       -2.636520   -0.753280    2.142124
      7         11           0       -1.864399   -1.766260   -0.855788
 ---------------------------------------------------------------------

 SCF Done:  E(UB3LYP) =  -1136.12120916     A.U. after   23 cycles

 The electronic state is 2-A.
 Alpha  occ. eigenvalues --  -38.44867 -38.44631 -38.44597 -38.44427 -38.43649
 Alpha  occ. eigenvalues --  -38.43538 -38.43281  -2.20676  -2.20445  -2.20436
 Alpha  occ. eigenvalues --   -2.20181  -2.19488  -2.19337  -2.19077  -1.14334
 Alpha  occ. eigenvalues --   -1.14322  -1.14293  -1.14105  -1.14101  -1.14091
 Alpha  occ. eigenvalues --   -1.14076  -1.14061  -1.14047  -1.13874  -1.13846
 Alpha  occ. eigenvalues --   -1.13813  -1.13186  -1.13167  -1.13105  -1.13028
 Alpha  occ. eigenvalues --   -1.13011  -1.12969  -1.12757  -1.12748  -1.12716
 Alpha  occ. eigenvalues --   -0.17197  -0.13630  -0.11651  -0.11473
 Alpha virt. eigenvalues --   -0.06066  -0.05388  -0.04622  -0.03755  -0.03289
 Alpha virt. eigenvalues --   -0.03069  -0.01333  -0.00736  -0.00643  -0.00367
 Alpha virt. eigenvalues --   -0.00162  -0.00030   0.00282   0.00363   0.00659

  Beta  occ. eigenvalues --  -38.44810 -38.44565 -38.44513 -38.44432 -38.43644
  Beta  occ. eigenvalues --  -38.43539 -38.43281  -2.20570  -2.20313  -2.20292
  Beta  occ. eigenvalues --   -2.20193  -2.19482  -2.19344  -2.19080  -1.14264
  Beta  occ. eigenvalues --   -1.14250  -1.14222  -1.14007  -1.14006  -1.13997
  Beta  occ. eigenvalues --   -1.13994  -1.13980  -1.13931  -1.13877  -1.13856
  Beta  occ. eigenvalues --   -1.13809  -1.13174  -1.13154  -1.13093  -1.13027
  Beta  occ. eigenvalues --   -1.13016  -1.12959  -1.12755  -1.12752  -1.12704
  Beta  occ. eigenvalues --   -0.16514  -0.13048  -0.11321
  Beta virt. eigenvalues --   -0.08181  -0.05888  -0.04881  -0.04181  -0.03546
  Beta virt. eigenvalues --   -0.02776  -0.02476  -0.01256  -0.00678  -0.00335
  Beta virt. eigenvalues --   -0.00183  -0.00014   0.00115   0.00441   0.00490

 Mulliken charges and spin densities:
               1          2
     1  Na   0.607146   0.516883
     2  Na   0.257051   0.319212
     3  Na  -0.280708  -0.048931
     4  Na  -0.380811  -0.060862
     5  Na  -0.494754  -0.042223
     6  Na   0.011981   0.331058
     7  Na   0.280095  -0.015138
 Sum of Mulliken charges =  -0.00000   1.00000

 Dipole moment (field-independent basis, Debye):
    X=             -0.4427    Y=              0.0627    Z=              0.7068  Tot=              0.8364
 Quadrupole moment (field-independent basis, Debye-Ang):
   XX=            -63.5700   YY=            -73.0379   ZZ=            -62.4735
   XY=             -2.1035   XZ=              1.1832   YZ=             -2.2758

 Normal termination of Gaussian 16 at Mon Dec  4 00:21:16 2023.
