 Gaussian 16, Revision B.01,
 Gaussian 16:  ES64L-G16RevB.01 20-Dec-2017

 -------------------------
 #P B3LYP/6-311+g(d) force
 -------------------------

 -----
 DPGEN
 -----
 Symbolic Z-matrix:
 Charge =  0 Multiplicity = 2

                         Standard orientation:
 ---------------------------------------------------------------------
 Center     Atomic      Atomic             Coordinates (Angstroms)
 Number     Number       Type             X           Y           Z
 ---------------------------------------------------------------------
      1         11           0       -2.175081    1.936968   -0.822255
      2         11           0        3.371024    0.409481    0.012573
      3         11           0        0.143065   -0.661204   -1.499268
      4         11           0       -0.605783    0.103959    1.833048
      5         11           0        0.641689    2.816060    0.268949
      6         11           0        1.376366   -2.782977   -0.026439
      7         11           0       -2.751280   -1.822287    0.233391
 ---------------------------------------------------------------------

 SCF Done:  E(UB3LYP) =  -1136.13088810     A.U. after   20 cycles

 The electronic state is 2-A.
 Alpha  occ. eigenvalues --  -38.44344 -38.44252 -38.44164 -38.43631 -38.43316
 Alpha  occ. eigenvalues --  -38.43295 -38.43232  -2.20118  -2.20100  -2.19976
 Alpha  occ. eigenvalues --   -2.19502  -2.19239  -2.19212  -2.19163  -1.13892
 Alpha  occ. eigenvalues --   -1.13800  -1.13773  -1.13760  -1.13741  -1.13686
 Alpha  occ. eigenvalues --   -1.13661  -1.13630  -1.13612  -1.13198  -1.13158
 Alpha  occ. eigenvalues --   -1.13133  -1.12938  -1.12897  -1.12881  -1.12862
 Alpha  occ. eigenvalues --   -1.12858  -1.12820  -1.12810  -1.12801  -1.12795
 Alpha  occ. eigenvalues --   -0.18438  -0.12964  -0.12637  -0.10403
 Alpha virt. eigenvalues --   -0.06021  -0.05176  -0.04826  -0.03102  -0.02878
 Alpha virt. eigenvalues --   -0.02188  -0.01747  -0.01300  -0.00571  -0.00380
 Alpha virt. eigenvalues --    0.00010   0.00322   0.00759   0.00812   0.00870

  Beta  occ. eigenvalues --  -38.44346 -38.44246 -38.44154 -38.43600 -38.43289
  Beta  occ. eigenvalues --  -38.43237 -38.43179  -2.20123  -2.20093  -2.19962
  Beta  occ. eigenvalues --   -2.19446  -2.19156  -2.19116  -2.19095  -1.13879
  Beta  occ. eigenvalues --   -1.13799  -1.13774  -1.13760  -1.13725  -1.13684
  Beta  occ. eigenvalues --   -1.13639  -1.13610  -1.13605  -1.13165  -1.13107
  Beta  occ. eigenvalues --   -1.13089  -1.12863  -1.12837  -1.12806  -1.12799
  Beta  occ. eigenvalues --   -1.12787  -1.12781  -1.12763  -1.12739  -1.12735
  Beta  occ. eigenvalues --   -0.17773  -0.12711  -0.12389
  Beta virt. eigenvalues --   -0.06614  -0.05953  -0.05040  -0.04786  -0.02416
  Beta virt. eigenvalues --   -0.02186  -0.01666  -0.01301  -0.01105  -0.00581
  Beta virt. eigenvalues --   -0.00364   0.00146   0.00377   0.00767   0.00872

 Mulliken charges and spin densities:
               1          2
     1  Na   0.033448   0.135522
     2  Na  -0.138535  -0.044478
     3  Na  -0.084207   0.323864
     4  Na  -0.174087   0.680443
     5  Na   0.072251   0.013794
     6  Na   0.212668  -0.071441
     7  Na   0.078461  -0.037704
 Sum of Mulliken charges =  -0.00000   1.00000

 Dipole moment (field-independent basis, Debye):
    X=              0.1058    Y=             -0.4684    Z=              0.0952  Tot=              0.4895
 Quadrupole moment (field-independent basis, Debye-Ang):
   XX=            -55.5929   YY=            -61.1803   ZZ=            -75.9008
   XY=              1.0748   XZ=              1.8364   YZ=             -1.4969

 Normal termination of Gaussian 16 at Tue Dec  5 17:16:53 2023.
