 Gaussian 16, Revision B.01,
 Gaussian 16:  ES64L-G16RevB.01 20-Dec-2017

 -------------------------
 #P B3LYP/6-311+g(d) force
 -------------------------

 -----
 DPGEN
 -----
 Symbolic Z-matrix:
 Charge =  0 Multiplicity = 2

                         Standard orientation:
 ---------------------------------------------------------------------
 Center     Atomic      Atomic             Coordinates (Angstroms)
 Number     Number       Type             X           Y           Z
 ---------------------------------------------------------------------
      1         11           0       -2.461530   -1.587335    0.202674
      2         11           0       -0.080561   -0.027483    1.863190
      3         11           0        0.018082    0.067996   -1.615635
      4         11           0       -2.449739    1.675554   -0.450084
      5         11           0        0.902689   -2.771635   -0.098959
      6         11           0        2.965457   -0.121580   -0.238894
      7         11           0        1.105602    2.764482    0.337709
 ---------------------------------------------------------------------

 SCF Done:  E(UB3LYP) =  -1136.14028402     A.U. after   19 cycles

 The electronic state is 2-A.
 Alpha  occ. eigenvalues --  -38.43692 -38.43621 -38.43547 -38.43418 -38.43277
 Alpha  occ. eigenvalues --  -38.43275 -38.43032  -2.19569  -2.19495  -2.19432
 Alpha  occ. eigenvalues --   -2.19270  -2.19235  -2.19154  -2.19060  -1.13268
 Alpha  occ. eigenvalues --   -1.13230  -1.13214  -1.13203  -1.13166  -1.13129
 Alpha  occ. eigenvalues --   -1.13120  -1.13092  -1.13044  -1.12969  -1.12936
 Alpha  occ. eigenvalues --   -1.12912  -1.12902  -1.12860  -1.12845  -1.12843
 Alpha  occ. eigenvalues --   -1.12807  -1.12782  -1.12732  -1.12687  -1.12668
 Alpha  occ. eigenvalues --   -0.19093  -0.13127  -0.12620  -0.10791
 Alpha virt. eigenvalues --   -0.05252  -0.05085  -0.04812  -0.03154  -0.02917
 Alpha virt. eigenvalues --   -0.02410  -0.01350  -0.01163  -0.00255  -0.00155
 Alpha virt. eigenvalues --    0.00043   0.00366   0.00866   0.00919   0.00921

  Beta  occ. eigenvalues --  -38.43685 -38.43608 -38.43540 -38.43410 -38.43273
  Beta  occ. eigenvalues --  -38.43188 -38.42965  -2.19560  -2.19474  -2.19422
  Beta  occ. eigenvalues --   -2.19258  -2.19150  -2.19076  -2.18938  -1.13256
  Beta  occ. eigenvalues --   -1.13217  -1.13195  -1.13189  -1.13145  -1.13107
  Beta  occ. eigenvalues --   -1.13101  -1.13070  -1.13035  -1.12944  -1.12910
  Beta  occ. eigenvalues --   -1.12895  -1.12849  -1.12811  -1.12799  -1.12773
  Beta  occ. eigenvalues --   -1.12740  -1.12723  -1.12648  -1.12595  -1.12587
  Beta  occ. eigenvalues --   -0.18374  -0.12841  -0.12346
  Beta virt. eigenvalues --   -0.06878  -0.05227  -0.05065  -0.04788  -0.02354
  Beta virt. eigenvalues --   -0.02141  -0.01363  -0.01255  -0.01081  -0.00279
  Beta virt. eigenvalues --   -0.00206   0.00148   0.00387   0.00907   0.00911

 Mulliken charges and spin densities:
               1          2
     1  Na   0.209663  -0.026388
     2  Na  -0.344079   0.710095
     3  Na  -0.270725   0.498963
     4  Na   0.139165  -0.016418
     5  Na   0.065427  -0.080644
     6  Na   0.132527  -0.056345
     7  Na   0.068022  -0.029262
 Sum of Mulliken charges =  -0.00000   1.00000

 Dipole moment (field-independent basis, Debye):
    X=              0.0014    Y=              0.0543    Z=              0.1025  Tot=              0.1160
 Quadrupole moment (field-independent basis, Debye-Ang):
   XX=            -57.9733   YY=            -60.6958   ZZ=            -74.3457
   XY=              0.1080   XZ=              0.1245   YZ=              0.1079

 Normal termination of Gaussian 16 at Thu Dec  7 02:56:06 2023.
