 Gaussian 16, Revision B.01,
 Gaussian 16:  ES64L-G16RevB.01 20-Dec-2017

 -------------------------
 #P B3LYP/6-311+g(d) force
 -------------------------

 -----
 DPGEN
 -----
 Symbolic Z-matrix:
 Charge =  0 Multiplicity = 2

                         Standard orientation:
 ---------------------------------------------------------------------
 Center     Atomic      Atomic             Coordinates (Angstroms)
 Number     Number       Type             X           Y           Z
 ---------------------------------------------------------------------
      1         11           0       -2.684857   -1.699340    0.114146
      2         11           0        0.547798    0.146896    2.000800
      3         11           0        3.200533   -0.019164   -0.446961
      4         11           0       -0.205526   -0.008589   -1.695499
      5         11           0        0.811103    2.812314    0.048033
      6         11           0       -2.690593    1.510128   -0.073940
      7         11           0        1.021542   -2.742246    0.053420
 ---------------------------------------------------------------------

 SCF Done:  E(UB3LYP) =  -1136.13850767     A.U. after   20 cycles

 The electronic state is 2-A.
 Alpha  occ. eigenvalues --  -38.44361 -38.43872 -38.43871 -38.43455 -38.43330
 Alpha  occ. eigenvalues --  -38.43309 -38.43209  -2.20182  -2.19721  -2.19699
 Alpha  occ. eigenvalues --   -2.19353  -2.19257  -2.19168  -2.19058  -1.13855
 Alpha  occ. eigenvalues --   -1.13837  -1.13820  -1.13454  -1.13402  -1.13366
 Alpha  occ. eigenvalues --   -1.13362  -1.13342  -1.13302  -1.13027  -1.12993
 Alpha  occ. eigenvalues --   -1.12974  -1.12944  -1.12909  -1.12880  -1.12837
 Alpha  occ. eigenvalues --   -1.12830  -1.12797  -1.12733  -1.12723  -1.12685
 Alpha  occ. eigenvalues --   -0.18521  -0.13223  -0.12263  -0.10630
 Alpha virt. eigenvalues --   -0.05860  -0.05195  -0.04626  -0.03283  -0.02803
 Alpha virt. eigenvalues --   -0.02482  -0.01690  -0.01065  -0.00436  -0.00414
 Alpha virt. eigenvalues --   -0.00021   0.00358   0.00776   0.00874   0.00876

  Beta  occ. eigenvalues --  -38.44349 -38.43870 -38.43870 -38.43365 -38.43325
  Beta  occ. eigenvalues --  -38.43245 -38.43203  -2.20164  -2.19720  -2.19700
  Beta  occ. eigenvalues --   -2.19187  -2.19162  -2.19140  -2.19052  -1.13829
  Beta  occ. eigenvalues --   -1.13818  -1.13810  -1.13456  -1.13389  -1.13358
  Beta  occ. eigenvalues --   -1.13353  -1.13338  -1.13304  -1.12923  -1.12885
  Beta  occ. eigenvalues --   -1.12864  -1.12861  -1.12847  -1.12811  -1.12797
  Beta  occ. eigenvalues --   -1.12796  -1.12785  -1.12720  -1.12689  -1.12684
  Beta  occ. eigenvalues --   -0.17804  -0.13006  -0.12026
  Beta virt. eigenvalues --   -0.06747  -0.05788  -0.05207  -0.04570  -0.02536
  Beta virt. eigenvalues --   -0.02032  -0.01594  -0.01426  -0.01000  -0.00478
  Beta virt. eigenvalues --   -0.00467   0.00128   0.00389   0.00840   0.00862

 Mulliken charges and spin densities:
               1          2
     1  Na   0.004619  -0.061336
     2  Na  -0.406969   0.768073
     3  Na   0.195022  -0.015974
     4  Na  -0.150159   0.537016
     5  Na   0.152991  -0.089464
     6  Na   0.169265  -0.069993
     7  Na   0.035231  -0.068323
 Sum of Mulliken charges =  -0.00000   1.00000

 Dipole moment (field-independent basis, Debye):
    X=              0.1081    Y=             -0.0149    Z=              0.0142  Tot=              0.1100
 Quadrupole moment (field-independent basis, Debye-Ang):
   XX=            -55.0698   YY=            -63.5643   ZZ=            -74.7207
   XY=              0.2297   XZ=             -1.7641   YZ=             -0.5261

 Normal termination of Gaussian 16 at Tue Dec  5 22:11:58 2023.
