 Gaussian 16, Revision B.01,
 Gaussian 16:  ES64L-G16RevB.01 20-Dec-2017

 -------------------------
 #P B3LYP/6-311+g(d) force
 -------------------------

 -----
 DPGEN
 -----
 Symbolic Z-matrix:
 Charge =  0 Multiplicity = 2

                         Standard orientation:
 ---------------------------------------------------------------------
 Center     Atomic      Atomic             Coordinates (Angstroms)
 Number     Number       Type             X           Y           Z
 ---------------------------------------------------------------------
      1         11           0       -1.747071    2.199568   -0.349246
      2         11           0       -0.070283   -0.262128   -1.808826
      3         11           0       -3.016839   -0.842987    0.258391
      4         11           0        1.754707    2.312919    0.053640
      5         11           0        3.004453   -0.876064   -0.030132
      6         11           0        0.020449    0.205431    1.868010
      7         11           0        0.054584   -2.736739    0.008163
 ---------------------------------------------------------------------

 SCF Done:  E(UB3LYP) =  -1136.14011182     A.U. after   18 cycles

 The electronic state is 2-A.
 Alpha  occ. eigenvalues --  -38.43962 -38.43944 -38.43379 -38.43313 -38.43311
 Alpha  occ. eigenvalues --  -38.43301 -38.43135  -2.19801  -2.19787  -2.19329
 Alpha  occ. eigenvalues --   -2.19287  -2.19201  -2.19171  -2.19030  -1.13474
 Alpha  occ. eigenvalues --   -1.13463  -1.13456  -1.13452  -1.13447  -1.13432
 Alpha  occ. eigenvalues --   -1.13032  -1.13006  -1.12978  -1.12966  -1.12952
 Alpha  occ. eigenvalues --   -1.12901  -1.12855  -1.12854  -1.12840  -1.12833
 Alpha  occ. eigenvalues --   -1.12824  -1.12788  -1.12702  -1.12691  -1.12636
 Alpha  occ. eigenvalues --   -0.19006  -0.13118  -0.12503  -0.10870
 Alpha virt. eigenvalues --   -0.05638  -0.05029  -0.04489  -0.03225  -0.02951
 Alpha virt. eigenvalues --   -0.02550  -0.01569  -0.00995  -0.00181  -0.00162
 Alpha virt. eigenvalues --    0.00003   0.00367   0.00826   0.00921   0.00934

  Beta  occ. eigenvalues --  -38.43960 -38.43938 -38.43302 -38.43298 -38.43296
  Beta  occ. eigenvalues --  -38.43232 -38.43128  -2.19800  -2.19780  -2.19185
  Beta  occ. eigenvalues --   -2.19180  -2.19166  -2.19142  -2.19021  -1.13468
  Beta  occ. eigenvalues --   -1.13458  -1.13453  -1.13440  -1.13431  -1.13423
  Beta  occ. eigenvalues --   -1.12951  -1.12923  -1.12896  -1.12879  -1.12861
  Beta  occ. eigenvalues --   -1.12836  -1.12824  -1.12815  -1.12804  -1.12791
  Beta  occ. eigenvalues --   -1.12785  -1.12776  -1.12683  -1.12652  -1.12631
  Beta  occ. eigenvalues --   -0.18258  -0.12880  -0.12234
  Beta virt. eigenvalues --   -0.06939  -0.05606  -0.05036  -0.04461  -0.02431
  Beta virt. eigenvalues --   -0.02136  -0.01500  -0.01470  -0.00928  -0.00233
  Beta virt. eigenvalues --   -0.00204   0.00121   0.00381   0.00881   0.00909

 Mulliken charges and spin densities:
               1          2
     1  Na   0.178451  -0.038654
     2  Na  -0.314003   0.646375
     3  Na   0.122690  -0.044701
     4  Na   0.160848  -0.085181
     5  Na   0.071852  -0.105679
     6  Na  -0.414714   0.734847
     7  Na   0.194876  -0.107008
 Sum of Mulliken charges =  -0.00000   1.00000

 Dipole moment (field-independent basis, Debye):
    X=              0.0156    Y=             -0.0799    Z=              0.0711  Tot=              0.1080
 Quadrupole moment (field-independent basis, Debye-Ang):
   XX=            -55.3964   YY=            -64.4030   ZZ=            -73.6281
   XY=              0.1764   XZ=             -0.4115   YZ=             -1.1706

 Normal termination of Gaussian 16 at Thu Dec  7 07:30:40 2023.
