 Gaussian 16, Revision B.01,
 Gaussian 16:  ES64L-G16RevB.01 20-Dec-2017

 -------------------------
 #P B3LYP/6-311+g(d) force
 -------------------------

 -----
 DPGEN
 -----
 Symbolic Z-matrix:
 Charge =  0 Multiplicity = 2

                         Standard orientation:
 ---------------------------------------------------------------------
 Center     Atomic      Atomic             Coordinates (Angstroms)
 Number     Number       Type             X           Y           Z
 ---------------------------------------------------------------------
      1         11           0        3.112418   -0.629832   -0.343976
      2         11           0        0.845412   -2.626579    0.650176
      3         11           0        1.421810    2.606791   -0.876501
      4         11           0        0.424882    0.855546    2.215979
      5         11           0        0.120279   -0.303878   -1.352100
      6         11           0       -2.830157    1.703865    0.301453
      7         11           0       -3.094643   -1.605914   -0.595031
 ---------------------------------------------------------------------

 SCF Done:  E(UB3LYP) =  -1136.12932576     A.U. after   21 cycles

 The electronic state is 2-A.
 Alpha  occ. eigenvalues --  -38.44502 -38.44384 -38.43959 -38.43928 -38.43294
 Alpha  occ. eigenvalues --  -38.43276 -38.43234  -2.20272  -2.20261  -2.19763
 Alpha  occ. eigenvalues --   -2.19750  -2.19274  -2.19129  -2.19109  -1.13966
 Alpha  occ. eigenvalues --   -1.13952  -1.13930  -1.13921  -1.13912  -1.13883
 Alpha  occ. eigenvalues --   -1.13426  -1.13425  -1.13399  -1.13393  -1.13390
 Alpha  occ. eigenvalues --   -1.13376  -1.13006  -1.12959  -1.12908  -1.12804
 Alpha  occ. eigenvalues --   -1.12774  -1.12766  -1.12754  -1.12752  -1.12736
 Alpha  occ. eigenvalues --   -0.18196  -0.13191  -0.11968  -0.10920
 Alpha virt. eigenvalues --   -0.05968  -0.05418  -0.04338  -0.03274  -0.03016
 Alpha virt. eigenvalues --   -0.02534  -0.01779  -0.01182  -0.00523  -0.00319
 Alpha virt. eigenvalues --   -0.00044   0.00321   0.00692   0.00739   0.00810

  Beta  occ. eigenvalues --  -38.44501 -38.44375 -38.43951 -38.43832 -38.43275
  Beta  occ. eigenvalues --  -38.43236 -38.43221  -2.20272  -2.20248  -2.19735
  Beta  occ. eigenvalues --   -2.19585  -2.19203  -2.19097  -2.19087  -1.13957
  Beta  occ. eigenvalues --   -1.13945  -1.13931  -1.13908  -1.13892  -1.13873
  Beta  occ. eigenvalues --   -1.13408  -1.13391  -1.13382  -1.13305  -1.13273
  Beta  occ. eigenvalues --   -1.13245  -1.12954  -1.12915  -1.12851  -1.12776
  Beta  occ. eigenvalues --   -1.12754  -1.12744  -1.12732  -1.12719  -1.12705
  Beta  occ. eigenvalues --   -0.17509  -0.12985  -0.11726
  Beta virt. eigenvalues --   -0.07031  -0.05895  -0.05263  -0.04225  -0.02591
  Beta virt. eigenvalues --   -0.02408  -0.01735  -0.01520  -0.01100  -0.00500
  Beta virt. eigenvalues --   -0.00265   0.00100   0.00375   0.00775   0.00830

 Mulliken charges and spin densities:
               1          2
     1  Na   0.326893   0.004762
     2  Na  -0.201201   0.276133
     3  Na  -0.066029   0.047899
     4  Na  -0.371379   0.608239
     5  Na   0.332304   0.006333
     6  Na  -0.116788   0.033873
     7  Na   0.096201   0.022762
 Sum of Mulliken charges =  -0.00000   1.00000

 Dipole moment (field-independent basis, Debye):
    X=             -0.0312    Y=              0.1360    Z=              0.2273  Tot=              0.2667
 Quadrupole moment (field-independent basis, Debye-Ang):
   XX=            -54.9916   YY=            -65.4476   ZZ=            -73.1989
   XY=             -0.4944   XZ=             -0.4250   YZ=             -1.1637

 Normal termination of Gaussian 16 at Thu Dec  7 20:31:09 2023.
