 Gaussian 16, Revision B.01,
 Gaussian 16:  ES64L-G16RevB.01 20-Dec-2017

 -------------------------
 #P B3LYP/6-311+g(d) force
 -------------------------

 -----
 DPGEN
 -----
 Symbolic Z-matrix:
 Charge =  0 Multiplicity = 2

                         Standard orientation:
 ---------------------------------------------------------------------
 Center     Atomic      Atomic             Coordinates (Angstroms)
 Number     Number       Type             X           Y           Z
 ---------------------------------------------------------------------
      1         11           0        1.358682    2.686631   -0.076601
      2         11           0       -2.166892    2.101493    0.177367
      3         11           0        0.503327   -2.848362    0.053062
      4         11           0       -2.817533   -1.154277   -0.317506
      5         11           0        0.065860   -0.343659    2.070630
      6         11           0       -0.136063   -0.155644   -1.657989
      7         11           0        3.192619   -0.286181   -0.248963
 ---------------------------------------------------------------------

 SCF Done:  E(UB3LYP) =  -1136.13897780     A.U. after   19 cycles

 The electronic state is 2-A.
 Alpha  occ. eigenvalues --  -38.44087 -38.43817 -38.43636 -38.43546 -38.43441
 Alpha  occ. eigenvalues --  -38.43388 -38.43249  -2.19897  -2.19683  -2.19526
 Alpha  occ. eigenvalues --   -2.19386  -2.19263  -2.19261  -2.19228  -1.13573
 Alpha  occ. eigenvalues --   -1.13556  -1.13536  -1.13397  -1.13341  -1.13312
 Alpha  occ. eigenvalues --   -1.13204  -1.13162  -1.13142  -1.13058  -1.13050
 Alpha  occ. eigenvalues --   -1.13030  -1.12983  -1.12944  -1.12932  -1.12927
 Alpha  occ. eigenvalues --   -1.12897  -1.12891  -1.12876  -1.12848  -1.12834
 Alpha  occ. eigenvalues --   -0.18631  -0.12971  -0.12500  -0.10792
 Alpha virt. eigenvalues --   -0.05607  -0.05118  -0.04782  -0.03152  -0.02929
 Alpha virt. eigenvalues --   -0.02617  -0.01524  -0.01085  -0.00396  -0.00354
 Alpha virt. eigenvalues --   -0.00015   0.00357   0.00809   0.00877   0.00904

  Beta  occ. eigenvalues --  -38.44083 -38.43807 -38.43542 -38.43539 -38.43440
  Beta  occ. eigenvalues --  -38.43380 -38.43186  -2.19891  -2.19670  -2.19383
  Beta  occ. eigenvalues --   -2.19347  -2.19262  -2.19252  -2.19113  -1.13555
  Beta  occ. eigenvalues --   -1.13552  -1.13533  -1.13379  -1.13319  -1.13300
  Beta  occ. eigenvalues --   -1.13093  -1.13059  -1.13039  -1.13032  -1.13022
  Beta  occ. eigenvalues --   -1.13015  -1.12956  -1.12935  -1.12919  -1.12896
  Beta  occ. eigenvalues --   -1.12888  -1.12873  -1.12820  -1.12763  -1.12761
  Beta  occ. eigenvalues --   -0.17906  -0.12735  -0.12261
  Beta virt. eigenvalues --   -0.06870  -0.05584  -0.05119  -0.04705  -0.02381
  Beta virt. eigenvalues --   -0.02154  -0.01550  -0.01432  -0.01014  -0.00450
  Beta virt. eigenvalues --   -0.00400   0.00128   0.00388   0.00855   0.00878

 Mulliken charges and spin densities:
               1          2
     1  Na  -0.042718  -0.069960
     2  Na  -0.007839  -0.020167
     3  Na   0.307833  -0.079178
     4  Na   0.382329  -0.012570
     5  Na  -0.486588   0.767033
     6  Na  -0.221459   0.489873
     7  Na   0.068441  -0.075030
 Sum of Mulliken charges =  -0.00000   1.00000

 Dipole moment (field-independent basis, Debye):
    X=              0.0958    Y=             -0.1200    Z=              0.1072  Tot=              0.1872
 Quadrupole moment (field-independent basis, Debye-Ang):
   XX=            -56.8994   YY=            -62.5972   ZZ=            -74.2200
   XY=             -0.2436   XZ=             -0.4922   YZ=              0.6780

 Normal termination of Gaussian 16 at Thu Dec  7 07:13:28 2023.
