 Gaussian 16, Revision B.01,
 Gaussian 16:  ES64L-G16RevB.01 20-Dec-2017

 -------------------------
 #P B3LYP/6-311+g(d) force
 -------------------------

 -----
 DPGEN
 -----
 Symbolic Z-matrix:
 Charge =  0 Multiplicity = 2

                         Standard orientation:
 ---------------------------------------------------------------------
 Center     Atomic      Atomic             Coordinates (Angstroms)
 Number     Number       Type             X           Y           Z
 ---------------------------------------------------------------------
      1         11           0        2.780938    1.334820   -0.543098
      2         11           0       -0.674507    2.745589    0.342320
      3         11           0       -3.070106    0.323814   -0.495511
      4         11           0        2.513015   -1.938234    0.196798
      5         11           0        0.156653   -0.115292   -1.601703
      6         11           0       -0.026476    0.045279    2.120512
      7         11           0       -1.679517   -2.395976   -0.019318
 ---------------------------------------------------------------------

 SCF Done:  E(UB3LYP) =  -1136.13556149     A.U. after   19 cycles

 The electronic state is 2-A.
 Alpha  occ. eigenvalues --  -38.44064 -38.44047 -38.43902 -38.43792 -38.43401
 Alpha  occ. eigenvalues --  -38.43331 -38.42821  -2.19939  -2.19899  -2.19724
 Alpha  occ. eigenvalues --   -2.19681  -2.19383  -2.19203  -2.18679  -1.13630
 Alpha  occ. eigenvalues --   -1.13611  -1.13606  -1.13570  -1.13555  -1.13521
 Alpha  occ. eigenvalues --   -1.13395  -1.13386  -1.13359  -1.13345  -1.13309
 Alpha  occ. eigenvalues --   -1.13298  -1.13072  -1.13037  -1.13004  -1.12873
 Alpha  occ. eigenvalues --   -1.12861  -1.12835  -1.12367  -1.12340  -1.12311
 Alpha  occ. eigenvalues --   -0.18692  -0.13426  -0.12029  -0.11038
 Alpha virt. eigenvalues --   -0.05654  -0.05339  -0.04231  -0.03427  -0.02850
 Alpha virt. eigenvalues --   -0.02766  -0.01654  -0.01083  -0.00273  -0.00216
 Alpha virt. eigenvalues --    0.00017   0.00345   0.00744   0.00867   0.00924

  Beta  occ. eigenvalues --  -38.44052 -38.44032 -38.43900 -38.43690 -38.43348
  Beta  occ. eigenvalues --  -38.43328 -38.42814  -2.19921  -2.19874  -2.19721
  Beta  occ. eigenvalues --   -2.19493  -2.19286  -2.19201  -2.18670  -1.13620
  Beta  occ. eigenvalues --   -1.13587  -1.13582  -1.13550  -1.13535  -1.13503
  Beta  occ. eigenvalues --   -1.13385  -1.13381  -1.13349  -1.13222  -1.13177
  Beta  occ. eigenvalues --   -1.13162  -1.13003  -1.12971  -1.12935  -1.12870
  Beta  occ. eigenvalues --   -1.12847  -1.12817  -1.12355  -1.12317  -1.12305
  Beta  occ. eigenvalues --   -0.17972  -0.13159  -0.11786
  Beta virt. eigenvalues --   -0.07121  -0.05578  -0.05302  -0.04203  -0.02686
  Beta virt. eigenvalues --   -0.02082  -0.01713  -0.01532  -0.01004  -0.00295
  Beta virt. eigenvalues --   -0.00208   0.00121   0.00385   0.00832   0.00868

 Mulliken charges and spin densities:
               1          2
     1  Na   0.197214   0.005442
     2  Na   0.126727   0.008677
     3  Na   0.194578   0.026329
     4  Na   0.031867   0.003007
     5  Na  -0.198713   0.256608
     6  Na  -0.465649   0.696505
     7  Na   0.113976   0.003433
 Sum of Mulliken charges =  -0.00000   1.00000

 Dipole moment (field-independent basis, Debye):
    X=              0.2504    Y=             -0.1063    Z=              0.0865  Tot=              0.2855
 Quadrupole moment (field-independent basis, Debye-Ang):
   XX=            -55.7290   YY=            -65.5128   ZZ=            -72.9866
   XY=             -0.4726   XZ=              0.6309   YZ=             -1.2463

 Normal termination of Gaussian 16 at Thu Dec  7 23:38:02 2023.
