 Gaussian 16, Revision B.01,
 Gaussian 16:  ES64L-G16RevB.01 20-Dec-2017

 -------------------------
 #P B3LYP/6-311+g(d) force
 -------------------------

 -----
 DPGEN
 -----
 Symbolic Z-matrix:
 Charge =  0 Multiplicity = 2

                         Standard orientation:
 ---------------------------------------------------------------------
 Center     Atomic      Atomic             Coordinates (Angstroms)
 Number     Number       Type             X           Y           Z
 ---------------------------------------------------------------------
      1         11           0       -1.569748   -0.281544    2.154447
      2         11           0       -0.617511   -2.283578   -2.050637
      3         11           0        1.961196    2.147605   -1.087647
      4         11           0       -4.153936    0.021551   -0.370480
      5         11           0        1.564090   -2.012683    0.966408
      6         11           0        4.230314    0.102819    0.309475
      7         11           0       -1.414405    2.305831    0.078434
 ---------------------------------------------------------------------

 SCF Done:  E(UB3LYP) =  -1136.10948160     A.U. after   39 cycles

 The electronic state is 2-A.
 Alpha  occ. eigenvalues --  -38.45951 -38.45264 -38.44642 -38.44201 -38.44135
 Alpha  occ. eigenvalues --  -38.43633 -38.43327  -2.21703  -2.21047  -2.20410
 Alpha  occ. eigenvalues --   -2.20035  -2.19935  -2.19409  -2.19117  -1.15380
 Alpha  occ. eigenvalues --   -1.15357  -1.15337  -1.14712  -1.14698  -1.14691
 Alpha  occ. eigenvalues --   -1.14062  -1.14034  -1.14029  -1.13740  -1.13673
 Alpha  occ. eigenvalues --   -1.13659  -1.13622  -1.13620  -1.13538  -1.13091
 Alpha  occ. eigenvalues --   -1.13083  -1.13049  -1.12795  -1.12783  -1.12765
 Alpha  occ. eigenvalues --   -0.16793  -0.13772  -0.11780  -0.10688
 Alpha virt. eigenvalues --   -0.07670  -0.05450  -0.04471  -0.03562  -0.03333
 Alpha virt. eigenvalues --   -0.02598  -0.02313  -0.01462  -0.00736  -0.00530
 Alpha virt. eigenvalues --   -0.00357  -0.00082   0.00048   0.00492   0.00714

  Beta  occ. eigenvalues --  -38.45941 -38.45253 -38.44537 -38.44152 -38.44130
  Beta  occ. eigenvalues --  -38.43645 -38.43314  -2.21687  -2.21026  -2.20214
  Beta  occ. eigenvalues --   -2.19967  -2.19905  -2.19431  -2.19097  -1.15367
  Beta  occ. eigenvalues --   -1.15340  -1.15320  -1.14696  -1.14685  -1.14678
  Beta  occ. eigenvalues --   -1.13929  -1.13903  -1.13889  -1.13689  -1.13639
  Beta  occ. eigenvalues --   -1.13615  -1.13589  -1.13579  -1.13526  -1.13103
  Beta  occ. eigenvalues --   -1.13098  -1.13068  -1.12783  -1.12752  -1.12748
  Beta  occ. eigenvalues --   -0.16289  -0.13560  -0.11375
  Beta virt. eigenvalues --   -0.07604  -0.07075  -0.05269  -0.03881  -0.03174
  Beta virt. eigenvalues --   -0.03056  -0.02354  -0.01644  -0.01431  -0.00559
  Beta virt. eigenvalues --   -0.00359  -0.00184  -0.00074   0.00266   0.00632

 Mulliken charges and spin densities:
               1          2
     1  Na   0.133755   0.085998
     2  Na  -0.111033   0.475743
     3  Na  -0.136257   0.015188
     4  Na   0.292535   0.099811
     5  Na  -0.277660   0.293234
     6  Na   0.350702  -0.076466
     7  Na  -0.252043   0.106492
 Sum of Mulliken charges =  -0.00000   1.00000

 Dipole moment (field-independent basis, Debye):
    X=             -0.7582    Y=              0.0474    Z=              0.0664  Tot=              0.7626
 Quadrupole moment (field-independent basis, Debye-Ang):
   XX=            -45.5847   YY=            -77.5792   ZZ=            -72.8401
   XY=             -1.3114   XZ=              1.7228   YZ=              0.4264

 Normal termination of Gaussian 16 at Sun Dec  3 21:35:09 2023.
