 Gaussian 16, Revision B.01,
 Gaussian 16:  ES64L-G16RevB.01 20-Dec-2017

 -------------------------
 #P B3LYP/6-311+g(d) force
 -------------------------

 -----
 DPGEN
 -----
 Symbolic Z-matrix:
 Charge =  0 Multiplicity = 2

                         Standard orientation:
 ---------------------------------------------------------------------
 Center     Atomic      Atomic             Coordinates (Angstroms)
 Number     Number       Type             X           Y           Z
 ---------------------------------------------------------------------
      1         11           0       -2.252767    2.006198   -0.240012
      2         11           0        0.336803   -0.243303    2.169473
      3         11           0       -2.718648   -1.424214    0.189145
      4         11           0        0.651719   -2.545105   -0.333071
      5         11           0       -0.221613   -0.216579   -1.564151
      6         11           0        3.370777    0.126160   -0.276759
      7         11           0        0.833729    2.296843    0.055375
 ---------------------------------------------------------------------

 SCF Done:  E(UB3LYP) =  -1136.13018093     A.U. after   20 cycles

 The electronic state is 2-A.
 Alpha  occ. eigenvalues --  -38.44422 -38.44022 -38.43852 -38.43392 -38.43368
 Alpha  occ. eigenvalues --  -38.43320 -38.42881  -2.20225  -2.19868  -2.19745
 Alpha  occ. eigenvalues --   -2.19449  -2.19313  -2.19205  -2.18830  -1.13898
 Alpha  occ. eigenvalues --   -1.13887  -1.13860  -1.13557  -1.13532  -1.13503
 Alpha  occ. eigenvalues --   -1.13416  -1.13391  -1.13378  -1.13348  -1.13124
 Alpha  occ. eigenvalues --   -1.13040  -1.12953  -1.12913  -1.12882  -1.12874
 Alpha  occ. eigenvalues --   -1.12850  -1.12840  -1.12522  -1.12492  -1.12439
 Alpha  occ. eigenvalues --   -0.19083  -0.13083  -0.12462  -0.11050
 Alpha virt. eigenvalues --   -0.05951  -0.04850  -0.04189  -0.03240  -0.02918
 Alpha virt. eigenvalues --   -0.02755  -0.01860  -0.00927  -0.00108  -0.00069
 Alpha virt. eigenvalues --    0.00105   0.00322   0.00818   0.00885   0.00969

  Beta  occ. eigenvalues --  -38.44420 -38.44019 -38.43749 -38.43379 -38.43318
  Beta  occ. eigenvalues --  -38.43306 -38.42871  -2.20224  -2.19864  -2.19555
  Beta  occ. eigenvalues --   -2.19346  -2.19286  -2.19203  -2.18817  -1.13897
  Beta  occ. eigenvalues --   -1.13871  -1.13861  -1.13551  -1.13512  -1.13501
  Beta  occ. eigenvalues --   -1.13337  -1.13285  -1.13248  -1.13213  -1.13049
  Beta  occ. eigenvalues --   -1.12965  -1.12916  -1.12902  -1.12866  -1.12855
  Beta  occ. eigenvalues --   -1.12833  -1.12813  -1.12515  -1.12447  -1.12434
  Beta  occ. eigenvalues --   -0.18337  -0.12876  -0.12192
  Beta virt. eigenvalues --   -0.07053  -0.05901  -0.04838  -0.04181  -0.02479
  Beta virt. eigenvalues --   -0.02093  -0.01773  -0.01640  -0.00879  -0.00153
  Beta virt. eigenvalues --    0.00043   0.00122   0.00348   0.00864   0.00891

 Mulliken charges and spin densities:
               1          2
     1  Na   0.132014  -0.017970
     2  Na  -0.705379   0.666801
     3  Na   0.266732   0.040376
     4  Na   0.407720  -0.022749
     5  Na  -0.615609   0.298518
     6  Na   0.129754  -0.050430
     7  Na   0.384767   0.085454
 Sum of Mulliken charges =  -0.00000   1.00000

 Dipole moment (field-independent basis, Debye):
    X=              0.1587    Y=             -0.2759    Z=              0.3230  Tot=              0.4535
 Quadrupole moment (field-independent basis, Debye-Ang):
   XX=            -52.9046   YY=            -67.5211   ZZ=            -72.8765
   XY=              0.0200   XZ=             -1.3994   YZ=             -0.3970

 Normal termination of Gaussian 16 at Fri Dec  8 07:32:33 2023.
