 Gaussian 16, Revision B.01,
 Gaussian 16:  ES64L-G16RevB.01 20-Dec-2017

 -------------------------
 #P B3LYP/6-311+g(d) force
 -------------------------

 -----
 DPGEN
 -----
 Symbolic Z-matrix:
 Charge =  0 Multiplicity = 2

                         Standard orientation:
 ---------------------------------------------------------------------
 Center     Atomic      Atomic             Coordinates (Angstroms)
 Number     Number       Type             X           Y           Z
 ---------------------------------------------------------------------
      1         11           0       -3.840510    1.291831   -0.694665
      2         11           0       -2.802022   -1.026925    0.833291
      3         11           0        2.959677   -1.317427   -0.159401
      4         11           0        0.351893   -2.252077   -1.695017
      5         11           0        2.978493    2.560550   -0.053625
      6         11           0       -0.143864    1.906288   -0.026200
      7         11           0        0.496333   -1.162241    1.795616
 ---------------------------------------------------------------------

 SCF Done:  E(UB3LYP) =  -1136.11910306     A.U. after   21 cycles

 The electronic state is 2-A.
 Alpha  occ. eigenvalues --  -38.44623 -38.44355 -38.44337 -38.44287 -38.43989
 Alpha  occ. eigenvalues --  -38.43578 -38.43573  -2.20485  -2.20196  -2.20165
 Alpha  occ. eigenvalues --   -2.20152  -2.19807  -2.19484  -2.19375  -1.14191
 Alpha  occ. eigenvalues --   -1.14177  -1.14091  -1.14009  -1.13838  -1.13831
 Alpha  occ. eigenvalues --   -1.13828  -1.13802  -1.13798  -1.13793  -1.13781
 Alpha  occ. eigenvalues --   -1.13715  -1.13507  -1.13496  -1.13433  -1.13153
 Alpha  occ. eigenvalues --   -1.13131  -1.13088  -1.13040  -1.13034  -1.13013
 Alpha  occ. eigenvalues --   -0.17768  -0.13941  -0.12112  -0.10580
 Alpha virt. eigenvalues --   -0.06750  -0.05972  -0.03936  -0.03725  -0.02709
 Alpha virt. eigenvalues --   -0.02314  -0.02232  -0.01753  -0.00721  -0.00393
 Alpha virt. eigenvalues --   -0.00156   0.00128   0.00249   0.00539   0.00738

  Beta  occ. eigenvalues --  -38.44610 -38.44322 -38.44287 -38.44268 -38.43985
  Beta  occ. eigenvalues --  -38.43583 -38.43498  -2.20464  -2.20139  -2.20118
  Beta  occ. eigenvalues --   -2.20072  -2.19803  -2.19385  -2.19347  -1.14174
  Beta  occ. eigenvalues --   -1.14145  -1.14074  -1.13969  -1.13806  -1.13794
  Beta  occ. eigenvalues --   -1.13770  -1.13766  -1.13755  -1.13731  -1.13718
  Beta  occ. eigenvalues --   -1.13672  -1.13500  -1.13481  -1.13434  -1.13056
  Beta  occ. eigenvalues --   -1.13048  -1.13037  -1.13031  -1.13019  -1.12994
  Beta  occ. eigenvalues --   -0.17164  -0.13624  -0.11932
  Beta virt. eigenvalues --   -0.06844  -0.06522  -0.05839  -0.03683  -0.03198
  Beta virt. eigenvalues --   -0.02309  -0.02154  -0.01756  -0.01466  -0.00535
  Beta virt. eigenvalues --   -0.00100  -0.00019   0.00281   0.00360   0.00583

 Mulliken charges and spin densities:
               1          2
     1  Na   0.514715   0.322457
     2  Na   0.056621   0.014160
     3  Na   0.105054   0.365997
     4  Na  -0.056052   0.147170
     5  Na   0.520315  -0.195639
     6  Na  -1.263669   0.031983
     7  Na   0.123015   0.313872
 Sum of Mulliken charges =  -0.00000   1.00000

 Dipole moment (field-independent basis, Debye):
    X=             -0.0212    Y=             -0.3822    Z=             -0.1852  Tot=              0.4253
 Quadrupole moment (field-independent basis, Debye-Ang):
   XX=            -54.0295   YY=            -71.9489   ZZ=            -72.0657
   XY=              0.4466   XZ=              2.8873   YZ=             -1.2250

 Normal termination of Gaussian 16 at Sun Dec  3 14:00:51 2023.
