 Gaussian 16, Revision B.01,
 Gaussian 16:  ES64L-G16RevB.01 20-Dec-2017

 -------------------------
 #P B3LYP/6-311+g(d) force
 -------------------------

 -----
 DPGEN
 -----
 Symbolic Z-matrix:
 Charge =  0 Multiplicity = 2

                         Standard orientation:
 ---------------------------------------------------------------------
 Center     Atomic      Atomic             Coordinates (Angstroms)
 Number     Number       Type             X           Y           Z
 ---------------------------------------------------------------------
      1         11           0        0.328454   -2.701265    0.093204
      2         11           0        3.212534   -0.620446   -0.421599
      3         11           0       -0.124990    0.011880   -1.596149
      4         11           0        0.082822   -0.134241    2.095575
      5         11           0       -2.105231    2.155104   -0.101665
      6         11           0       -2.970894   -1.186611   -0.186031
      7         11           0        1.577305    2.475579    0.116666
 ---------------------------------------------------------------------

 SCF Done:  E(UB3LYP) =  -1136.13888906     A.U. after   19 cycles

 The electronic state is 2-A.
 Alpha  occ. eigenvalues --  -38.44160 -38.44007 -38.43593 -38.43556 -38.43383
 Alpha  occ. eigenvalues --  -38.43219 -38.43074  -2.19973  -2.19840  -2.19490
 Alpha  occ. eigenvalues --   -2.19401  -2.19221  -2.19210  -2.18963  -1.13645
 Alpha  occ. eigenvalues --   -1.13623  -1.13617  -1.13520  -1.13501  -1.13478
 Alpha  occ. eigenvalues --   -1.13163  -1.13123  -1.13105  -1.13103  -1.13061
 Alpha  occ. eigenvalues --   -1.13028  -1.12918  -1.12907  -1.12891  -1.12852
 Alpha  occ. eigenvalues --   -1.12846  -1.12816  -1.12647  -1.12632  -1.12569
 Alpha  occ. eigenvalues --   -0.18681  -0.13074  -0.12337  -0.10790
 Alpha virt. eigenvalues --   -0.05745  -0.05226  -0.04448  -0.03144  -0.02865
 Alpha virt. eigenvalues --   -0.02596  -0.01720  -0.01096  -0.00337  -0.00257
 Alpha virt. eigenvalues --   -0.00022   0.00337   0.00768   0.00881   0.00899

  Beta  occ. eigenvalues --  -38.44151 -38.44004 -38.43553 -38.43490 -38.43378
  Beta  occ. eigenvalues --  -38.43163 -38.43065  -2.19958  -2.19836  -2.19398
  Beta  occ. eigenvalues --   -2.19300  -2.19216  -2.19108  -2.18951  -1.13620
  Beta  occ. eigenvalues --   -1.13614  -1.13608  -1.13509  -1.13496  -1.13471
  Beta  occ. eigenvalues --   -1.13097  -1.13053  -1.13038  -1.13024  -1.12982
  Beta  occ. eigenvalues --   -1.12973  -1.12902  -1.12869  -1.12846  -1.12841
  Beta  occ. eigenvalues --   -1.12785  -1.12742  -1.12636  -1.12589  -1.12565
  Beta  occ. eigenvalues --   -0.17958  -0.12827  -0.12095
  Beta virt. eigenvalues --   -0.06868  -0.05678  -0.05239  -0.04411  -0.02411
  Beta virt. eigenvalues --   -0.02057  -0.01617  -0.01518  -0.01045  -0.00382
  Beta virt. eigenvalues --   -0.00292   0.00118   0.00369   0.00838   0.00872

 Mulliken charges and spin densities:
               1          2
     1  Na   0.296936  -0.013816
     2  Na   0.098435  -0.003751
     3  Na  -0.356533   0.435055
     4  Na  -0.478247   0.724659
     5  Na   0.130827  -0.058938
     6  Na   0.211386  -0.052657
     7  Na   0.097196  -0.030551
 Sum of Mulliken charges =  -0.00000   1.00000

 Dipole moment (field-independent basis, Debye):
    X=             -0.0146    Y=             -0.0185    Z=              0.0976  Tot=              0.1004
 Quadrupole moment (field-independent basis, Debye-Ang):
   XX=            -54.3540   YY=            -64.4805   ZZ=            -74.1626
   XY=              0.1791   XZ=             -0.6728   YZ=              0.5724

 Normal termination of Gaussian 16 at Thu Dec  7 13:35:56 2023.
