 Gaussian 16, Revision B.01,
 Gaussian 16:  ES64L-G16RevB.01 20-Dec-2017

 -------------------------
 #P B3LYP/6-311+g(d) force
 -------------------------

 -----
 DPGEN
 -----
 Symbolic Z-matrix:
 Charge =  0 Multiplicity = 2

                         Standard orientation:
 ---------------------------------------------------------------------
 Center     Atomic      Atomic             Coordinates (Angstroms)
 Number     Number       Type             X           Y           Z
 ---------------------------------------------------------------------
      1         11           0        2.593329   -2.387559   -0.429896
      2         11           0       -3.638062   -1.340065    0.639181
      3         11           0       -2.479657    1.769411   -0.264186
      4         11           0        0.505060    2.324255   -0.798387
      5         11           0       -0.029253   -0.297441    1.862980
      6         11           0        3.558573    1.102709    0.670494
      7         11           0       -0.509989   -1.171311   -1.680185
 ---------------------------------------------------------------------

 SCF Done:  E(UB3LYP) =  -1136.12269558     A.U. after   22 cycles

 The electronic state is 2-A.
 Alpha  occ. eigenvalues --  -38.45435 -38.44838 -38.44458 -38.43935 -38.43916
 Alpha  occ. eigenvalues --  -38.43832 -38.42528  -2.21220  -2.20610  -2.20249
 Alpha  occ. eigenvalues --   -2.19786  -2.19709  -2.19675  -2.18400  -1.14920
 Alpha  occ. eigenvalues --   -1.14876  -1.14824  -1.14283  -1.14254  -1.14240
 Alpha  occ. eigenvalues --   -1.13919  -1.13907  -1.13877  -1.13483  -1.13452
 Alpha  occ. eigenvalues --   -1.13415  -1.13387  -1.13377  -1.13356  -1.13348
 Alpha  occ. eigenvalues --   -1.13318  -1.13277  -1.12088  -1.12059  -1.12037
 Alpha  occ. eigenvalues --   -0.17817  -0.13564  -0.11578  -0.10780
 Alpha virt. eigenvalues --   -0.06939  -0.05789  -0.04206  -0.03213  -0.02900
 Alpha virt. eigenvalues --   -0.02565  -0.02341  -0.01481  -0.00779  -0.00460
 Alpha virt. eigenvalues --    0.00037   0.00101   0.00351   0.00579   0.00617

  Beta  occ. eigenvalues --  -38.45395 -38.44810 -38.44436 -38.43928 -38.43907
  Beta  occ. eigenvalues --  -38.43762 -38.42515  -2.21146  -2.20559  -2.20208
  Beta  occ. eigenvalues --   -2.19774  -2.19698  -2.19547  -2.18380  -1.14864
  Beta  occ. eigenvalues --   -1.14829  -1.14765  -1.14243  -1.14221  -1.14207
  Beta  occ. eigenvalues --   -1.13893  -1.13871  -1.13851  -1.13474  -1.13429
  Beta  occ. eigenvalues --   -1.13400  -1.13376  -1.13358  -1.13337  -1.13274
  Beta  occ. eigenvalues --   -1.13223  -1.13184  -1.12077  -1.12046  -1.11999
  Beta  occ. eigenvalues --   -0.17195  -0.13255  -0.11246
  Beta virt. eigenvalues --   -0.07277  -0.06604  -0.05722  -0.03812  -0.02925
  Beta virt. eigenvalues --   -0.02466  -0.02073  -0.01667  -0.01344  -0.00705
  Beta virt. eigenvalues --   -0.00251   0.00062   0.00160   0.00475   0.00690

 Mulliken charges and spin densities:
               1          2
     1  Na  -0.044862  -0.065270
     2  Na   0.329888   0.118664
     3  Na   0.190910   0.107642
     4  Na  -0.279859  -0.093741
     5  Na  -0.354906   0.316467
     6  Na   0.344163   0.214652
     7  Na  -0.185335   0.401585
 Sum of Mulliken charges =  -0.00000   1.00000

 Dipole moment (field-independent basis, Debye):
    X=             -0.0354    Y=             -0.3190    Z=              0.3971  Tot=              0.5105
 Quadrupole moment (field-independent basis, Debye-Ang):
   XX=            -50.4408   YY=            -73.2407   ZZ=            -71.7805
   XY=              0.5082   XZ=              0.6877   YZ=             -0.2061

 Normal termination of Gaussian 16 at Fri Dec  8 05:50:13 2023.
