 Gaussian 16, Revision B.01,
 Gaussian 16:  ES64L-G16RevB.01 20-Dec-2017

 -------------------------
 #P B3LYP/6-311+g(d) force
 -------------------------

 -----
 DPGEN
 -----
 Symbolic Z-matrix:
 Charge =  0 Multiplicity = 2

                         Standard orientation:
 ---------------------------------------------------------------------
 Center     Atomic      Atomic             Coordinates (Angstroms)
 Number     Number       Type             X           Y           Z
 ---------------------------------------------------------------------
      1         11           0       -4.735161   -1.584369   -0.330096
      2         11           0       -3.727159    2.032549   -0.224870
      3         11           0        4.884912   -0.654546   -0.049152
      4         11           0       -1.344139   -2.155360    0.400956
      5         11           0        2.435229   -2.713779   -0.094835
      6         11           0       -0.304104    2.320369    0.718278
      7         11           0        2.790421    2.755137   -0.420282
 ---------------------------------------------------------------------

 SCF Done:  E(UB3LYP) =  -1136.10612380     A.U. after   26 cycles

 The electronic state is 2-A.
 Alpha  occ. eigenvalues --  -38.45526 -38.45490 -38.45266 -38.44438 -38.44075
 Alpha  occ. eigenvalues --  -38.43711 -38.43686  -2.21284  -2.21247  -2.21019
 Alpha  occ. eigenvalues --   -2.20214  -2.19858  -2.19498  -2.19497  -1.14963
 Alpha  occ. eigenvalues --   -1.14941  -1.14919  -1.14909  -1.14901  -1.14873
 Alpha  occ. eigenvalues --   -1.14699  -1.14680  -1.14659  -1.13896  -1.13886
 Alpha  occ. eigenvalues --   -1.13865  -1.13532  -1.13519  -1.13464  -1.13170
 Alpha  occ. eigenvalues --   -1.13160  -1.13148  -1.13146  -1.13145  -1.13125
 Alpha  occ. eigenvalues --   -0.15758  -0.13990  -0.12615  -0.10645
 Alpha virt. eigenvalues --   -0.07976  -0.05056  -0.04558  -0.03622  -0.03480
 Alpha virt. eigenvalues --   -0.02598  -0.02139  -0.01643  -0.01133  -0.00764
 Alpha virt. eigenvalues --   -0.00538  -0.00287   0.00122   0.00267   0.00451

  Beta  occ. eigenvalues --  -38.45493 -38.45462 -38.45271 -38.44426 -38.44013
  Beta  occ. eigenvalues --  -38.43704 -38.43628  -2.21223  -2.21198  -2.21029
  Beta  occ. eigenvalues --   -2.20197  -2.19744  -2.19484  -2.19390  -1.14922
  Beta  occ. eigenvalues --   -1.14901  -1.14888  -1.14874  -1.14856  -1.14827
  Beta  occ. eigenvalues --   -1.14708  -1.14688  -1.14654  -1.13890  -1.13880
  Beta  occ. eigenvalues --   -1.13809  -1.13455  -1.13443  -1.13381  -1.13162
  Beta  occ. eigenvalues --   -1.13151  -1.13131  -1.13079  -1.13072  -1.13051
  Beta  occ. eigenvalues --   -0.15281  -0.13407  -0.12129
  Beta virt. eigenvalues --   -0.08134  -0.07318  -0.04442  -0.04097  -0.03331
  Beta virt. eigenvalues --   -0.03176  -0.02426  -0.02013  -0.01534  -0.00881
  Beta virt. eigenvalues --   -0.00564  -0.00380   0.00038   0.00269   0.00389

 Mulliken charges and spin densities:
               1          2
     1  Na   0.650780   0.178396
     2  Na   0.305327   0.148395
     3  Na  -0.207966   0.303903
     4  Na  -0.373341   0.216448
     5  Na   0.002832  -0.048060
     6  Na  -0.900499   0.039015
     7  Na   0.522868   0.161903
 Sum of Mulliken charges =  -0.00000   1.00000

 Dipole moment (field-independent basis, Debye):
    X=             -1.1325    Y=              0.6559    Z=             -0.3968  Tot=              1.3675
 Quadrupole moment (field-independent basis, Debye-Ang):
   XX=            -56.3978   YY=            -66.5111   ZZ=            -73.4381
   XY=              6.7068   XZ=              0.0402   YZ=             -1.0485

 Normal termination of Gaussian 16 at Sun Dec  3 23:32:12 2023.
