 Gaussian 16, Revision B.01,
 Gaussian 16:  ES64L-G16RevB.01 20-Dec-2017

 -------------------------
 #P B3LYP/6-311+g(d) force
 -------------------------

 -----
 DPGEN
 -----
 Symbolic Z-matrix:
 Charge =  0 Multiplicity = 2

                         Standard orientation:
 ---------------------------------------------------------------------
 Center     Atomic      Atomic             Coordinates (Angstroms)
 Number     Number       Type             X           Y           Z
 ---------------------------------------------------------------------
      1         11           0        3.183304    1.860046   -0.221264
      2         11           0        0.119804   -1.633477    2.137910
      3         11           0        0.553838   -0.986748   -1.565237
      4         11           0        3.746338   -1.474090   -0.695941
      5         11           0        0.066837    2.521759    0.811057
      6         11           0       -2.722491   -0.560595    0.701052
      7         11           0       -4.947630    0.273104   -1.167577
 ---------------------------------------------------------------------

 SCF Done:  E(UB3LYP) =  -1136.11098706     A.U. after   24 cycles

 The electronic state is 2-A.
 Alpha  occ. eigenvalues --  -38.45711 -38.45004 -38.44915 -38.44338 -38.43600
 Alpha  occ. eigenvalues --  -38.43273 -38.43081  -2.21482  -2.20811  -2.20748
 Alpha  occ. eigenvalues --   -2.20160  -2.19468  -2.19083  -2.18875  -1.15158
 Alpha  occ. eigenvalues --   -1.15143  -1.15128  -1.14465  -1.14454  -1.14423
 Alpha  occ. eigenvalues --   -1.14422  -1.14366  -1.14361  -1.13822  -1.13810
 Alpha  occ. eigenvalues --   -1.13785  -1.13169  -1.13131  -1.13115  -1.12769
 Alpha  occ. eigenvalues --   -1.12754  -1.12733  -1.12546  -1.12537  -1.12488
 Alpha  occ. eigenvalues --   -0.17104  -0.14210  -0.11843  -0.11021
 Alpha virt. eigenvalues --   -0.07011  -0.04928  -0.04853  -0.03326  -0.03138
 Alpha virt. eigenvalues --   -0.02716  -0.02077  -0.01467  -0.01369  -0.00470
 Alpha virt. eigenvalues --   -0.00407   0.00067   0.00260   0.00356   0.00641

  Beta  occ. eigenvalues --  -38.45724 -38.44931 -38.44822 -38.44299 -38.43589
  Beta  occ. eigenvalues --  -38.43281 -38.43049  -2.21507  -2.20677  -2.20575
  Beta  occ. eigenvalues --   -2.20088  -2.19459  -2.19101  -2.18816  -1.15173
  Beta  occ. eigenvalues --   -1.15164  -1.15138  -1.14372  -1.14357  -1.14337
  Beta  occ. eigenvalues --   -1.14306  -1.14249  -1.14244  -1.13773  -1.13759
  Beta  occ. eigenvalues --   -1.13742  -1.13147  -1.13120  -1.13075  -1.12784
  Beta  occ. eigenvalues --   -1.12763  -1.12729  -1.12507  -1.12493  -1.12453
  Beta  occ. eigenvalues --   -0.16573  -0.13326  -0.10820
  Beta virt. eigenvalues --   -0.08359  -0.06762  -0.04685  -0.04359  -0.03106
  Beta virt. eigenvalues --   -0.02861  -0.02345  -0.01643  -0.01235  -0.01041
  Beta virt. eigenvalues --   -0.00253  -0.00228   0.00158   0.00335   0.00476

 Mulliken charges and spin densities:
               1          2
     1  Na  -0.203363   0.000836
     2  Na   0.326940   0.109611
     3  Na  -0.471987  -0.090644
     4  Na   0.697010   0.198840
     5  Na  -0.126240   0.107983
     6  Na  -0.897035   0.407013
     7  Na   0.674675   0.266359
 Sum of Mulliken charges =  -0.00000   1.00000

 Dipole moment (field-independent basis, Debye):
    X=              0.0594    Y=             -1.1161    Z=             -0.2359  Tot=              1.1423
 Quadrupole moment (field-independent basis, Debye-Ang):
   XX=            -57.1912   YY=            -80.3643   ZZ=            -62.9629
   XY=             -5.2966   XZ=              4.6457   YZ=             -2.8901

 Normal termination of Gaussian 16 at Sun Dec  3 21:24:06 2023.
