 Gaussian 16, Revision B.01,
 Gaussian 16:  ES64L-G16RevB.01 20-Dec-2017

 -------------------------
 #P B3LYP/6-311+g(d) force
 -------------------------

 -----
 DPGEN
 -----
 Symbolic Z-matrix:
 Charge =  0 Multiplicity = 2

                         Standard orientation:
 ---------------------------------------------------------------------
 Center     Atomic      Atomic             Coordinates (Angstroms)
 Number     Number       Type             X           Y           Z
 ---------------------------------------------------------------------
      1         11           0        2.824927   -1.189249   -0.421020
      2         11           0        2.278340    1.946817    0.252794
      3         11           0        0.061489    0.217100   -1.506626
      4         11           0       -0.091539   -0.017674    2.274305
      5         11           0       -1.815895    2.525076   -0.413608
      6         11           0       -2.891176   -0.878957   -0.037668
      7         11           0       -0.366146   -2.603113   -0.148178
 ---------------------------------------------------------------------

 SCF Done:  E(UB3LYP) =  -1136.13436389     A.U. after   19 cycles

 The electronic state is 2-A.
 Alpha  occ. eigenvalues --  -38.44082 -38.43972 -38.43889 -38.43757 -38.43459
 Alpha  occ. eigenvalues --  -38.43083 -38.42868  -2.19941  -2.19850  -2.19737
 Alpha  occ. eigenvalues --   -2.19626  -2.19286  -2.19123  -2.18800  -1.13599
 Alpha  occ. eigenvalues --   -1.13567  -1.13564  -1.13551  -1.13504  -1.13483
 Alpha  occ. eigenvalues --   -1.13440  -1.13400  -1.13381  -1.13309  -1.13271
 Alpha  occ. eigenvalues --   -1.13250  -1.13010  -1.12935  -1.12915  -1.12821
 Alpha  occ. eigenvalues --   -1.12769  -1.12735  -1.12483  -1.12444  -1.12433
 Alpha  occ. eigenvalues --   -0.18864  -0.13275  -0.12231  -0.11113
 Alpha virt. eigenvalues --   -0.05578  -0.05259  -0.04292  -0.03365  -0.02919
 Alpha virt. eigenvalues --   -0.02783  -0.01504  -0.01086  -0.00295  -0.00068
 Alpha virt. eigenvalues --   -0.00019   0.00351   0.00768   0.00889   0.00943

  Beta  occ. eigenvalues --  -38.43973 -38.43969 -38.43883 -38.43749 -38.43453
  Beta  occ. eigenvalues --  -38.43030 -38.42860  -2.19848  -2.19740  -2.19729
  Beta  occ. eigenvalues --   -2.19614  -2.19276  -2.19028  -2.18790  -1.13558
  Beta  occ. eigenvalues --   -1.13493  -1.13476  -1.13463  -1.13436  -1.13426
  Beta  occ. eigenvalues --   -1.13412  -1.13382  -1.13366  -1.13291  -1.13257
  Beta  occ. eigenvalues --   -1.13242  -1.12990  -1.12924  -1.12907  -1.12758
  Beta  occ. eigenvalues --   -1.12701  -1.12665  -1.12475  -1.12434  -1.12401
  Beta  occ. eigenvalues --   -0.18133  -0.13055  -0.11978
  Beta virt. eigenvalues --   -0.07118  -0.05524  -0.05225  -0.04271  -0.02574
  Beta virt. eigenvalues --   -0.02069  -0.01767  -0.01412  -0.01010  -0.00320
  Beta virt. eigenvalues --   -0.00093   0.00120   0.00383   0.00849   0.00885

 Mulliken charges and spin densities:
               1          2
     1  Na   0.301805   0.023838
     2  Na   0.175167   0.079149
     3  Na  -0.528125   0.099514
     4  Na  -0.675068   0.661701
     5  Na   0.197004   0.012950
     6  Na   0.247192   0.030380
     7  Na   0.282025   0.092467
 Sum of Mulliken charges =  -0.00000   1.00000

 Dipole moment (field-independent basis, Debye):
    X=              0.0909    Y=              0.1995    Z=              0.3492  Tot=              0.4123
 Quadrupole moment (field-independent basis, Debye-Ang):
   XX=            -56.3477   YY=            -65.0989   ZZ=            -72.8492
   XY=              0.0452   XZ=             -0.0858   YZ=              0.7911

 Normal termination of Gaussian 16 at Fri Dec  8 06:57:34 2023.
