 Gaussian 16, Revision B.01,
 Gaussian 16:  ES64L-G16RevB.01 20-Dec-2017

 -------------------------
 #P B3LYP/6-311+g(d) force
 -------------------------

 -----
 DPGEN
 -----
 Symbolic Z-matrix:
 Charge =  0 Multiplicity = 2

                         Standard orientation:
 ---------------------------------------------------------------------
 Center     Atomic      Atomic             Coordinates (Angstroms)
 Number     Number       Type             X           Y           Z
 ---------------------------------------------------------------------
      1         11           0        2.599808    1.697222    0.131738
      2         11           0       -0.599961    2.442223   -0.842919
      3         11           0        3.215148   -1.823132    0.179691
      4         11           0       -3.743746    0.437623    0.507983
      5         11           0        0.663633   -0.492996   -1.439567
      6         11           0        0.063745   -0.040233    2.054442
      7         11           0       -2.198626   -2.220707   -0.591369
 ---------------------------------------------------------------------

 SCF Done:  E(UB3LYP) =  -1136.12373391     A.U. after   22 cycles

 The electronic state is 2-A.
 Alpha  occ. eigenvalues --  -38.45250 -38.44625 -38.44229 -38.44044 -38.43950
 Alpha  occ. eigenvalues --  -38.43163 -38.42603  -2.21026  -2.20446  -2.20093
 Alpha  occ. eigenvalues --   -2.19844  -2.19765  -2.19138  -2.18459  -1.14695
 Alpha  occ. eigenvalues --   -1.14687  -1.14662  -1.14131  -1.14083  -1.14052
 Alpha  occ. eigenvalues --   -1.13781  -1.13764  -1.13711  -1.13525  -1.13504
 Alpha  occ. eigenvalues --   -1.13486  -1.13440  -1.13420  -1.13407  -1.12827
 Alpha  occ. eigenvalues --   -1.12778  -1.12769  -1.12156  -1.12106  -1.12085
 Alpha  occ. eigenvalues --   -0.18182  -0.13693  -0.11431  -0.10679
 Alpha virt. eigenvalues --   -0.06890  -0.05672  -0.04025  -0.03376  -0.02603
 Alpha virt. eigenvalues --   -0.02433  -0.02345  -0.01396  -0.00719  -0.00313
 Alpha virt. eigenvalues --    0.00007   0.00193   0.00453   0.00622   0.00694

  Beta  occ. eigenvalues --  -38.45245 -38.44544 -38.44224 -38.44050 -38.43935
  Beta  occ. eigenvalues --  -38.43100 -38.42586  -2.21018  -2.20297  -2.20086
  Beta  occ. eigenvalues --   -2.19858  -2.19740  -2.19024  -2.18431  -1.14689
  Beta  occ. eigenvalues --   -1.14677  -1.14657  -1.14027  -1.13981  -1.13942
  Beta  occ. eigenvalues --   -1.13772  -1.13747  -1.13703  -1.13528  -1.13515
  Beta  occ. eigenvalues --   -1.13488  -1.13417  -1.13401  -1.13383  -1.12751
  Beta  occ. eigenvalues --   -1.12693  -1.12677  -1.12130  -1.12077  -1.12064
  Beta  occ. eigenvalues --   -0.17470  -0.13561  -0.11198
  Beta virt. eigenvalues --   -0.06936  -0.06554  -0.05634  -0.03813  -0.02899
  Beta virt. eigenvalues --   -0.02269  -0.01875  -0.01508  -0.01232  -0.00696
  Beta virt. eigenvalues --   -0.00182   0.00061   0.00224   0.00608   0.00701

 Mulliken charges and spin densities:
               1          2
     1  Na   0.442157   0.105923
     2  Na  -0.180104   0.018769
     3  Na   0.033548   0.012757
     4  Na  -0.009931   0.089180
     5  Na   0.016316   0.131346
     6  Na  -0.407768   0.593479
     7  Na   0.105781   0.048545
 Sum of Mulliken charges =  -0.00000   1.00000

 Dipole moment (field-independent basis, Debye):
    X=             -0.2608    Y=              0.1456    Z=              0.5270  Tot=              0.6057
 Quadrupole moment (field-independent basis, Debye-Ang):
   XX=            -48.5765   YY=            -70.0268   ZZ=            -74.5396
   XY=             -0.9743   XZ=              0.3906   YZ=              0.1062

 Normal termination of Gaussian 16 at Wed Dec  6 01:00:12 2023.
