 Gaussian 16, Revision B.01,
 Gaussian 16:  ES64L-G16RevB.01 20-Dec-2017

 -------------------------
 #P B3LYP/6-311+g(d) force
 -------------------------

 -----
 DPGEN
 -----
 Symbolic Z-matrix:
 Charge =  0 Multiplicity = 2

                         Standard orientation:
 ---------------------------------------------------------------------
 Center     Atomic      Atomic             Coordinates (Angstroms)
 Number     Number       Type             X           Y           Z
 ---------------------------------------------------------------------
      1         11           0       -2.073060    2.029337    0.025157
      2         11           0        0.537199    1.011641    1.801449
      3         11           0        2.790799    1.577444   -0.755093
      4         11           0       -3.219105   -1.012536   -0.870467
      5         11           0       -0.562656   -1.507080    1.557290
      6         11           0        2.503091   -1.934558   -0.279288
      7         11           0        0.023730   -0.164248   -1.479048
 ---------------------------------------------------------------------

 SCF Done:  E(UB3LYP) =  -1136.12314689     A.U. after   22 cycles

 The electronic state is 2-A.
 Alpha  occ. eigenvalues --  -38.44305 -38.44025 -38.43737 -38.43685 -38.43614
 Alpha  occ. eigenvalues --  -38.43579 -38.43544  -2.20142  -2.19861  -2.19738
 Alpha  occ. eigenvalues --   -2.19582  -2.19576  -2.19522  -2.19403  -1.13815
 Alpha  occ. eigenvalues --   -1.13787  -1.13778  -1.13705  -1.13548  -1.13524
 Alpha  occ. eigenvalues --   -1.13485  -1.13360  -1.13332  -1.13292  -1.13268
 Alpha  occ. eigenvalues --   -1.13213  -1.13187  -1.13170  -1.13162  -1.13153
 Alpha  occ. eigenvalues --   -1.13136  -1.13123  -1.13073  -1.13068  -1.13025
 Alpha  occ. eigenvalues --   -0.19000  -0.13701  -0.11901  -0.11187
 Alpha virt. eigenvalues --   -0.05872  -0.05347  -0.03999  -0.03168  -0.02977
 Alpha virt. eigenvalues --   -0.02831  -0.01974  -0.01038  -0.00400   0.00067
 Alpha virt. eigenvalues --    0.00269   0.00353   0.00608   0.00677   0.00830

  Beta  occ. eigenvalues --  -38.44282 -38.44009 -38.43683 -38.43652 -38.43544
  Beta  occ. eigenvalues --  -38.43540 -38.43539  -2.20100  -2.19831  -2.19589
  Beta  occ. eigenvalues --   -2.19519  -2.19510  -2.19452  -2.19398  -1.13777
  Beta  occ. eigenvalues --   -1.13762  -1.13750  -1.13578  -1.13517  -1.13507
  Beta  occ. eigenvalues --   -1.13462  -1.13276  -1.13256  -1.13230  -1.13207
  Beta  occ. eigenvalues --   -1.13173  -1.13160  -1.13146  -1.13130  -1.13098
  Beta  occ. eigenvalues --   -1.13064  -1.13055  -1.13049  -1.13019  -1.13007
  Beta  occ. eigenvalues --   -0.18249  -0.13325  -0.11050
  Beta virt. eigenvalues --   -0.07833  -0.05700  -0.05313  -0.03411  -0.02933
  Beta virt. eigenvalues --   -0.02329  -0.01870  -0.01769  -0.01011  -0.00161
  Beta virt. eigenvalues --    0.00104   0.00298   0.00352   0.00653   0.00778

 Mulliken charges and spin densities:
               1          2
     1  Na  -0.304384  -0.034020
     2  Na   0.523124   0.318282
     3  Na   0.083695   0.029098
     4  Na   0.408850   0.186975
     5  Na  -0.220890   0.148144
     6  Na  -0.097433   0.049016
     7  Na  -0.392963   0.302506
 Sum of Mulliken charges =  -0.00000   1.00000

 Dipole moment (field-independent basis, Debye):
    X=             -0.0622    Y=             -0.0411    Z=             -0.4149  Tot=              0.4216
 Quadrupole moment (field-independent basis, Debye-Ang):
   XX=            -52.3070   YY=            -71.9303   ZZ=            -69.1376
   XY=              0.5747   XZ=              0.1289   YZ=             -0.4424

 Normal termination of Gaussian 16 at Tue Dec  5 09:47:26 2023.
