 Gaussian 16, Revision B.01,
 Gaussian 16:  ES64L-G16RevB.01 20-Dec-2017

 -------------------------
 #P B3LYP/6-311+g(d) force
 -------------------------

 -----
 DPGEN
 -----
 Symbolic Z-matrix:
 Charge =  0 Multiplicity = 2

                         Standard orientation:
 ---------------------------------------------------------------------
 Center     Atomic      Atomic             Coordinates (Angstroms)
 Number     Number       Type             X           Y           Z
 ---------------------------------------------------------------------
      1         11           0       -3.242709   -0.959399   -0.401528
      2         11           0       -2.151088    1.777773    0.504956
      3         11           0        0.772799   -0.089979    1.960394
      4         11           0        1.282918    2.571363   -0.055617
      5         11           0        3.110471   -0.734581   -0.462337
      6         11           0        0.093329   -2.762533    0.337194
      7         11           0        0.134280    0.197356   -1.883062
 ---------------------------------------------------------------------

 SCF Done:  E(UB3LYP) =  -1136.13491628     A.U. after   20 cycles

 The electronic state is 2-A.
 Alpha  occ. eigenvalues --  -38.44480 -38.43992 -38.43785 -38.43602 -38.43578
 Alpha  occ. eigenvalues --  -38.43303 -38.43092  -2.20313  -2.19810  -2.19704
 Alpha  occ. eigenvalues --   -2.19533  -2.19441  -2.19139  -2.18970  -1.13996
 Alpha  occ. eigenvalues --   -1.13976  -1.13937  -1.13529  -1.13467  -1.13438
 Alpha  occ. eigenvalues --   -1.13387  -1.13347  -1.13322  -1.13211  -1.13176
 Alpha  occ. eigenvalues --   -1.13156  -1.13105  -1.13099  -1.13073  -1.12834
 Alpha  occ. eigenvalues --   -1.12803  -1.12749  -1.12656  -1.12637  -1.12589
 Alpha  occ. eigenvalues --   -0.18600  -0.13201  -0.12160  -0.11087
 Alpha virt. eigenvalues --   -0.06006  -0.04931  -0.04360  -0.03421  -0.02979
 Alpha virt. eigenvalues --   -0.02799  -0.01719  -0.00929  -0.00377  -0.00064
 Alpha virt. eigenvalues --   -0.00041   0.00361   0.00732   0.00833   0.00899

  Beta  occ. eigenvalues --  -38.44468 -38.43992 -38.43711 -38.43570 -38.43518
  Beta  occ. eigenvalues --  -38.43295 -38.43086  -2.20294  -2.19810  -2.19569
  Beta  occ. eigenvalues --   -2.19430  -2.19378  -2.19128  -2.18963  -1.13967
  Beta  occ. eigenvalues --   -1.13959  -1.13922  -1.13531  -1.13457  -1.13440
  Beta  occ. eigenvalues --   -1.13299  -1.13253  -1.13217  -1.13111  -1.13099
  Beta  occ. eigenvalues --   -1.13080  -1.13071  -1.13065  -1.13035  -1.12815
  Beta  occ. eigenvalues --   -1.12779  -1.12745  -1.12650  -1.12613  -1.12578
  Beta  occ. eigenvalues --   -0.17856  -0.13003  -0.11899
  Beta virt. eigenvalues --   -0.07170  -0.05926  -0.04897  -0.04283  -0.02739
  Beta virt. eigenvalues --   -0.02190  -0.01782  -0.01601  -0.00876  -0.00350
  Beta virt. eigenvalues --   -0.00095   0.00085   0.00396   0.00859   0.00887

 Mulliken charges and spin densities:
               1          2
     1  Na   0.022553  -0.036154
     2  Na  -0.078258  -0.006548
     3  Na   0.017812   0.566163
     4  Na   0.176813  -0.062417
     5  Na   0.210668  -0.072228
     6  Na  -0.140458  -0.091921
     7  Na  -0.209131   0.703106
 Sum of Mulliken charges =  -0.00000   1.00000

 Dipole moment (field-independent basis, Debye):
    X=              0.3677    Y=             -0.1506    Z=             -0.1319  Tot=              0.4187
 Quadrupole moment (field-independent basis, Debye-Ang):
   XX=            -55.6291   YY=            -66.9200   ZZ=            -72.1268
   XY=              0.5286   XZ=             -0.8342   YZ=              1.3909

 Normal termination of Gaussian 16 at Wed Dec  6 00:09:19 2023.
