 Gaussian 16, Revision B.01,
 Gaussian 16:  ES64L-G16RevB.01 20-Dec-2017

 -------------------------
 #P B3LYP/6-311+g(d) force
 -------------------------

 -----
 DPGEN
 -----
 Symbolic Z-matrix:
 Charge =  0 Multiplicity = 2

                         Standard orientation:
 ---------------------------------------------------------------------
 Center     Atomic      Atomic             Coordinates (Angstroms)
 Number     Number       Type             X           Y           Z
 ---------------------------------------------------------------------
      1         11           0       -3.790011   -0.938446    0.719723
      2         11           0        1.238012    1.563468   -1.209948
      3         11           0       -1.333189   -0.872698   -1.355506
      4         11           0        3.537868    0.672746    0.979872
      5         11           0       -2.023308    2.061250   -0.075743
      6         11           0        2.226170   -2.164639   -0.642447
      7         11           0        0.144458   -0.321680    1.584048
 ---------------------------------------------------------------------

 SCF Done:  E(UB3LYP) =  -1136.12395343     A.U. after   25 cycles

 The electronic state is 2-A.
 Alpha  occ. eigenvalues --  -38.45083 -38.44653 -38.44396 -38.43622 -38.43547
 Alpha  occ. eigenvalues --  -38.43344 -38.42630  -2.20950  -2.20499  -2.20219
 Alpha  occ. eigenvalues --   -2.19501  -2.19444  -2.19215  -2.18531  -1.14676
 Alpha  occ. eigenvalues --   -1.14594  -1.14564  -1.14168  -1.14144  -1.14115
 Alpha  occ. eigenvalues --   -1.13902  -1.13867  -1.13853  -1.13210  -1.13143
 Alpha  occ. eigenvalues --   -1.13128  -1.13112  -1.13101  -1.13082  -1.12899
 Alpha  occ. eigenvalues --   -1.12888  -1.12828  -1.12218  -1.12200  -1.12152
 Alpha  occ. eigenvalues --   -0.18608  -0.14385  -0.10963  -0.10828
 Alpha virt. eigenvalues --   -0.06986  -0.05392  -0.04613  -0.02985  -0.02860
 Alpha virt. eigenvalues --   -0.02221  -0.02088  -0.01159  -0.00994  -0.00298
 Alpha virt. eigenvalues --    0.00079   0.00201   0.00313   0.00592   0.00741

  Beta  occ. eigenvalues --  -38.45059 -38.44607 -38.44378 -38.43599 -38.43499
  Beta  occ. eigenvalues --  -38.43343 -38.42606  -2.20908  -2.20414  -2.20187
  Beta  occ. eigenvalues --   -2.19416  -2.19404  -2.19215  -2.18493  -1.14630
  Beta  occ. eigenvalues --   -1.14567  -1.14532  -1.14108  -1.14084  -1.14060
  Beta  occ. eigenvalues --   -1.13882  -1.13844  -1.13827  -1.13158  -1.13088
  Beta  occ. eigenvalues --   -1.13078  -1.13070  -1.13050  -1.13035  -1.12897
  Beta  occ. eigenvalues --   -1.12881  -1.12817  -1.12194  -1.12139  -1.12132
  Beta  occ. eigenvalues --   -0.17935  -0.14070  -0.10660
  Beta virt. eigenvalues --   -0.07192  -0.06724  -0.05313  -0.04017  -0.02835
  Beta virt. eigenvalues --   -0.02590  -0.01704  -0.01345  -0.01061  -0.00613
  Beta virt. eigenvalues --   -0.00240   0.00123   0.00240   0.00431   0.00680

 Mulliken charges and spin densities:
               1          2
     1  Na   0.440255   0.170010
     2  Na  -0.296118   0.085734
     3  Na  -0.094433   0.193838
     4  Na   0.587177   0.159378
     5  Na   0.085503   0.057227
     6  Na  -0.162535   0.115392
     7  Na  -0.559848   0.218420
 Sum of Mulliken charges =  -0.00000   1.00000

 Dipole moment (field-independent basis, Debye):
    X=             -0.0132    Y=              0.0563    Z=              0.3473  Tot=              0.3521
 Quadrupole moment (field-independent basis, Debye-Ang):
   XX=            -49.4781   YY=            -76.0809   ZZ=            -68.9339
   XY=             -0.4532   XZ=             -1.2331   YZ=              2.1768

 Normal termination of Gaussian 16 at Tue Dec  5 23:16:38 2023.
