 Gaussian 16, Revision B.01,
 Gaussian 16:  ES64L-G16RevB.01 20-Dec-2017

 -------------------------
 #P B3LYP/6-311+g(d) force
 -------------------------

 -----
 DPGEN
 -----
 Symbolic Z-matrix:
 Charge =  0 Multiplicity = 2

                         Standard orientation:
 ---------------------------------------------------------------------
 Center     Atomic      Atomic             Coordinates (Angstroms)
 Number     Number       Type             X           Y           Z
 ---------------------------------------------------------------------
      1         11           0       -3.791000   -0.820672   -0.626680
      2         11           0        2.018824   -2.023358    0.460597
      3         11           0       -1.978969    2.003783   -0.341281
      4         11           0       -1.418812   -1.111032    1.613723
      5         11           0       -0.002862   -0.262906   -1.615448
      6         11           0        3.953495    0.242178   -0.847346
      7         11           0        1.219324    1.972008    1.356435
 ---------------------------------------------------------------------

 SCF Done:  E(UB3LYP) =  -1136.12108868     A.U. after   30 cycles

 The electronic state is 2-A.
 Alpha  occ. eigenvalues --  -38.45390 -38.45081 -38.44558 -38.43662 -38.43515
 Alpha  occ. eigenvalues --  -38.43153 -38.43025  -2.21239  -2.20881  -2.20386
 Alpha  occ. eigenvalues --   -2.19535  -2.19363  -2.19027  -2.18834  -1.14948
 Alpha  occ. eigenvalues --   -1.14904  -1.14850  -1.14551  -1.14526  -1.14508
 Alpha  occ. eigenvalues --   -1.14067  -1.14043  -1.14025  -1.13209  -1.13177
 Alpha  occ. eigenvalues --   -1.13163  -1.13056  -1.13021  -1.12999  -1.12735
 Alpha  occ. eigenvalues --   -1.12693  -1.12642  -1.12501  -1.12484  -1.12463
 Alpha  occ. eigenvalues --   -0.18182  -0.14223  -0.10986  -0.10841
 Alpha virt. eigenvalues --   -0.07281  -0.05118  -0.04646  -0.03185  -0.02993
 Alpha virt. eigenvalues --   -0.02472  -0.02175  -0.01156  -0.01053  -0.00291
 Alpha virt. eigenvalues --   -0.00017   0.00211   0.00277   0.00688   0.00746

  Beta  occ. eigenvalues --  -38.45369 -38.45046 -38.44555 -38.43604 -38.43500
  Beta  occ. eigenvalues --  -38.43149 -38.42986  -2.21200  -2.20816  -2.20382
  Beta  occ. eigenvalues --   -2.19430  -2.19341  -2.19023  -2.18763  -1.14905
  Beta  occ. eigenvalues --   -1.14882  -1.14820  -1.14509  -1.14476  -1.14465
  Beta  occ. eigenvalues --   -1.14067  -1.14036  -1.14016  -1.13139  -1.13096
  Beta  occ. eigenvalues --   -1.13084  -1.13043  -1.13007  -1.12949  -1.12736
  Beta  occ. eigenvalues --   -1.12689  -1.12621  -1.12445  -1.12430  -1.12421
  Beta  occ. eigenvalues --   -0.17530  -0.13931  -0.10720
  Beta virt. eigenvalues --   -0.07241  -0.07023  -0.05036  -0.04076  -0.02954
  Beta virt. eigenvalues --   -0.02716  -0.01971  -0.01460  -0.01007  -0.00721
  Beta virt. eigenvalues --   -0.00248   0.00042   0.00234   0.00405   0.00743

 Mulliken charges and spin densities:
               1          2
     1  Na   0.476080   0.082647
     2  Na   0.000353   0.113354
     3  Na   0.135064   0.110221
     4  Na  -0.184991   0.246372
     5  Na  -0.371670   0.002876
     6  Na   0.376975   0.204796
     7  Na  -0.431810   0.239734
 Sum of Mulliken charges =  -0.00000   1.00000

 Dipole moment (field-independent basis, Debye):
    X=              0.1785    Y=             -0.0293    Z=             -0.4549  Tot=              0.4895
 Quadrupole moment (field-independent basis, Debye-Ang):
   XX=            -48.9122   YY=            -77.7111   ZZ=            -68.5758
   XY=              1.8492   XZ=              0.5447   YZ=             -0.2711

 Normal termination of Gaussian 16 at Tue Dec  5 23:16:14 2023.
