 Gaussian 16, Revision B.01,
 Gaussian 16:  ES64L-G16RevB.01 20-Dec-2017

 -------------------------
 #P B3LYP/6-311+g(d) force
 -------------------------

 -----
 DPGEN
 -----
 Symbolic Z-matrix:
 Charge =  0 Multiplicity = 2

                         Standard orientation:
 ---------------------------------------------------------------------
 Center     Atomic      Atomic             Coordinates (Angstroms)
 Number     Number       Type             X           Y           Z
 ---------------------------------------------------------------------
      1         11           0       -1.935840    1.936252    0.648399
      2         11           0        0.723244    2.082223   -0.804812
      3         11           0        0.472794   -0.877642   -1.539975
      4         11           0        1.845663    0.243919    1.714965
      5         11           0       -3.303398   -0.807830   -0.959064
      6         11           0       -1.398237   -1.763015    1.431681
      7         11           0        3.595773   -0.813907   -0.491195
 ---------------------------------------------------------------------

 SCF Done:  E(UB3LYP) =  -1136.12147831     A.U. after   24 cycles

 The electronic state is 2-A.
 Alpha  occ. eigenvalues --  -38.44780 -38.44573 -38.44135 -38.44130 -38.43825
 Alpha  occ. eigenvalues --  -38.43342 -38.42635  -2.20633  -2.20404  -2.20056
 Alpha  occ. eigenvalues --   -2.20050  -2.19672  -2.19207  -2.18581  -1.14357
 Alpha  occ. eigenvalues --   -1.14290  -1.14260  -1.14075  -1.14055  -1.14050
 Alpha  occ. eigenvalues --   -1.13765  -1.13722  -1.13703  -1.13696  -1.13665
 Alpha  occ. eigenvalues --   -1.13651  -1.13343  -1.13321  -1.13303  -1.12914
 Alpha  occ. eigenvalues --   -1.12867  -1.12844  -1.12284  -1.12228  -1.12187
 Alpha  occ. eigenvalues --   -0.18696  -0.14098  -0.11321  -0.11207
 Alpha virt. eigenvalues --   -0.06769  -0.05145  -0.04439  -0.03258  -0.02734
 Alpha virt. eigenvalues --   -0.02608  -0.02297  -0.01114  -0.00409  -0.00046
 Alpha virt. eigenvalues --    0.00185   0.00272   0.00345   0.00803   0.00835

  Beta  occ. eigenvalues --  -38.44777 -38.44567 -38.44077 -38.44067 -38.43791
  Beta  occ. eigenvalues --  -38.43339 -38.42618  -2.20631  -2.20394  -2.19945
  Beta  occ. eigenvalues --   -2.19941  -2.19611  -2.19204  -2.18554  -1.14348
  Beta  occ. eigenvalues --   -1.14282  -1.14254  -1.14067  -1.14050  -1.14038
  Beta  occ. eigenvalues --   -1.13690  -1.13639  -1.13619  -1.13616  -1.13589
  Beta  occ. eigenvalues --   -1.13570  -1.13304  -1.13277  -1.13247  -1.12914
  Beta  occ. eigenvalues --   -1.12848  -1.12844  -1.12264  -1.12185  -1.12171
  Beta  occ. eigenvalues --   -0.17948  -0.13958  -0.11099
  Beta virt. eigenvalues --   -0.07359  -0.06563  -0.04814  -0.04008  -0.03097
  Beta virt. eigenvalues --   -0.02327  -0.02012  -0.01690  -0.00847  -0.00219
  Beta virt. eigenvalues --    0.00015   0.00224   0.00345   0.00443   0.00848

 Mulliken charges and spin densities:
               1          2
     1  Na  -0.103040   0.090361
     2  Na  -0.114263   0.051420
     3  Na  -0.194002   0.369142
     4  Na  -0.132015   0.256354
     5  Na   0.542677  -0.035760
     6  Na  -0.311323   0.253505
     7  Na   0.311964   0.014979
 Sum of Mulliken charges =  -0.00000   1.00000

 Dipole moment (field-independent basis, Debye):
    X=              0.1550    Y=             -0.3299    Z=             -0.1405  Tot=              0.3907
 Quadrupole moment (field-independent basis, Debye-Ang):
   XX=            -49.3793   YY=            -77.5838   ZZ=            -68.1565
   XY=             -1.2430   XZ=              0.7083   YZ=              0.6586

 Normal termination of Gaussian 16 at Wed Nov 29 03:10:48 2023.
