 Gaussian 16, Revision B.01,
 Gaussian 16:  ES64L-G16RevB.01 20-Dec-2017

 -------------------------
 #P B3LYP/6-311+g(d) force
 -------------------------

 -----
 DPGEN
 -----
 Symbolic Z-matrix:
 Charge =  0 Multiplicity = 2

                         Standard orientation:
 ---------------------------------------------------------------------
 Center     Atomic      Atomic             Coordinates (Angstroms)
 Number     Number       Type             X           Y           Z
 ---------------------------------------------------------------------
      1         11           0        3.948142   -0.376104    0.622064
      2         11           0       -1.352534   -1.915069   -0.854023
      3         11           0       -4.394543   -0.022093    0.603333
      4         11           0        1.637590    2.162217   -0.095104
      5         11           0        0.368666   -0.704690    1.949857
      6         11           0        1.731650   -0.769394   -1.590798
      7         11           0       -1.938971    1.625133   -0.635328
 ---------------------------------------------------------------------

 SCF Done:  E(UB3LYP) =  -1136.11274562     A.U. after   27 cycles

 The electronic state is 2-A.
 Alpha  occ. eigenvalues --  -38.46039 -38.45216 -38.45140 -38.44077 -38.43329
 Alpha  occ. eigenvalues --  -38.42921 -38.42630  -2.21823  -2.21057  -2.20940
 Alpha  occ. eigenvalues --   -2.19997  -2.19165  -2.18783  -2.18491  -1.15513
 Alpha  occ. eigenvalues --   -1.15463  -1.15447  -1.14755  -1.14685  -1.14676
 Alpha  occ. eigenvalues --   -1.14601  -1.14592  -1.14560  -1.13685  -1.13659
 Alpha  occ. eigenvalues --   -1.13610  -1.12854  -1.12836  -1.12809  -1.12473
 Alpha  occ. eigenvalues --   -1.12467  -1.12394  -1.12182  -1.12157  -1.12112
 Alpha  occ. eigenvalues --   -0.18202  -0.14372  -0.10871  -0.10770
 Alpha virt. eigenvalues --   -0.08022  -0.04953  -0.04644  -0.03400  -0.03051
 Alpha virt. eigenvalues --   -0.02279  -0.02132  -0.01655  -0.01029  -0.00313
 Alpha virt. eigenvalues --   -0.00253   0.00157   0.00178   0.00669   0.00737

  Beta  occ. eigenvalues --  -38.46013 -38.45179 -38.45098 -38.44038 -38.43321
  Beta  occ. eigenvalues --  -38.42904 -38.42612  -2.21773  -2.20987  -2.20860
  Beta  occ. eigenvalues --   -2.19929  -2.19156  -2.18756  -2.18461  -1.15475
  Beta  occ. eigenvalues --   -1.15430  -1.15406  -1.14709  -1.14633  -1.14627
  Beta  occ. eigenvalues --   -1.14550  -1.14537  -1.14507  -1.13622  -1.13605
  Beta  occ. eigenvalues --   -1.13562  -1.12852  -1.12825  -1.12777  -1.12459
  Beta  occ. eigenvalues --   -1.12440  -1.12360  -1.12158  -1.12130  -1.12084
  Beta  occ. eigenvalues --   -0.17585  -0.14019  -0.10482
  Beta virt. eigenvalues --   -0.07754  -0.07289  -0.04760  -0.04180  -0.03086
  Beta virt. eigenvalues --   -0.02862  -0.01814  -0.01664  -0.01137  -0.00862
  Beta virt. eigenvalues --   -0.00222  -0.00154   0.00198   0.00338   0.00752

 Mulliken charges and spin densities:
               1          2
     1  Na   0.715490   0.296334
     2  Na   0.061091   0.045239
     3  Na   0.554218   0.254450
     4  Na  -0.351557   0.058267
     5  Na  -0.287603   0.160827
     6  Na  -0.064846   0.192741
     7  Na  -0.626793  -0.007858
 Sum of Mulliken charges =  -0.00000   1.00000

 Dipole moment (field-independent basis, Debye):
    X=              0.3102    Y=             -0.8340    Z=              0.6994  Tot=              1.1318
 Quadrupole moment (field-independent basis, Debye-Ang):
   XX=            -47.9809   YY=            -81.7929   ZZ=            -66.5071
   XY=              0.8398   XZ=             -2.7146   YZ=              0.9711

 Normal termination of Gaussian 16 at Thu Dec  7 22:56:30 2023.
