 Gaussian 16, Revision B.01,
 Gaussian 16:  ES64L-G16RevB.01 20-Dec-2017

 -------------------------
 #P B3LYP/6-311+g(d) force
 -------------------------

 -----
 DPGEN
 -----
 Symbolic Z-matrix:
 Charge =  0 Multiplicity = 2

                         Standard orientation:
 ---------------------------------------------------------------------
 Center     Atomic      Atomic             Coordinates (Angstroms)
 Number     Number       Type             X           Y           Z
 ---------------------------------------------------------------------
      1         11           0       -0.619169   -0.713403    2.098840
      2         11           0       -1.834883    1.934447   -0.227176
      3         11           0       -0.222977   -1.549415   -1.451732
      4         11           0       -3.802025   -0.722912   -0.210947
      5         11           0        2.648987   -2.462939    0.560358
      6         11           0        1.811352    2.682101    0.840690
      7         11           0        2.018716    0.832121   -1.610033
 ---------------------------------------------------------------------

 SCF Done:  E(UB3LYP) =  -1136.12689100     A.U. after   21 cycles

 The electronic state is 2-A.
 Alpha  occ. eigenvalues --  -38.44471 -38.44442 -38.44223 -38.44203 -38.43673
 Alpha  occ. eigenvalues --  -38.43670 -38.43348  -2.20279  -2.20239  -2.20032
 Alpha  occ. eigenvalues --   -2.19959  -2.19541  -2.19530  -2.19163  -1.13951
 Alpha  occ. eigenvalues --   -1.13923  -1.13919  -1.13900  -1.13888  -1.13871
 Alpha  occ. eigenvalues --   -1.13720  -1.13715  -1.13635  -1.13633  -1.13620
 Alpha  occ. eigenvalues --   -1.13595  -1.13291  -1.13237  -1.13197  -1.13182
 Alpha  occ. eigenvalues --   -1.13150  -1.13111  -1.12833  -1.12808  -1.12792
 Alpha  occ. eigenvalues --   -0.17656  -0.13149  -0.11822  -0.10951
 Alpha virt. eigenvalues --   -0.06100  -0.05572  -0.04504  -0.03286  -0.03110
 Alpha virt. eigenvalues --   -0.02741  -0.01928  -0.01441  -0.00482  -0.00123
 Alpha virt. eigenvalues --   -0.00009   0.00277   0.00542   0.00590   0.00648

  Beta  occ. eigenvalues --  -38.44438 -38.44388 -38.44217 -38.44202 -38.43635
  Beta  occ. eigenvalues --  -38.43630 -38.43343  -2.20233  -2.20124  -2.20023
  Beta  occ. eigenvalues --   -2.19959  -2.19477  -2.19453  -2.19154  -1.13916
  Beta  occ. eigenvalues --   -1.13885  -1.13875  -1.13848  -1.13811  -1.13773
  Beta  occ. eigenvalues --   -1.13711  -1.13693  -1.13635  -1.13631  -1.13607
  Beta  occ. eigenvalues --   -1.13598  -1.13232  -1.13192  -1.13148  -1.13121
  Beta  occ. eigenvalues --   -1.13102  -1.13062  -1.12825  -1.12793  -1.12786
  Beta  occ. eigenvalues --   -0.16940  -0.12990  -0.11675
  Beta virt. eigenvalues --   -0.07141  -0.05854  -0.05541  -0.04072  -0.02917
  Beta virt. eigenvalues --   -0.02555  -0.01884  -0.01788  -0.01308  -0.00199
  Beta virt. eigenvalues --   -0.00147   0.00075   0.00322   0.00661   0.00707

 Mulliken charges and spin densities:
               1          2
     1  Na  -0.392907   0.610763
     2  Na  -0.294620   0.104165
     3  Na  -0.168994   0.335636
     4  Na   0.535307  -0.044628
     5  Na   0.034765  -0.054313
     6  Na  -0.004420   0.029478
     7  Na   0.290870   0.018898
 Sum of Mulliken charges =  -0.00000   1.00000

 Dipole moment (field-independent basis, Debye):
    X=             -0.6331    Y=             -0.4275    Z=              0.2923  Tot=              0.8180
 Quadrupole moment (field-independent basis, Debye-Ang):
   XX=            -54.1033   YY=            -69.9850   ZZ=            -70.7450
   XY=             -0.2723   XZ=              2.0480   YZ=              0.2138

 Normal termination of Gaussian 16 at Thu Dec  7 08:18:37 2023.
