 Gaussian 16, Revision B.01,
 Gaussian 16:  ES64L-G16RevB.01 20-Dec-2017

 -------------------------
 #P B3LYP/6-311+g(d) force
 -------------------------

 -----
 DPGEN
 -----
 Symbolic Z-matrix:
 Charge =  0 Multiplicity = 2

                         Standard orientation:
 ---------------------------------------------------------------------
 Center     Atomic      Atomic             Coordinates (Angstroms)
 Number     Number       Type             X           Y           Z
 ---------------------------------------------------------------------
      1         11           0       -1.508139    0.406651    1.659989
      2         11           0        1.852107   -1.328695    0.784309
      3         11           0       -3.793762   -0.820013   -0.074275
      4         11           0        1.591648    1.126951   -0.934239
      5         11           0       -2.343704    2.408095   -0.436347
      6         11           0       -0.787921   -2.208494   -1.076617
      7         11           0        4.989771    0.415505    0.077180
 ---------------------------------------------------------------------

 SCF Done:  E(UB3LYP) =  -1136.11517123     A.U. after   23 cycles

 The electronic state is 2-A.
 Alpha  occ. eigenvalues --  -38.45176 -38.44554 -38.44057 -38.43863 -38.43802
 Alpha  occ. eigenvalues --  -38.43519 -38.43031  -2.21085  -2.20396  -2.19957
 Alpha  occ. eigenvalues --   -2.19753  -2.19619  -2.19367  -2.18864  -1.14800
 Alpha  occ. eigenvalues --   -1.14759  -1.14698  -1.14147  -1.14068  -1.14002
 Alpha  occ. eigenvalues --   -1.13648  -1.13638  -1.13542  -1.13433  -1.13399
 Alpha  occ. eigenvalues --   -1.13343  -1.13269  -1.13263  -1.13220  -1.13059
 Alpha  occ. eigenvalues --   -1.13028  -1.12986  -1.12548  -1.12520  -1.12513
 Alpha  occ. eigenvalues --   -0.17993  -0.14529  -0.11381  -0.10609
 Alpha virt. eigenvalues --   -0.07239  -0.05165  -0.04404  -0.03588  -0.03167
 Alpha virt. eigenvalues --   -0.02190  -0.01587  -0.01318  -0.01027  -0.00868
 Alpha virt. eigenvalues --   -0.00461   0.00079   0.00295   0.00614   0.00768

  Beta  occ. eigenvalues --  -38.45164 -38.44544 -38.44045 -38.43793 -38.43714
  Beta  occ. eigenvalues --  -38.43512 -38.43034  -2.21070  -2.20381  -2.19938
  Beta  occ. eigenvalues --   -2.19621  -2.19454  -2.19355  -2.18872  -1.14792
  Beta  occ. eigenvalues --   -1.14716  -1.14685  -1.14138  -1.14062  -1.13959
  Beta  occ. eigenvalues --   -1.13635  -1.13621  -1.13514  -1.13345  -1.13314
  Beta  occ. eigenvalues --   -1.13252  -1.13156  -1.13150  -1.13116  -1.13054
  Beta  occ. eigenvalues --   -1.13023  -1.12956  -1.12558  -1.12524  -1.12500
  Beta  occ. eigenvalues --   -0.17413  -0.13917  -0.11071
  Beta virt. eigenvalues --   -0.07143  -0.07040  -0.05043  -0.03630  -0.03354
  Beta virt. eigenvalues --   -0.02953  -0.02109  -0.01291  -0.01004  -0.00504
  Beta virt. eigenvalues --   -0.00418  -0.00292   0.00185   0.00387   0.00685

 Mulliken charges and spin densities:
               1          2
     1  Na  -0.204843   0.217759
     2  Na   0.106334  -0.039006
     3  Na   0.292535   0.420627
     4  Na  -0.438469   0.081980
     5  Na   0.109612  -0.130783
     6  Na  -0.216673  -0.035876
     7  Na   0.351504   0.485301
 Sum of Mulliken charges =  -0.00000   1.00000

 Dipole moment (field-independent basis, Debye):
    X=             -0.2318    Y=              0.0660    Z=              0.1364  Tot=              0.2769
 Quadrupole moment (field-independent basis, Debye-Ang):
   XX=            -69.5546   YY=            -76.6445   ZZ=            -60.0948
   XY=             -2.0853   XZ=              1.9647   YZ=             -3.6980

 Normal termination of Gaussian 16 at Wed Nov 29 01:51:05 2023.
