 Gaussian 16, Revision B.01,
 Gaussian 16:  ES64L-G16RevB.01 20-Dec-2017

 -------------------------
 #P B3LYP/6-311+g(d) force
 -------------------------

 -----
 DPGEN
 -----
 Symbolic Z-matrix:
 Charge =  0 Multiplicity = 2

                         Standard orientation:
 ---------------------------------------------------------------------
 Center     Atomic      Atomic             Coordinates (Angstroms)
 Number     Number       Type             X           Y           Z
 ---------------------------------------------------------------------
      1         11           0        0.375024    2.817010   -0.675303
      2         11           0        1.814069    0.336599   -2.027625
      3         11           0       -0.816412   -1.933449   -0.133121
      4         11           0        2.977794   -2.375969    0.249498
      5         11           0        2.082729    0.958196    2.048480
      6         11           0       -2.354547    1.531182    0.584679
      7         11           0       -4.078657   -1.333570   -0.046608
 ---------------------------------------------------------------------

 SCF Done:  E(UB3LYP) =  -1136.12512404     A.U. after   20 cycles

 The electronic state is 2-A.
 Alpha  occ. eigenvalues --  -38.44512 -38.44502 -38.44381 -38.44317 -38.44201
 Alpha  occ. eigenvalues --  -38.44040 -38.42951  -2.20323  -2.20292  -2.20169
 Alpha  occ. eigenvalues --   -2.20127  -2.19968  -2.19889  -2.18816  -1.14011
 Alpha  occ. eigenvalues --   -1.14006  -1.13959  -1.13952  -1.13924  -1.13900
 Alpha  occ. eigenvalues --   -1.13874  -1.13865  -1.13827  -1.13786  -1.13772
 Alpha  occ. eigenvalues --   -1.13720  -1.13644  -1.13626  -1.13608  -1.13560
 Alpha  occ. eigenvalues --   -1.13546  -1.13492  -1.12495  -1.12485  -1.12451
 Alpha  occ. eigenvalues --   -0.17255  -0.13662  -0.12181  -0.10750
 Alpha virt. eigenvalues --   -0.06344  -0.05973  -0.04438  -0.03279  -0.03012
 Alpha virt. eigenvalues --   -0.02706  -0.02111  -0.01427  -0.00934  -0.00338
 Alpha virt. eigenvalues --   -0.00190   0.00244   0.00298   0.00570   0.00741

  Beta  occ. eigenvalues --  -38.44511 -38.44408 -38.44376 -38.44324 -38.44199
  Beta  occ. eigenvalues --  -38.43963 -38.42940  -2.20320  -2.20161  -2.20138
  Beta  occ. eigenvalues --   -2.20117  -2.19966  -2.19747  -2.18801  -1.14007
  Beta  occ. eigenvalues --   -1.14001  -1.13954  -1.13862  -1.13856  -1.13839
  Beta  occ. eigenvalues --   -1.13831  -1.13808  -1.13793  -1.13778  -1.13775
  Beta  occ. eigenvalues --   -1.13722  -1.13643  -1.13612  -1.13605  -1.13464
  Beta  occ. eigenvalues --   -1.13448  -1.13389  -1.12482  -1.12476  -1.12417
  Beta  occ. eigenvalues --   -0.16705  -0.13399  -0.12066
  Beta virt. eigenvalues --   -0.06870  -0.06085  -0.05836  -0.04316  -0.02886
  Beta virt. eigenvalues --   -0.02398  -0.02129  -0.01810  -0.01202  -0.00859
  Beta virt. eigenvalues --   -0.00143   0.00044   0.00314   0.00437   0.00661

 Mulliken charges and spin densities:
               1          2
     1  Na   0.109530   0.188535
     2  Na   0.124122   0.260112
     3  Na  -1.237620   0.065874
     4  Na   0.345956   0.099782
     5  Na  -0.001663   0.466508
     6  Na  -0.370936   0.000890
     7  Na   1.030610  -0.081702
 Sum of Mulliken charges =  -0.00000   1.00000

 Dipole moment (field-independent basis, Debye):
    X=             -0.7867    Y=             -0.6286    Z=              0.0390  Tot=              1.0077
 Quadrupole moment (field-independent basis, Debye-Ang):
   XX=            -54.1169   YY=            -67.8205   ZZ=            -73.7931
   XY=             -1.2659   XZ=             -0.6117   YZ=              0.3995

 Normal termination of Gaussian 16 at Sun Dec  3 21:22:36 2023.
