 Gaussian 16, Revision B.01,
 Gaussian 16:  ES64L-G16RevB.01 20-Dec-2017

 -------------------------
 #P B3LYP/6-311+g(d) force
 -------------------------

 -----
 DPGEN
 -----
 Symbolic Z-matrix:
 Charge =  0 Multiplicity = 2

                         Standard orientation:
 ---------------------------------------------------------------------
 Center     Atomic      Atomic             Coordinates (Angstroms)
 Number     Number       Type             X           Y           Z
 ---------------------------------------------------------------------
      1         11           0       -2.205349   -0.481199    1.650934
      2         11           0        0.864211    0.519940    1.876081
      3         11           0        3.792910   -1.390110    0.211048
      4         11           0        2.277687    1.487273   -1.266963
      5         11           0       -1.062138    2.189091   -0.275527
      6         11           0        0.042346   -1.579250   -1.154759
      7         11           0       -3.709667   -0.745744   -1.040813
 ---------------------------------------------------------------------

 SCF Done:  E(UB3LYP) =  -1136.12449701     A.U. after   24 cycles

 The electronic state is 2-A.
 Alpha  occ. eigenvalues --  -38.44955 -38.44285 -38.44254 -38.44089 -38.44002
 Alpha  occ. eigenvalues --  -38.43180 -38.42940  -2.20727  -2.20129  -2.20033
 Alpha  occ. eigenvalues --   -2.19931  -2.19913  -2.19101  -2.18810  -1.14444
 Alpha  occ. eigenvalues --   -1.14423  -1.14309  -1.13815  -1.13784  -1.13740
 Alpha  occ. eigenvalues --   -1.13702  -1.13697  -1.13696  -1.13653  -1.13612
 Alpha  occ. eigenvalues --   -1.13574  -1.13548  -1.13548  -1.13482  -1.12806
 Alpha  occ. eigenvalues --   -1.12744  -1.12711  -1.12491  -1.12464  -1.12441
 Alpha  occ. eigenvalues --   -0.18282  -0.13979  -0.11262  -0.11091
 Alpha virt. eigenvalues --   -0.06856  -0.05234  -0.04702  -0.03156  -0.02770
 Alpha virt. eigenvalues --   -0.02484  -0.02327  -0.01115  -0.00967  -0.00249
 Alpha virt. eigenvalues --    0.00093   0.00286   0.00304   0.00524   0.00680

  Beta  occ. eigenvalues --  -38.44946 -38.44245 -38.44241 -38.44077 -38.43960
  Beta  occ. eigenvalues --  -38.43127 -38.42923  -2.20713  -2.20049  -2.20015
  Beta  occ. eigenvalues --   -2.19892  -2.19853  -2.19006  -2.18780  -1.14425
  Beta  occ. eigenvalues --   -1.14404  -1.14302  -1.13752  -1.13737  -1.13698
  Beta  occ. eigenvalues --   -1.13685  -1.13668  -1.13656  -1.13637  -1.13562
  Beta  occ. eigenvalues --   -1.13548  -1.13525  -1.13513  -1.13433  -1.12742
  Beta  occ. eigenvalues --   -1.12660  -1.12645  -1.12471  -1.12424  -1.12418
  Beta  occ. eigenvalues --   -0.17603  -0.13788  -0.10859
  Beta virt. eigenvalues --   -0.07398  -0.06697  -0.04881  -0.04308  -0.02899
  Beta virt. eigenvalues --   -0.02582  -0.02041  -0.01625  -0.00964  -0.00511
  Beta virt. eigenvalues --   -0.00140   0.00130   0.00309   0.00436   0.00643

 Mulliken charges and spin densities:
               1          2
     1  Na   0.297537  -0.070790
     2  Na  -0.244789   0.373820
     3  Na   0.381735  -0.029730
     4  Na   0.280747   0.089972
     5  Na  -0.353308   0.323314
     6  Na  -0.731348   0.225104
     7  Na   0.369426   0.088309
 Sum of Mulliken charges =  -0.00000   1.00000

 Dipole moment (field-independent basis, Debye):
    X=              0.2020    Y=              0.1471    Z=             -0.2312  Tot=              0.3404
 Quadrupole moment (field-independent basis, Debye-Ang):
   XX=            -52.3325   YY=            -74.7629   ZZ=            -69.3153
   XY=             -0.8823   XZ=              0.8378   YZ=             -3.6862

 Normal termination of Gaussian 16 at Thu Dec  7 23:50:32 2023.
