 Gaussian 16, Revision B.01,
 Gaussian 16:  ES64L-G16RevB.01 20-Dec-2017

 -------------------------
 #P B3LYP/6-311+g(d) force
 -------------------------

 -----
 DPGEN
 -----
 Symbolic Z-matrix:
 Charge =  0 Multiplicity = 2

                         Standard orientation:
 ---------------------------------------------------------------------
 Center     Atomic      Atomic             Coordinates (Angstroms)
 Number     Number       Type             X           Y           Z
 ---------------------------------------------------------------------
      1         11           0        0.192378    0.147598   -1.610312
      2         11           0       -1.498617    2.431379   -0.085504
      3         11           0       -3.441880   -0.689042   -0.010675
      4         11           0       -0.601860   -2.456679   -0.306354
      5         11           0        0.047504    0.187154    2.123630
      6         11           0        3.023747   -1.488203    0.150454
      7         11           0        2.278728    1.867794   -0.261238
 ---------------------------------------------------------------------

 SCF Done:  E(UB3LYP) =  -1136.13154115     A.U. after   21 cycles

 The electronic state is 2-A.
 Alpha  occ. eigenvalues --  -38.44676 -38.44221 -38.43806 -38.43791 -38.43351
 Alpha  occ. eigenvalues --  -38.43259 -38.43030  -2.20464  -2.20022  -2.19684
 Alpha  occ. eigenvalues --   -2.19663  -2.19374  -2.19110  -2.18918  -1.14134
 Alpha  occ. eigenvalues --   -1.14127  -1.14105  -1.13690  -1.13687  -1.13665
 Alpha  occ. eigenvalues --   -1.13445  -1.13346  -1.13325  -1.13292  -1.13285
 Alpha  occ. eigenvalues --   -1.13275  -1.13088  -1.13033  -1.12980  -1.12789
 Alpha  occ. eigenvalues --   -1.12778  -1.12725  -1.12623  -1.12574  -1.12512
 Alpha  occ. eigenvalues --   -0.18666  -0.13232  -0.12050  -0.10801
 Alpha virt. eigenvalues --   -0.06237  -0.05335  -0.03955  -0.03265  -0.02712
 Alpha virt. eigenvalues --   -0.02659  -0.02031  -0.01262  -0.00308  -0.00101
 Alpha virt. eigenvalues --   -0.00030   0.00292   0.00708   0.00833   0.00875

  Beta  occ. eigenvalues --  -38.44679 -38.44219 -38.43796 -38.43692 -38.43284
  Beta  occ. eigenvalues --  -38.43254 -38.43019  -2.20472  -2.20022  -2.19669
  Beta  occ. eigenvalues --   -2.19480  -2.19254  -2.19105  -2.18902  -1.14138
  Beta  occ. eigenvalues --   -1.14123  -1.14111  -1.13691  -1.13671  -1.13667
  Beta  occ. eigenvalues --   -1.13420  -1.13306  -1.13284  -1.13209  -1.13161
  Beta  occ. eigenvalues --   -1.13145  -1.13003  -1.12958  -1.12900  -1.12775
  Beta  occ. eigenvalues --   -1.12750  -1.12725  -1.12603  -1.12540  -1.12505
  Beta  occ. eigenvalues --   -0.17927  -0.13047  -0.11790
  Beta virt. eigenvalues --   -0.06843  -0.06168  -0.05341  -0.03951  -0.02529
  Beta virt. eigenvalues --   -0.01946  -0.01905  -0.01550  -0.01209  -0.00363
  Beta virt. eigenvalues --   -0.00096   0.00093   0.00316   0.00766   0.00826

 Mulliken charges and spin densities:
               1          2
     1  Na  -0.301867   0.395780
     2  Na   0.227262  -0.074269
     3  Na  -0.019137  -0.058432
     4  Na   0.265907  -0.033526
     5  Na  -0.660612   0.805347
     6  Na   0.063699  -0.003409
     7  Na   0.424749  -0.031492
 Sum of Mulliken charges =  -0.00000   1.00000

 Dipole moment (field-independent basis, Debye):
    X=             -0.0797    Y=              0.0136    Z=              0.3032  Tot=              0.3138
 Quadrupole moment (field-independent basis, Debye-Ang):
   XX=            -50.1323   YY=            -67.7997   ZZ=            -74.4530
   XY=             -0.7474   XZ=              0.2437   YZ=             -0.4254

 Normal termination of Gaussian 16 at Thu Dec  7 20:44:35 2023.
