 Gaussian 16, Revision B.01,
 Gaussian 16:  ES64L-G16RevB.01 20-Dec-2017

 -------------------------
 #P B3LYP/6-311+g(d) force
 -------------------------

 -----
 DPGEN
 -----
 Symbolic Z-matrix:
 Charge =  0 Multiplicity = 2

                         Standard orientation:
 ---------------------------------------------------------------------
 Center     Atomic      Atomic             Coordinates (Angstroms)
 Number     Number       Type             X           Y           Z
 ---------------------------------------------------------------------
      1         11           0        1.532489   -2.286534   -0.009507
      2         11           0       -2.170805   -2.259400   -0.356735
      3         11           0       -0.563268    2.989915   -0.430538
      4         11           0       -2.662289    0.622255    0.360702
      5         11           0        3.312372    0.556299    0.062314
      6         11           0        0.180947    0.223758    2.040810
      7         11           0        0.370554    0.153706   -1.667046
 ---------------------------------------------------------------------

 SCF Done:  E(UB3LYP) =  -1136.13358482     A.U. after   20 cycles

 The electronic state is 2-A.
 Alpha  occ. eigenvalues --  -38.44535 -38.43803 -38.43670 -38.43608 -38.43359
 Alpha  occ. eigenvalues --  -38.43303 -38.43237  -2.20353  -2.19699  -2.19553
 Alpha  occ. eigenvalues --   -2.19538  -2.19279  -2.19208  -2.19093  -1.14024
 Alpha  occ. eigenvalues --   -1.14007  -1.14001  -1.13380  -1.13341  -1.13319
 Alpha  occ. eigenvalues --   -1.13277  -1.13262  -1.13219  -1.13195  -1.13186
 Alpha  occ. eigenvalues --   -1.13157  -1.12960  -1.12941  -1.12895  -1.12872
 Alpha  occ. eigenvalues --   -1.12852  -1.12833  -1.12756  -1.12736  -1.12728
 Alpha  occ. eigenvalues --   -0.18789  -0.13368  -0.12219  -0.10937
 Alpha virt. eigenvalues --   -0.05921  -0.04930  -0.04528  -0.03436  -0.02781
 Alpha virt. eigenvalues --   -0.02655  -0.01735  -0.01037  -0.00225  -0.00157
 Alpha virt. eigenvalues --    0.00012   0.00358   0.00795   0.00867   0.00895

  Beta  occ. eigenvalues --  -38.44532 -38.43709 -38.43662 -38.43599 -38.43357
  Beta  occ. eigenvalues --  -38.43236 -38.43228  -2.20352  -2.19542  -2.19526
  Beta  occ. eigenvalues --   -2.19526  -2.19207  -2.19156  -2.19081  -1.14015
  Beta  occ. eigenvalues --   -1.14003  -1.13995  -1.13286  -1.13268  -1.13254
  Beta  occ. eigenvalues --   -1.13227  -1.13201  -1.13182  -1.13169  -1.13152
  Beta  occ. eigenvalues --   -1.13140  -1.12882  -1.12874  -1.12859  -1.12837
  Beta  occ. eigenvalues --   -1.12835  -1.12801  -1.12736  -1.12720  -1.12709
  Beta  occ. eigenvalues --   -0.18049  -0.13148  -0.11974
  Beta virt. eigenvalues --   -0.07008  -0.05881  -0.04889  -0.04451  -0.02631
  Beta virt. eigenvalues --   -0.02078  -0.01661  -0.01590  -0.00955  -0.00232
  Beta virt. eigenvalues --   -0.00178   0.00130   0.00381   0.00815   0.00907

 Mulliken charges and spin densities:
               1          2
     1  Na   0.132314   0.080556
     2  Na  -0.150995  -0.056185
     3  Na   0.077714  -0.066444
     4  Na   0.327534   0.167788
     5  Na   0.140531  -0.084222
     6  Na  -0.307633   0.501624
     7  Na  -0.219465   0.456884
 Sum of Mulliken charges =  -0.00000   1.00000

 Dipole moment (field-independent basis, Debye):
    X=              0.8258    Y=              0.1283    Z=              0.1610  Tot=              0.8511
 Quadrupole moment (field-independent basis, Debye-Ang):
   XX=            -56.6233   YY=            -63.9140   ZZ=            -73.5897
   XY=              1.0122   XZ=              0.3957   YZ=              0.0984

 Normal termination of Gaussian 16 at Thu Dec  7 07:57:51 2023.
