 Gaussian 16, Revision B.01,
 Gaussian 16:  ES64L-G16RevB.01 20-Dec-2017

 -------------------------
 #P B3LYP/6-311+g(d) force
 -------------------------

 -----
 DPGEN
 -----
 Symbolic Z-matrix:
 Charge =  0 Multiplicity = 2

                         Standard orientation:
 ---------------------------------------------------------------------
 Center     Atomic      Atomic             Coordinates (Angstroms)
 Number     Number       Type             X           Y           Z
 ---------------------------------------------------------------------
      1         11           0        3.111148    0.169760   -0.214379
      2         11           0        1.088848    2.827268    0.207851
      3         11           0       -0.225448   -0.296286    2.249614
      4         11           0       -2.391904    1.785934   -0.407908
      5         11           0       -2.952194   -1.452296   -0.104344
      6         11           0        1.279609   -2.871531   -0.151499
      7         11           0        0.089941   -0.162850   -1.579335
 ---------------------------------------------------------------------

 SCF Done:  E(UB3LYP) =  -1136.13621759     A.U. after   20 cycles

 The electronic state is 2-A.
 Alpha  occ. eigenvalues --  -38.44241 -38.44110 -38.43915 -38.43747 -38.43555
 Alpha  occ. eigenvalues --  -38.43306 -38.43142  -2.20050  -2.19952  -2.19750
 Alpha  occ. eigenvalues --   -2.19594  -2.19375  -2.19266  -2.18970  -1.13720
 Alpha  occ. eigenvalues --   -1.13718  -1.13695  -1.13644  -1.13615  -1.13582
 Alpha  occ. eigenvalues --   -1.13402  -1.13375  -1.13369  -1.13286  -1.13250
 Alpha  occ. eigenvalues --   -1.13223  -1.13079  -1.13034  -1.13009  -1.12949
 Alpha  occ. eigenvalues --   -1.12896  -1.12891  -1.12636  -1.12632  -1.12620
 Alpha  occ. eigenvalues --   -0.18283  -0.13175  -0.12148  -0.10787
 Alpha virt. eigenvalues --   -0.05841  -0.05197  -0.04697  -0.03265  -0.02879
 Alpha virt. eigenvalues --   -0.02682  -0.01627  -0.01166  -0.00561  -0.00375
 Alpha virt. eigenvalues --   -0.00037   0.00345   0.00755   0.00820   0.00866

  Beta  occ. eigenvalues --  -38.44239 -38.44106 -38.43807 -38.43738 -38.43552
  Beta  occ. eigenvalues --  -38.43254 -38.43139  -2.20050  -2.19947  -2.19580
  Beta  occ. eigenvalues --   -2.19549  -2.19373  -2.19171  -2.18967  -1.13723
  Beta  occ. eigenvalues --   -1.13704  -1.13688  -1.13635  -1.13599  -1.13582
  Beta  occ. eigenvalues --   -1.13273  -1.13265  -1.13238  -1.13228  -1.13225
  Beta  occ. eigenvalues --   -1.13214  -1.13068  -1.13025  -1.13003  -1.12883
  Beta  occ. eigenvalues --   -1.12829  -1.12823  -1.12636  -1.12621  -1.12611
  Beta  occ. eigenvalues --   -0.17582  -0.12953  -0.11955
  Beta virt. eigenvalues --   -0.06832  -0.05822  -0.05156  -0.04638  -0.02506
  Beta virt. eigenvalues --   -0.02086  -0.01658  -0.01530  -0.01085  -0.00619
  Beta virt. eigenvalues --   -0.00405   0.00127   0.00384   0.00807   0.00850

 Mulliken charges and spin densities:
               1          2
     1  Na   0.194178   0.010997
     2  Na   0.009639   0.030502
     3  Na  -0.589872   0.790805
     4  Na   0.174999   0.057780
     5  Na   0.170591  -0.034658
     6  Na   0.116243  -0.055228
     7  Na  -0.075778   0.199802
 Sum of Mulliken charges =  -0.00000   1.00000

 Dipole moment (field-independent basis, Debye):
    X=             -0.1542    Y=             -0.3101    Z=              0.0982  Tot=              0.3600
 Quadrupole moment (field-independent basis, Debye-Ang):
   XX=            -56.5812   YY=            -62.9125   ZZ=            -74.5564
   XY=              0.5328   XZ=              0.5821   YZ=              0.1727

 Normal termination of Gaussian 16 at Thu Dec  7 08:08:48 2023.
