 Gaussian 16, Revision B.01,
 Gaussian 16:  ES64L-G16RevB.01 20-Dec-2017

 -------------------------
 #P B3LYP/6-311+g(d) force
 -------------------------

 -----
 DPGEN
 -----
 Symbolic Z-matrix:
 Charge =  0 Multiplicity = 2

                         Standard orientation:
 ---------------------------------------------------------------------
 Center     Atomic      Atomic             Coordinates (Angstroms)
 Number     Number       Type             X           Y           Z
 ---------------------------------------------------------------------
      1         11           0        3.497366   -0.741929   -0.391692
      2         11           0        1.889805    2.092492   -0.210553
      3         11           0        0.856010   -0.433834    2.277161
      4         11           0        0.740930   -1.682094   -1.291367
      5         11           0       -2.180597    0.562510    1.600310
      6         11           0       -2.934950   -1.747708   -0.523255
      7         11           0       -1.868565    1.950563   -1.460605
 ---------------------------------------------------------------------

 SCF Done:  E(UB3LYP) =  -1136.12080974     A.U. after   25 cycles

 The electronic state is 2-A.
 Alpha  occ. eigenvalues --  -38.44863 -38.44467 -38.44330 -38.44185 -38.43927
 Alpha  occ. eigenvalues --  -38.43762 -38.43512  -2.20719  -2.20342  -2.20128
 Alpha  occ. eigenvalues --   -2.20063  -2.19732  -2.19570  -2.19348  -1.14400
 Alpha  occ. eigenvalues --   -1.14340  -1.14330  -1.14042  -1.13996  -1.13975
 Alpha  occ. eigenvalues --   -1.13808  -1.13790  -1.13749  -1.13743  -1.13719
 Alpha  occ. eigenvalues --   -1.13686  -1.13409  -1.13378  -1.13371  -1.13250
 Alpha  occ. eigenvalues --   -1.13235  -1.13209  -1.13025  -1.13015  -1.12986
 Alpha  occ. eigenvalues --   -0.18027  -0.14052  -0.11786  -0.11044
 Alpha virt. eigenvalues --   -0.06193  -0.05629  -0.05005  -0.03571  -0.02776
 Alpha virt. eigenvalues --   -0.02731  -0.01916  -0.01036  -0.00650  -0.00269
 Alpha virt. eigenvalues --    0.00118   0.00179   0.00298   0.00511   0.00556

  Beta  occ. eigenvalues --  -38.44764 -38.44463 -38.44280 -38.44155 -38.43923
  Beta  occ. eigenvalues --  -38.43757 -38.43504  -2.20539  -2.20335  -2.20034
  Beta  occ. eigenvalues --   -2.20013  -2.19726  -2.19563  -2.19334  -1.14275
  Beta  occ. eigenvalues --   -1.14219  -1.14196  -1.14034  -1.13990  -1.13967
  Beta  occ. eigenvalues --   -1.13750  -1.13727  -1.13703  -1.13686  -1.13672
  Beta  occ. eigenvalues --   -1.13632  -1.13398  -1.13372  -1.13366  -1.13241
  Beta  occ. eigenvalues --   -1.13224  -1.13204  -1.13013  -1.13001  -1.12975
  Beta  occ. eigenvalues --   -0.17345  -0.13869  -0.10820
  Beta virt. eigenvalues --   -0.07830  -0.05999  -0.05593  -0.04289  -0.03116
  Beta virt. eigenvalues --   -0.02246  -0.02081  -0.01858  -0.00952  -0.00339
  Beta virt. eigenvalues --   -0.00118   0.00185   0.00324   0.00423   0.00596

 Mulliken charges and spin densities:
               1          2
     1  Na   1.192568  -0.007321
     2  Na  -0.572522   0.126156
     3  Na  -0.127323   0.418853
     4  Na  -0.751638   0.100094
     5  Na   0.402112  -0.021985
     6  Na  -0.010641   0.064670
     7  Na  -0.132555   0.319533
 Sum of Mulliken charges =  -0.00000   1.00000

 Dipole moment (field-independent basis, Debye):
    X=              0.4294    Y=              0.0031    Z=              0.1062  Tot=              0.4423
 Quadrupole moment (field-independent basis, Debye-Ang):
   XX=            -52.9123   YY=            -77.1227   ZZ=            -67.9237
   XY=             -0.0743   XZ=              1.0890   YZ=             -3.2338

 Normal termination of Gaussian 16 at Sun Dec  3 22:01:32 2023.
