 Gaussian 16, Revision B.01,
 Gaussian 16:  ES64L-G16RevB.01 20-Dec-2017

 -------------------------
 #P B3LYP/6-311+g(d) force
 -------------------------

 -----
 DPGEN
 -----
 Symbolic Z-matrix:
 Charge =  0 Multiplicity = 2

                         Standard orientation:
 ---------------------------------------------------------------------
 Center     Atomic      Atomic             Coordinates (Angstroms)
 Number     Number       Type             X           Y           Z
 ---------------------------------------------------------------------
      1         11           0       -1.717670    2.766141   -0.064594
      2         11           0       -2.556976   -0.195990   -1.448912
      3         11           0       -2.823773   -0.399016    1.524199
      4         11           0       -0.747577   -3.176497    0.060633
      5         11           0        2.501745   -2.530206   -0.395584
      6         11           0        3.613008    0.508974    0.511125
      7         11           0        1.731244    3.026593   -0.186868
 ---------------------------------------------------------------------

 SCF Done:  E(UB3LYP) =  -1136.11278594     A.U. after   23 cycles

 The electronic state is 2-A.
 Alpha  occ. eigenvalues --  -38.45778 -38.44516 -38.44425 -38.44288 -38.43746
 Alpha  occ. eigenvalues --  -38.43651 -38.43459  -2.21623  -2.20392  -2.20225
 Alpha  occ. eigenvalues --   -2.20085  -2.19557  -2.19479  -2.19303  -1.15341
 Alpha  occ. eigenvalues --   -1.15283  -1.15245  -1.14059  -1.14029  -1.14003
 Alpha  occ. eigenvalues --   -1.13915  -1.13902  -1.13848  -1.13765  -1.13760
 Alpha  occ. eigenvalues --   -1.13737  -1.13228  -1.13219  -1.13209  -1.13133
 Alpha  occ. eigenvalues --   -1.13129  -1.13101  -1.12969  -1.12954  -1.12935
 Alpha  occ. eigenvalues --   -0.16964  -0.13945  -0.13217  -0.09724
 Alpha virt. eigenvalues --   -0.06911  -0.06650  -0.03991  -0.03320  -0.02801
 Alpha virt. eigenvalues --   -0.02208  -0.02065  -0.01683  -0.01305  -0.01116
 Alpha virt. eigenvalues --   -0.00038   0.00164   0.00311   0.00505   0.00547

  Beta  occ. eigenvalues --  -38.45777 -38.44453 -38.44406 -38.44278 -38.43718
  Beta  occ. eigenvalues --  -38.43612 -38.43415  -2.21625  -2.20277  -2.20196
  Beta  occ. eigenvalues --   -2.20073  -2.19508  -2.19408  -2.19223  -1.15335
  Beta  occ. eigenvalues --   -1.15285  -1.15226  -1.13985  -1.13950  -1.13916
  Beta  occ. eigenvalues --   -1.13900  -1.13886  -1.13786  -1.13759  -1.13756
  Beta  occ. eigenvalues --   -1.13689  -1.13193  -1.13185  -1.13166  -1.13085
  Beta  occ. eigenvalues --   -1.13082  -1.13048  -1.12907  -1.12902  -1.12883
  Beta  occ. eigenvalues --   -0.16531  -0.13412  -0.12505
  Beta virt. eigenvalues --   -0.07027  -0.06486  -0.06357  -0.03784  -0.02929
  Beta virt. eigenvalues --   -0.02279  -0.01863  -0.01822  -0.01492  -0.01082
  Beta virt. eigenvalues --   -0.01011   0.00181   0.00387   0.00453   0.00596

 Mulliken charges and spin densities:
               1          2
     1  Na  -0.226901   0.289139
     2  Na   0.414454   0.124245
     3  Na  -0.004591   0.216954
     4  Na  -0.051542   0.103304
     5  Na  -0.012511   0.084652
     6  Na  -0.220955   0.203484
     7  Na   0.102047  -0.021779
 Sum of Mulliken charges =  -0.00000   1.00000

 Dipole moment (field-independent basis, Debye):
    X=             -1.3932    Y=             -0.2364    Z=             -0.1894  Tot=              1.4258
 Quadrupole moment (field-independent basis, Debye-Ang):
   XX=            -67.1603   YY=            -71.5972   ZZ=            -66.0675
   XY=             -0.1699   XZ=              1.5023   YZ=              1.6353

 Normal termination of Gaussian 16 at Sun Dec  3 18:11:47 2023.
