 Gaussian 16, Revision B.01,
 Gaussian 16:  ES64L-G16RevB.01 20-Dec-2017

 -------------------------
 #P B3LYP/6-311+g(d) force
 -------------------------

 -----
 DPGEN
 -----
 Symbolic Z-matrix:
 Charge =  0 Multiplicity = 2

                         Standard orientation:
 ---------------------------------------------------------------------
 Center     Atomic      Atomic             Coordinates (Angstroms)
 Number     Number       Type             X           Y           Z
 ---------------------------------------------------------------------
      1         11           0       -4.147402    0.832699   -0.555715
      2         11           0       -3.985244   -1.896777    0.802313
      3         11           0       -0.939083    3.505881    0.528124
      4         11           0        1.916289    2.604836   -0.597417
      5         11           0        4.774585    0.106087    0.472815
      6         11           0       -0.419973   -2.521266   -0.651017
      7         11           0        2.800829   -2.631461    0.000897
 ---------------------------------------------------------------------

 SCF Done:  E(UB3LYP) =  -1136.10967251     A.U. after   20 cycles

 The electronic state is 2-A.
 Alpha  occ. eigenvalues --  -38.45322 -38.44804 -38.44439 -38.44433 -38.44177
 Alpha  occ. eigenvalues --  -38.44092 -38.43701  -2.21116  -2.20611  -2.20239
 Alpha  occ. eigenvalues --   -2.20201  -2.19982  -2.19888  -2.19489  -1.14808
 Alpha  occ. eigenvalues --   -1.14770  -1.14750  -1.14269  -1.14265  -1.14247
 Alpha  occ. eigenvalues --   -1.13899  -1.13893  -1.13884  -1.13878  -1.13858
 Alpha  occ. eigenvalues --   -1.13840  -1.13632  -1.13627  -1.13611  -1.13565
 Alpha  occ. eigenvalues --   -1.13559  -1.13520  -1.13148  -1.13141  -1.13130
 Alpha  occ. eigenvalues --   -0.15622  -0.14104  -0.12889  -0.10949
 Alpha virt. eigenvalues --   -0.07082  -0.05149  -0.04536  -0.03580  -0.03083
 Alpha virt. eigenvalues --   -0.02753  -0.02177  -0.01747  -0.01073  -0.00920
 Alpha virt. eigenvalues --   -0.00264  -0.00180   0.00028   0.00342   0.00658

  Beta  occ. eigenvalues --  -38.45294 -38.44794 -38.44432 -38.44363 -38.44092
  Beta  occ. eigenvalues --  -38.44090 -38.43678  -2.21066  -2.20597  -2.20202
  Beta  occ. eigenvalues --   -2.20099  -2.19893  -2.19822  -2.19447  -1.14770
  Beta  occ. eigenvalues --   -1.14738  -1.14710  -1.14258  -1.14250  -1.14230
  Beta  occ. eigenvalues --   -1.13887  -1.13878  -1.13820  -1.13805  -1.13801
  Beta  occ. eigenvalues --   -1.13758  -1.13577  -1.13570  -1.13534  -1.13517
  Beta  occ. eigenvalues --   -1.13501  -1.13461  -1.13120  -1.13111  -1.13101
  Beta  occ. eigenvalues --   -0.15079  -0.13422  -0.12291
  Beta virt. eigenvalues --   -0.07676  -0.07124  -0.04934  -0.03945  -0.03343
  Beta virt. eigenvalues --   -0.02604  -0.02509  -0.02015  -0.01712  -0.00901
  Beta virt. eigenvalues --   -0.00544  -0.00038   0.00106   0.00212   0.00350

 Mulliken charges and spin densities:
               1          2
     1  Na  -0.037603   0.141261
     2  Na   0.355080   0.067634
     3  Na  -0.068284   0.053751
     4  Na  -0.213463   0.021782
     5  Na   0.213313   0.436671
     6  Na  -0.278674   0.373220
     7  Na   0.029630  -0.094319
 Sum of Mulliken charges =  -0.00000   1.00000

 Dipole moment (field-independent basis, Debye):
    X=             -1.4201    Y=             -0.3073    Z=              0.1199  Tot=              1.4580
 Quadrupole moment (field-independent basis, Debye-Ang):
   XX=            -60.1308   YY=            -69.5725   ZZ=            -70.2901
   XY=             -0.4359   XZ=             -0.5922   YZ=             -2.7380

 Normal termination of Gaussian 16 at Sun Dec  3 21:45:55 2023.
