 Gaussian 16, Revision B.01,
 Gaussian 16:  ES64L-G16RevB.01 20-Dec-2017

 -------------------------
 #P B3LYP/6-311+g(d) force
 -------------------------

 -----
 DPGEN
 -----
 Symbolic Z-matrix:
 Charge =  0 Multiplicity = 2

                         Standard orientation:
 ---------------------------------------------------------------------
 Center     Atomic      Atomic             Coordinates (Angstroms)
 Number     Number       Type             X           Y           Z
 ---------------------------------------------------------------------
      1         11           0        2.996589    1.090017    0.336146
      2         11           0       -0.445706    2.804559   -0.262821
      3         11           0       -2.989622    0.763401    0.072244
      4         11           0       -1.628155   -2.403053   -0.118659
      5         11           0       -0.126980   -0.194272    1.823842
      6         11           0        0.363701   -0.068253   -1.716460
      7         11           0        1.830173   -1.992400   -0.134292
 ---------------------------------------------------------------------

 SCF Done:  E(UB3LYP) =  -1136.13632557     A.U. after   19 cycles

 The electronic state is 2-A.
 Alpha  occ. eigenvalues --  -38.44012 -38.43895 -38.43471 -38.43325 -38.43260
 Alpha  occ. eigenvalues --  -38.43257 -38.43249  -2.19846  -2.19749  -2.19433
 Alpha  occ. eigenvalues --   -2.19289  -2.19265  -2.19144  -2.19116  -1.13518
 Alpha  occ. eigenvalues --   -1.13511  -1.13489  -1.13424  -1.13410  -1.13401
 Alpha  occ. eigenvalues --   -1.13283  -1.13109  -1.13028  -1.12976  -1.12932
 Alpha  occ. eigenvalues --   -1.12915  -1.12905  -1.12882  -1.12859  -1.12801
 Alpha  occ. eigenvalues --   -1.12797  -1.12781  -1.12774  -1.12773  -1.12742
 Alpha  occ. eigenvalues --   -0.19127  -0.13258  -0.12516  -0.10780
 Alpha virt. eigenvalues --   -0.05629  -0.05074  -0.04556  -0.03253  -0.02838
 Alpha virt. eigenvalues --   -0.02411  -0.01561  -0.01034  -0.00238  -0.00112
 Alpha virt. eigenvalues --    0.00017   0.00357   0.00831   0.00916   0.00924

  Beta  occ. eigenvalues --  -38.44005 -38.43893 -38.43458 -38.43254 -38.43251
  Beta  occ. eigenvalues --  -38.43246 -38.43171  -2.19836  -2.19748  -2.19414
  Beta  occ. eigenvalues --   -2.19144  -2.19138  -2.19123  -2.19107  -1.13514
  Beta  occ. eigenvalues --   -1.13486  -1.13479  -1.13422  -1.13406  -1.13389
  Beta  occ. eigenvalues --   -1.13243  -1.13062  -1.13016  -1.12896  -1.12851
  Beta  occ. eigenvalues --   -1.12829  -1.12814  -1.12804  -1.12791  -1.12775
  Beta  occ. eigenvalues --   -1.12759  -1.12753  -1.12745  -1.12739  -1.12723
  Beta  occ. eigenvalues --   -0.18389  -0.13007  -0.12245
  Beta virt. eigenvalues --   -0.06852  -0.05583  -0.05067  -0.04536  -0.02452
  Beta virt. eigenvalues --   -0.02057  -0.01465  -0.01359  -0.00976  -0.00268
  Beta virt. eigenvalues --   -0.00168   0.00139   0.00381   0.00881   0.00916

 Mulliken charges and spin densities:
               1          2
     1  Na  -0.000906  -0.028227
     2  Na   0.024761  -0.102961
     3  Na   0.020981  -0.075747
     4  Na   0.194621  -0.096944
     5  Na  -0.437961   0.717366
     6  Na  -0.330603   0.588262
     7  Na   0.529108  -0.001748
 Sum of Mulliken charges =  -0.00000   1.00000

 Dipole moment (field-independent basis, Debye):
    X=              0.0394    Y=              0.1317    Z=              0.1427  Tot=              0.1981
 Quadrupole moment (field-independent basis, Debye-Ang):
   XX=            -55.4732   YY=            -63.5493   ZZ=            -74.2687
   XY=              1.3215   XZ=              1.1356   YZ=              0.5012

 Normal termination of Gaussian 16 at Thu Dec  7 12:08:36 2023.
