 Gaussian 16, Revision B.01,
 Gaussian 16:  ES64L-G16RevB.01 20-Dec-2017

 -------------------------
 #P B3LYP/6-311+g(d) force
 -------------------------

 -----
 DPGEN
 -----
 Symbolic Z-matrix:
 Charge =  0 Multiplicity = 2

                         Standard orientation:
 ---------------------------------------------------------------------
 Center     Atomic      Atomic             Coordinates (Angstroms)
 Number     Number       Type             X           Y           Z
 ---------------------------------------------------------------------
      1         11           0       -0.087411   -0.159977   -1.739836
      2         11           0       -2.905550    0.994215   -0.366097
      3         11           0       -0.027178    3.025416   -0.013992
      4         11           0        1.838124   -2.107068   -0.639849
      5         11           0       -0.072495   -0.182703    1.975207
      6         11           0        3.123469    0.777727    0.314368
      7         11           0       -1.868959   -2.347609    0.470198
 ---------------------------------------------------------------------

 SCF Done:  E(UB3LYP) =  -1136.13606825     A.U. after   19 cycles

 The electronic state is 2-A.
 Alpha  occ. eigenvalues --  -38.44015 -38.43918 -38.43774 -38.43510 -38.43501
 Alpha  occ. eigenvalues --  -38.43427 -38.43367  -2.19828  -2.19758  -2.19679
 Alpha  occ. eigenvalues --   -2.19489  -2.19400  -2.19286  -2.19174  -1.13502
 Alpha  occ. eigenvalues --   -1.13495  -1.13471  -1.13456  -1.13417  -1.13385
 Alpha  occ. eigenvalues --   -1.13361  -1.13316  -1.13307  -1.13299  -1.13141
 Alpha  occ. eigenvalues --   -1.13096  -1.13031  -1.13009  -1.12995  -1.12969
 Alpha  occ. eigenvalues --   -1.12930  -1.12914  -1.12854  -1.12842  -1.12807
 Alpha  occ. eigenvalues --   -0.18633  -0.13053  -0.12312  -0.11068
 Alpha virt. eigenvalues --   -0.05605  -0.04957  -0.04681  -0.03330  -0.02972
 Alpha virt. eigenvalues --   -0.02750  -0.01504  -0.01078  -0.00320  -0.00256
 Alpha virt. eigenvalues --    0.00028   0.00353   0.00804   0.00880   0.00906

  Beta  occ. eigenvalues --  -38.44012 -38.43909 -38.43688 -38.43480 -38.43438
  Beta  occ. eigenvalues --  -38.43414 -38.43368  -2.19824  -2.19744  -2.19521
  Beta  occ. eigenvalues --   -2.19375  -2.19349  -2.19267  -2.19179  -1.13501
  Beta  occ. eigenvalues --   -1.13479  -1.13467  -1.13435  -1.13401  -1.13376
  Beta  occ. eigenvalues --   -1.13263  -1.13234  -1.13198  -1.13191  -1.13051
  Beta  occ. eigenvalues --   -1.13019  -1.12993  -1.12974  -1.12938  -1.12936
  Beta  occ. eigenvalues --   -1.12910  -1.12897  -1.12848  -1.12845  -1.12805
  Beta  occ. eigenvalues --   -0.17911  -0.12800  -0.12045
  Beta virt. eigenvalues --   -0.07158  -0.05560  -0.04920  -0.04607  -0.02580
  Beta virt. eigenvalues --   -0.02233  -0.01705  -0.01406  -0.00984  -0.00337
  Beta virt. eigenvalues --   -0.00252   0.00123   0.00385   0.00874   0.00887

 Mulliken charges and spin densities:
               1          2
     1  Na   0.031755   0.461982
     2  Na   0.086860  -0.066638
     3  Na  -0.162961  -0.081774
     4  Na   0.301676   0.020754
     5  Na  -0.279973   0.697646
     6  Na  -0.122170  -0.034727
     7  Na   0.144812   0.002757
 Sum of Mulliken charges =  -0.00000   1.00000

 Dipole moment (field-independent basis, Debye):
    X=             -0.0388    Y=              0.0652    Z=              0.1619  Tot=              0.1788
 Quadrupole moment (field-independent basis, Debye-Ang):
   XX=            -57.1054   YY=            -63.9006   ZZ=            -73.1590
   XY=              0.8566   XZ=              0.6526   YZ=              0.2652

 Normal termination of Gaussian 16 at Thu Dec  7 19:32:42 2023.
