 Gaussian 16, Revision B.01,
 Gaussian 16:  ES64L-G16RevB.01 20-Dec-2017

 -------------------------
 #P B3LYP/6-311+g(d) force
 -------------------------

 -----
 DPGEN
 -----
 Symbolic Z-matrix:
 Charge =  0 Multiplicity = 2

                         Standard orientation:
 ---------------------------------------------------------------------
 Center     Atomic      Atomic             Coordinates (Angstroms)
 Number     Number       Type             X           Y           Z
 ---------------------------------------------------------------------
      1         11           0       -1.559212   -1.935149    0.790684
      2         11           0       -4.630206   -2.271154   -0.320737
      3         11           0       -3.143263    0.636874   -0.802800
      4         11           0       -1.010351    3.414329   -0.875229
      5         11           0        0.682025    2.174184    1.787332
      6         11           0        3.754414   -1.097205    0.677236
      7         11           0        5.906593   -0.921879   -1.256487
 ---------------------------------------------------------------------

 SCF Done:  E(UB3LYP) =  -1136.11107507     A.U. after   20 cycles

 The electronic state is 2-A.
 Alpha  occ. eigenvalues --  -38.45232 -38.45108 -38.44671 -38.44456 -38.43774
 Alpha  occ. eigenvalues --  -38.43446 -38.43434  -2.21047  -2.20931  -2.20432
 Alpha  occ. eigenvalues --   -2.20312  -2.19576  -2.19281  -2.19240  -1.14726
 Alpha  occ. eigenvalues --   -1.14714  -1.14678  -1.14601  -1.14588  -1.14539
 Alpha  occ. eigenvalues --   -1.14102  -1.14083  -1.14064  -1.14003  -1.13990
 Alpha  occ. eigenvalues --   -1.13906  -1.13242  -1.13236  -1.13214  -1.13129
 Alpha  occ. eigenvalues --   -1.12926  -1.12922  -1.12881  -1.12876  -1.12779
 Alpha  occ. eigenvalues --   -0.16503  -0.13502  -0.12684  -0.10605
 Alpha virt. eigenvalues --   -0.06663  -0.05627  -0.04809  -0.03766  -0.02563
 Alpha virt. eigenvalues --   -0.02474  -0.02266  -0.01820  -0.01262  -0.00912
 Alpha virt. eigenvalues --   -0.00502  -0.00149   0.00082   0.00180   0.00457

  Beta  occ. eigenvalues --  -38.45183 -38.45107 -38.44638 -38.44407 -38.43756
  Beta  occ. eigenvalues --  -38.43441 -38.43415  -2.20955  -2.20930  -2.20369
  Beta  occ. eigenvalues --   -2.20223  -2.19546  -2.19262  -2.19215  -1.14663
  Beta  occ. eigenvalues --   -1.14653  -1.14629  -1.14591  -1.14586  -1.14515
  Beta  occ. eigenvalues --   -1.14060  -1.14037  -1.14023  -1.13942  -1.13924
  Beta  occ. eigenvalues --   -1.13836  -1.13223  -1.13206  -1.13189  -1.13104
  Beta  occ. eigenvalues --   -1.12922  -1.12912  -1.12858  -1.12856  -1.12754
  Beta  occ. eigenvalues --   -0.15944  -0.13279  -0.12354
  Beta virt. eigenvalues --   -0.07301  -0.06219  -0.05005  -0.04509  -0.03567
  Beta virt. eigenvalues --   -0.02424  -0.02317  -0.01842  -0.01664  -0.01051
  Beta virt. eigenvalues --   -0.00546  -0.00184   0.00046   0.00206   0.00362

 Mulliken charges and spin densities:
               1          2
     1  Na  -0.749858   0.289699
     2  Na   2.037813   0.039758
     3  Na  -0.877348   0.368673
     4  Na  -0.072015   0.042215
     5  Na  -0.153803   0.179343
     6  Na  -0.662041  -0.068887
     7  Na   0.477252   0.149199
 Sum of Mulliken charges =  -0.00000   1.00000

 Dipole moment (field-independent basis, Debye):
    X=             -2.5850    Y=             -0.6354    Z=             -0.1666  Tot=              2.6672
 Quadrupole moment (field-independent basis, Debye-Ang):
   XX=            -62.2320   YY=            -65.2543   ZZ=            -68.7766
   XY=             12.2660   XZ=             -1.8775   YZ=              0.1211

 Normal termination of Gaussian 16 at Wed Nov 29 04:11:57 2023.
