 Gaussian 16, Revision B.01,
 Gaussian 16:  ES64L-G16RevB.01 20-Dec-2017

 -------------------------
 #P B3LYP/6-311+g(d) force
 -------------------------

 -----
 DPGEN
 -----
 Symbolic Z-matrix:
 Charge =  0 Multiplicity = 2

                         Standard orientation:
 ---------------------------------------------------------------------
 Center     Atomic      Atomic             Coordinates (Angstroms)
 Number     Number       Type             X           Y           Z
 ---------------------------------------------------------------------
      1         11           0        0.021566    0.511834   -1.459454
      2         11           0       -2.396455   -0.932720    0.327080
      3         11           0        0.075980   -0.128367    1.657843
      4         11           0        2.472974   -1.035230    0.091873
      5         11           0       -2.011567    1.643229   -0.084142
      6         11           0       -0.067283   -1.896970   -0.663527
      7         11           0        1.904784    1.838225    0.130326
 ---------------------------------------------------------------------

 SCF Done:  E(UB3LYP) =  -1136.07081932     A.U. after   19 cycles

 The electronic state is 2-A.
 Alpha  occ. eigenvalues --  -38.44504 -38.44251 -38.44189 -38.44122 -38.43781
 Alpha  occ. eigenvalues --  -38.43735 -38.43656  -2.20663  -2.20559  -2.20312
 Alpha  occ. eigenvalues --   -2.20203  -2.20023  -2.19894  -2.19754  -1.14695
 Alpha  occ. eigenvalues --   -1.14625  -1.14540  -1.14359  -1.14291  -1.14235
 Alpha  occ. eigenvalues --   -1.14048  -1.13933  -1.13885  -1.13846  -1.13795
 Alpha  occ. eigenvalues --   -1.13782  -1.13680  -1.13553  -1.13506  -1.13488
 Alpha  occ. eigenvalues --   -1.13473  -1.13424  -1.13391  -1.13347  -1.13320
 Alpha  occ. eigenvalues --   -0.21506  -0.14515  -0.12472  -0.11868
 Alpha virt. eigenvalues --   -0.05668  -0.04785  -0.03938  -0.03681  -0.02691
 Alpha virt. eigenvalues --   -0.02436  -0.01476  -0.00638  -0.00011   0.00313
 Alpha virt. eigenvalues --    0.00558   0.00695   0.00884   0.01050   0.01088

  Beta  occ. eigenvalues --  -38.44487 -38.44241 -38.44112 -38.44106 -38.43747
  Beta  occ. eigenvalues --  -38.43727 -38.43571  -2.20639  -2.20418  -2.20294
  Beta  occ. eigenvalues --   -2.20190  -2.19968  -2.19748  -2.19737  -1.14660
  Beta  occ. eigenvalues --   -1.14573  -1.14497  -1.14300  -1.14218  -1.14152
  Beta  occ. eigenvalues --   -1.14020  -1.13911  -1.13845  -1.13800  -1.13779
  Beta  occ. eigenvalues --   -1.13735  -1.13615  -1.13476  -1.13464  -1.13420
  Beta  occ. eigenvalues --   -1.13399  -1.13354  -1.13337  -1.13310  -1.13275
  Beta  occ. eigenvalues --   -0.20718  -0.14123  -0.12173
  Beta virt. eigenvalues --   -0.07652  -0.05693  -0.04761  -0.03623  -0.02935
  Beta virt. eigenvalues --   -0.01897  -0.01372  -0.01335  -0.00613   0.00133
  Beta virt. eigenvalues --    0.00348   0.00535   0.00674   0.00916   0.01049

 Mulliken charges and spin densities:
               1          2
     1  Na  -0.508021   0.209515
     2  Na   0.274271   0.180803
     3  Na  -0.547947   0.409947
     4  Na   0.097970   0.044075
     5  Na   0.077818  -0.000941
     6  Na   0.593585   0.176485
     7  Na   0.012325  -0.019885
 Sum of Mulliken charges =  -0.00000   1.00000

 Dipole moment (field-independent basis, Debye):
    X=              0.2110    Y=              0.3225    Z=              0.4047  Tot=              0.5588
 Quadrupole moment (field-independent basis, Debye-Ang):
   XX=            -55.4098   YY=            -69.8246   ZZ=            -71.2916
   XY=             -0.1432   XZ=             -0.1110   YZ=              0.5345

 Normal termination of Gaussian 16 at Thu Dec  7 09:50:28 2023.
