 Gaussian 16, Revision B.01,
 Gaussian 16:  ES64L-G16RevB.01 20-Dec-2017

 -------------------------
 #P B3LYP/6-311+g(d) force
 -------------------------

 -----
 DPGEN
 -----
 Symbolic Z-matrix:
 Charge =  0 Multiplicity = 2

                         Standard orientation:
 ---------------------------------------------------------------------
 Center     Atomic      Atomic             Coordinates (Angstroms)
 Number     Number       Type             X           Y           Z
 ---------------------------------------------------------------------
      1         11           0        0.794183    2.780718   -0.043108
      2         11           0       -2.825639   -1.603684    0.077817
      3         11           0        0.030107    0.107072   -1.850350
      4         11           0        0.888927   -2.455410   -0.339808
      5         11           0        0.046373   -0.246176    1.878302
      6         11           0       -2.288585    1.648720    0.071757
      7         11           0        3.354634   -0.231239    0.205390
 ---------------------------------------------------------------------

 SCF Done:  E(UB3LYP) =  -1136.13680365     A.U. after   19 cycles

 The electronic state is 2-A.
 Alpha  occ. eigenvalues --  -38.44467 -38.43779 -38.43585 -38.43470 -38.43399
 Alpha  occ. eigenvalues --  -38.43275 -38.43045  -2.20268  -2.19603  -2.19512
 Alpha  occ. eigenvalues --   -2.19372  -2.19364  -2.19187  -2.18906  -1.13938
 Alpha  occ. eigenvalues --   -1.13927  -1.13912  -1.13291  -1.13269  -1.13246
 Alpha  occ. eigenvalues --   -1.13206  -1.13166  -1.13115  -1.13091  -1.13075
 Alpha  occ. eigenvalues --   -1.13036  -1.13005  -1.12996  -1.12964  -1.12856
 Alpha  occ. eigenvalues --   -1.12845  -1.12779  -1.12583  -1.12569  -1.12537
 Alpha  occ. eigenvalues --   -0.18854  -0.13151  -0.12322  -0.10872
 Alpha virt. eigenvalues --   -0.05934  -0.04914  -0.04421  -0.03283  -0.02844
 Alpha virt. eigenvalues --   -0.02611  -0.01819  -0.01005  -0.00214  -0.00109
 Alpha virt. eigenvalues --   -0.00026   0.00341   0.00780   0.00903   0.00918

  Beta  occ. eigenvalues --  -38.44465 -38.43778 -38.43507 -38.43463 -38.43313
  Beta  occ. eigenvalues --  -38.43259 -38.43042  -2.20267  -2.19605  -2.19369
  Beta  occ. eigenvalues --   -2.19363  -2.19208  -2.19164  -2.18903  -1.13929
  Beta  occ. eigenvalues --   -1.13917  -1.13912  -1.13295  -1.13253  -1.13242
  Beta  occ. eigenvalues --   -1.13118  -1.13080  -1.13043  -1.13016  -1.13008
  Beta  occ. eigenvalues --   -1.12998  -1.12986  -1.12904  -1.12860  -1.12827
  Beta  occ. eigenvalues --   -1.12781  -1.12768  -1.12578  -1.12550  -1.12532
  Beta  occ. eigenvalues --   -0.18099  -0.12920  -0.12072
  Beta virt. eigenvalues --   -0.06940  -0.05875  -0.04934  -0.04391  -0.02488
  Beta virt. eigenvalues --   -0.02069  -0.01716  -0.01542  -0.00957  -0.00252
  Beta virt. eigenvalues --   -0.00146   0.00100   0.00357   0.00829   0.00894

 Mulliken charges and spin densities:
               1          2
     1  Na   0.044198  -0.114390
     2  Na   0.147608  -0.078869
     3  Na  -0.237884   0.618882
     4  Na   0.293904  -0.067092
     5  Na  -0.460185   0.755238
     6  Na   0.167563  -0.037084
     7  Na   0.044796  -0.076686
 Sum of Mulliken charges =  -0.00000   1.00000

 Dipole moment (field-independent basis, Debye):
    X=              0.3163    Y=             -0.0991    Z=              0.1232  Tot=              0.3536
 Quadrupole moment (field-independent basis, Debye-Ang):
   XX=            -53.8728   YY=            -65.7009   ZZ=            -73.6980
   XY=              1.3163   XZ=              0.2900   YZ=              0.6662

 Normal termination of Gaussian 16 at Fri Dec  8 04:43:58 2023.
