 Gaussian 16, Revision B.01,
 Gaussian 16:  ES64L-G16RevB.01 20-Dec-2017

 -------------------------
 #P B3LYP/6-311+g(d) force
 -------------------------

 -----
 DPGEN
 -----
 Symbolic Z-matrix:
 Charge =  0 Multiplicity = 2

                         Standard orientation:
 ---------------------------------------------------------------------
 Center     Atomic      Atomic             Coordinates (Angstroms)
 Number     Number       Type             X           Y           Z
 ---------------------------------------------------------------------
      1         11           0       -3.169187    0.579181   -0.294534
      2         11           0       -0.127551    0.105641   -1.680605
      3         11           0       -0.478327    0.219242    2.044137
      4         11           0        3.342879    0.869121   -0.062148
      5         11           0        2.000281   -2.450716    0.012571
      6         11           0       -1.613591   -2.362628   -0.008112
      7         11           0        0.045495    3.040159   -0.011307
 ---------------------------------------------------------------------

 SCF Done:  E(UB3LYP) =  -1136.13555696     A.U. after   19 cycles

 The electronic state is 2-A.
 Alpha  occ. eigenvalues --  -38.44579 -38.44326 -38.43597 -38.43531 -38.43523
 Alpha  occ. eigenvalues --  -38.43364 -38.43344  -2.20338  -2.20170  -2.19413
 Alpha  occ. eigenvalues --   -2.19393  -2.19336  -2.19301  -2.19224  -1.14019
 Alpha  occ. eigenvalues --   -1.13993  -1.13977  -1.13847  -1.13832  -1.13806
 Alpha  occ. eigenvalues --   -1.13087  -1.13070  -1.13061  -1.13052  -1.13038
 Alpha  occ. eigenvalues --   -1.13036  -1.13035  -1.13000  -1.12993  -1.12960
 Alpha  occ. eigenvalues --   -1.12941  -1.12918  -1.12886  -1.12875  -1.12851
 Alpha  occ. eigenvalues --   -0.18322  -0.12961  -0.12284  -0.10582
 Alpha virt. eigenvalues --   -0.06117  -0.05178  -0.04769  -0.03073  -0.02803
 Alpha virt. eigenvalues --   -0.02517  -0.01806  -0.01117  -0.00693  -0.00471
 Alpha virt. eigenvalues --   -0.00036   0.00331   0.00742   0.00825   0.00866

  Beta  occ. eigenvalues --  -38.44582 -38.44315 -38.43598 -38.43518 -38.43435
  Beta  occ. eigenvalues --  -38.43336 -38.43299  -2.20344  -2.20155  -2.19396
  Beta  occ. eigenvalues --   -2.19331  -2.19235  -2.19213  -2.19184  -1.14014
  Beta  occ. eigenvalues --   -1.13998  -1.13983  -1.13835  -1.13804  -1.13791
  Beta  occ. eigenvalues --   -1.13064  -1.13057  -1.13042  -1.13031  -1.12992
  Beta  occ. eigenvalues --   -1.12972  -1.12961  -1.12932  -1.12914  -1.12904
  Beta  occ. eigenvalues --   -1.12882  -1.12854  -1.12845  -1.12832  -1.12817
  Beta  occ. eigenvalues --   -0.17586  -0.12779  -0.12060
  Beta virt. eigenvalues --   -0.06644  -0.06078  -0.05183  -0.04695  -0.02368
  Beta virt. eigenvalues --   -0.02042  -0.01726  -0.01441  -0.01055  -0.00735
  Beta virt. eigenvalues --   -0.00523   0.00128   0.00371   0.00780   0.00840

 Mulliken charges and spin densities:
               1          2
     1  Na   0.455655  -0.009509
     2  Na  -0.038110   0.564977
     3  Na  -0.357246   0.782386
     4  Na  -0.048388  -0.093070
     5  Na  -0.112158  -0.093591
     6  Na   0.137615   0.016655
     7  Na  -0.037367  -0.167848
 Sum of Mulliken charges =  -0.00000   1.00000

 Dipole moment (field-independent basis, Debye):
    X=              0.0246    Y=              0.2745    Z=              0.0466  Tot=              0.2795
 Quadrupole moment (field-independent basis, Debye-Ang):
   XX=            -54.1812   YY=            -63.3745   ZZ=            -75.4929
   XY=              0.1601   XZ=              0.8534   YZ=             -0.3297

 Normal termination of Gaussian 16 at Fri Dec  8 06:35:25 2023.
