 Gaussian 16, Revision B.01,
 Gaussian 16:  ES64L-G16RevB.01 20-Dec-2017

 -------------------------
 #P B3LYP/6-311+g(d) force
 -------------------------

 -----
 DPGEN
 -----
 Symbolic Z-matrix:
 Charge =  0 Multiplicity = 2

                         Standard orientation:
 ---------------------------------------------------------------------
 Center     Atomic      Atomic             Coordinates (Angstroms)
 Number     Number       Type             X           Y           Z
 ---------------------------------------------------------------------
      1         11           0        0.183752    0.913175   -0.334539
      2         11           0       -3.194550   -0.259395   -1.053261
      3         11           0       -0.308693   -2.527379   -1.025187
      4         11           0       -2.290044   -1.568773    1.924793
      5         11           0       -1.768565    3.522399    0.178596
      6         11           0        4.064807    1.497709    0.104110
      7         11           0        3.313293   -1.577735    0.205487
 ---------------------------------------------------------------------

 SCF Done:  E(UB3LYP) =  -1136.11848213     A.U. after   21 cycles

 The electronic state is 2-A.
 Alpha  occ. eigenvalues --  -38.45618 -38.44402 -38.44246 -38.44159 -38.43441
 Alpha  occ. eigenvalues --  -38.43412 -38.43273  -2.21413  -2.20198  -2.20073
 Alpha  occ. eigenvalues --   -2.19970  -2.19303  -2.19187  -2.19116  -1.15106
 Alpha  occ. eigenvalues --   -1.15080  -1.15027  -1.13889  -1.13877  -1.13842
 Alpha  occ. eigenvalues --   -1.13725  -1.13717  -1.13680  -1.13619  -1.13609
 Alpha  occ. eigenvalues --   -1.13590  -1.13024  -1.12979  -1.12934  -1.12855
 Alpha  occ. eigenvalues --   -1.12842  -1.12810  -1.12789  -1.12779  -1.12724
 Alpha  occ. eigenvalues --   -0.17154  -0.13843  -0.11852  -0.10088
 Alpha virt. eigenvalues --   -0.06816  -0.05800  -0.04734  -0.03135  -0.02599
 Alpha virt. eigenvalues --   -0.02277  -0.01783  -0.01659  -0.01531  -0.00646
 Alpha virt. eigenvalues --   -0.00330   0.00067   0.00213   0.00423   0.00667

  Beta  occ. eigenvalues --  -38.45613 -38.44400 -38.44163 -38.44113 -38.43424
  Beta  occ. eigenvalues --  -38.43418 -38.43225  -2.21409  -2.20199  -2.19919
  Beta  occ. eigenvalues --   -2.19886  -2.19273  -2.19199  -2.19029  -1.15082
  Beta  occ. eigenvalues --   -1.15075  -1.15023  -1.13887  -1.13877  -1.13817
  Beta  occ. eigenvalues --   -1.13616  -1.13606  -1.13581  -1.13561  -1.13548
  Beta  occ. eigenvalues --   -1.13540  -1.12998  -1.12957  -1.12923  -1.12862
  Beta  occ. eigenvalues --   -1.12848  -1.12810  -1.12726  -1.12723  -1.12658
  Beta  occ. eigenvalues --   -0.16637  -0.13324  -0.11646
  Beta virt. eigenvalues --   -0.06677  -0.06352  -0.05703  -0.04530  -0.02650
  Beta virt. eigenvalues --   -0.02425  -0.01933  -0.01615  -0.01411  -0.01059
  Beta virt. eigenvalues --   -0.00567   0.00040   0.00263   0.00334   0.00492

 Mulliken charges and spin densities:
               1          2
     1  Na  -2.314331   0.016755
     2  Na   0.849446   0.314455
     3  Na   0.167168   0.123340
     4  Na   0.189749   0.354641
     5  Na   0.345234  -0.048910
     6  Na   0.536081   0.253606
     7  Na   0.226653  -0.013887
 Sum of Mulliken charges =  -0.00000   1.00000

 Dipole moment (field-independent basis, Debye):
    X=             -0.3556    Y=             -0.3119    Z=             -0.2670  Tot=              0.5432
 Quadrupole moment (field-independent basis, Debye-Ang):
   XX=            -62.5203   YY=            -66.4891   ZZ=            -68.9793
   XY=             -2.7382   XZ=              5.9664   YZ=              1.1005

 Normal termination of Gaussian 16 at Tue Dec  5 10:00:17 2023.
