 Gaussian 16, Revision B.01,
 Gaussian 16:  ES64L-G16RevB.01 20-Dec-2017

 -------------------------
 #P B3LYP/6-311+g(d) force
 -------------------------

 -----
 DPGEN
 -----
 Symbolic Z-matrix:
 Charge =  0 Multiplicity = 2

                         Standard orientation:
 ---------------------------------------------------------------------
 Center     Atomic      Atomic             Coordinates (Angstroms)
 Number     Number       Type             X           Y           Z
 ---------------------------------------------------------------------
      1         11           0       -1.696603    3.767754   -0.622753
      2         11           0        3.883716   -1.995118   -0.527478
      3         11           0       -2.953726   -0.113351   -1.043982
      4         11           0       -3.511332   -2.693168    1.018796
      5         11           0        0.221511   -2.460421   -0.351560
      6         11           0        4.113590    1.221406    0.395818
      7         11           0       -0.057156    2.272899    1.131159
 ---------------------------------------------------------------------

 SCF Done:  E(UB3LYP) =  -1136.10964161     A.U. after   20 cycles

 The electronic state is 2-A.
 Alpha  occ. eigenvalues --  -38.45477 -38.45289 -38.44397 -38.44343 -38.44169
 Alpha  occ. eigenvalues --  -38.43863 -38.43274  -2.21246  -2.21107  -2.20243
 Alpha  occ. eigenvalues --   -2.20138  -2.19950  -2.19638  -2.19073  -1.14942
 Alpha  occ. eigenvalues --   -1.14922  -1.14871  -1.14854  -1.14751  -1.14737
 Alpha  occ. eigenvalues --   -1.13918  -1.13874  -1.13858  -1.13799  -1.13797
 Alpha  occ. eigenvalues --   -1.13753  -1.13639  -1.13629  -1.13525  -1.13321
 Alpha  occ. eigenvalues --   -1.13304  -1.13287  -1.12725  -1.12712  -1.12698
 Alpha  occ. eigenvalues --   -0.16073  -0.13397  -0.13339  -0.09930
 Alpha virt. eigenvalues --   -0.06844  -0.06061  -0.04666  -0.03383  -0.03009
 Alpha virt. eigenvalues --   -0.02631  -0.01918  -0.01780  -0.01301  -0.00882
 Alpha virt. eigenvalues --   -0.00401  -0.00049   0.00121   0.00393   0.00491

  Beta  occ. eigenvalues --  -38.45474 -38.45289 -38.44390 -38.44306 -38.44100
  Beta  occ. eigenvalues --  -38.43865 -38.43200  -2.21243  -2.21109  -2.20230
  Beta  occ. eigenvalues --   -2.20070  -2.19825  -2.19647  -2.18935  -1.14934
  Beta  occ. eigenvalues --   -1.14922  -1.14870  -1.14843  -1.14754  -1.14730
  Beta  occ. eigenvalues --   -1.13913  -1.13864  -1.13847  -1.13752  -1.13745
  Beta  occ. eigenvalues --   -1.13712  -1.13554  -1.13546  -1.13429  -1.13332
  Beta  occ. eigenvalues --   -1.13313  -1.13257  -1.12630  -1.12617  -1.12612
  Beta  occ. eigenvalues --   -0.15816  -0.13037  -0.12744
  Beta virt. eigenvalues --   -0.06808  -0.06440  -0.05759  -0.04375  -0.03148
  Beta virt. eigenvalues --   -0.02729  -0.02370  -0.01763  -0.01444  -0.01042
  Beta virt. eigenvalues --   -0.00682  -0.00138   0.00122   0.00294   0.00524

 Mulliken charges and spin densities:
               1          2
     1  Na   0.407937   0.014409
     2  Na   0.075539  -0.134343
     3  Na  -0.024865   0.104599
     4  Na   0.488596   0.228584
     5  Na  -0.426909   0.372316
     6  Na  -0.236145   0.404082
     7  Na  -0.284154   0.010353
 Sum of Mulliken charges =  -0.00000   1.00000

 Dipole moment (field-independent basis, Debye):
    X=             -2.3777    Y=              0.4976    Z=             -0.1827  Tot=              2.4360
 Quadrupole moment (field-independent basis, Debye-Ang):
   XX=            -69.7320   YY=            -65.5733   ZZ=            -67.1261
   XY=             -4.2567   XZ=              0.4399   YZ=             -5.3433

 Normal termination of Gaussian 16 at Sun Dec  3 17:04:00 2023.
