 Gaussian 16, Revision B.01,
 Gaussian 16:  ES64L-G16RevB.01 20-Dec-2017

 -------------------------
 #P B3LYP/6-311+g(d) force
 -------------------------

 -----
 DPGEN
 -----
 Symbolic Z-matrix:
 Charge =  0 Multiplicity = 2

                         Standard orientation:
 ---------------------------------------------------------------------
 Center     Atomic      Atomic             Coordinates (Angstroms)
 Number     Number       Type             X           Y           Z
 ---------------------------------------------------------------------
      1         11           0       -2.824757    1.101004   -0.062039
      2         11           0        0.351207   -0.240234   -1.527943
      3         11           0       -2.626041   -2.216680   -0.239412
      4         11           0        2.793311    0.750669   -0.287914
      5         11           0       -0.036627    0.135006    1.868344
      6         11           0        0.225747    3.021088   -0.041368
      7         11           0        2.117160   -2.550853    0.290331
 ---------------------------------------------------------------------

 SCF Done:  E(UB3LYP) =  -1136.13348583     A.U. after   21 cycles

 The electronic state is 2-A.
 Alpha  occ. eigenvalues --  -38.44078 -38.43979 -38.43931 -38.43923 -38.43300
 Alpha  occ. eigenvalues --  -38.43295 -38.43113  -2.19866  -2.19851  -2.19821
 Alpha  occ. eigenvalues --   -2.19748  -2.19288  -2.19210  -2.18971  -1.13640
 Alpha  occ. eigenvalues --   -1.13554  -1.13534  -1.13514  -1.13498  -1.13497
 Alpha  occ. eigenvalues --   -1.13484  -1.13466  -1.13431  -1.13413  -1.13400
 Alpha  occ. eigenvalues --   -1.13380  -1.12988  -1.12922  -1.12890  -1.12884
 Alpha  occ. eigenvalues --   -1.12837  -1.12821  -1.12636  -1.12631  -1.12618
 Alpha  occ. eigenvalues --   -0.18613  -0.13338  -0.12272  -0.10358
 Alpha virt. eigenvalues --   -0.05756  -0.05450  -0.04806  -0.03176  -0.02631
 Alpha virt. eigenvalues --   -0.02171  -0.01593  -0.01399  -0.00676  -0.00372
 Alpha virt. eigenvalues --    0.00017   0.00331   0.00776   0.00798   0.00830

  Beta  occ. eigenvalues --  -38.44075 -38.43975 -38.43925 -38.43907 -38.43242
  Beta  occ. eigenvalues --  -38.43207 -38.43109  -2.19863  -2.19826  -2.19817
  Beta  occ. eigenvalues --   -2.19738  -2.19183  -2.19048  -2.18967  -1.13613
  Beta  occ. eigenvalues --   -1.13554  -1.13520  -1.13511  -1.13484  -1.13474
  Beta  occ. eigenvalues --   -1.13459  -1.13452  -1.13429  -1.13403  -1.13379
  Beta  occ. eigenvalues --   -1.13374  -1.12911  -1.12841  -1.12815  -1.12779
  Beta  occ. eigenvalues --   -1.12725  -1.12703  -1.12631  -1.12628  -1.12592
  Beta  occ. eigenvalues --   -0.17905  -0.13092  -0.12041
  Beta virt. eigenvalues --   -0.06512  -0.05708  -0.05357  -0.04785  -0.02416
  Beta virt. eigenvalues --   -0.01957  -0.01493  -0.01333  -0.01144  -0.00718
  Beta virt. eigenvalues --   -0.00395   0.00160   0.00372   0.00789   0.00842

 Mulliken charges and spin densities:
               1          2
     1  Na   0.072255  -0.033435
     2  Na  -0.270124   0.354352
     3  Na  -0.059387  -0.067571
     4  Na   0.590021   0.124745
     5  Na  -0.309797   0.698578
     6  Na   0.038672  -0.045659
     7  Na  -0.061640  -0.031010
 Sum of Mulliken charges =  -0.00000   1.00000

 Dipole moment (field-independent basis, Debye):
    X=             -0.0778    Y=             -0.3229    Z=              0.1356  Tot=              0.3587
 Quadrupole moment (field-independent basis, Debye-Ang):
   XX=            -57.2087   YY=            -58.8560   ZZ=            -76.4528
   XY=             -0.6727   XZ=              0.7823   YZ=             -0.8875

 Normal termination of Gaussian 16 at Tue Dec  5 15:46:04 2023.
