 Gaussian 16, Revision B.01,
 Gaussian 16:  ES64L-G16RevB.01 20-Dec-2017

 -------------------------
 #P B3LYP/6-311+g(d) force
 -------------------------

 -----
 DPGEN
 -----
 Symbolic Z-matrix:
 Charge =  0 Multiplicity = 2

                         Standard orientation:
 ---------------------------------------------------------------------
 Center     Atomic      Atomic             Coordinates (Angstroms)
 Number     Number       Type             X           Y           Z
 ---------------------------------------------------------------------
      1         11           0       -2.750761   -1.551861   -0.651133
      2         11           0       -0.761545    0.063751    2.109580
      3         11           0       -2.068422    1.977537   -0.288737
      4         11           0        0.153200    0.097944   -1.545332
      5         11           0        3.295585   -0.722532   -0.366724
      6         11           0        0.640266   -2.389767    0.521284
      7         11           0        1.491678    2.524927    0.221062
 ---------------------------------------------------------------------

 SCF Done:  E(UB3LYP) =  -1136.13632312     A.U. after   20 cycles

 The electronic state is 2-A.
 Alpha  occ. eigenvalues --  -38.43964 -38.43878 -38.43710 -38.43594 -38.43514
 Alpha  occ. eigenvalues --  -38.43219 -38.43024  -2.19791  -2.19709  -2.19622
 Alpha  occ. eigenvalues --   -2.19480  -2.19342  -2.19233  -2.18933  -1.13463
 Alpha  occ. eigenvalues --   -1.13459  -1.13429  -1.13387  -1.13361  -1.13349
 Alpha  occ. eigenvalues --   -1.13299  -1.13279  -1.13222  -1.13199  -1.13137
 Alpha  occ. eigenvalues --   -1.13086  -1.13044  -1.13012  -1.12960  -1.12925
 Alpha  occ. eigenvalues --   -1.12871  -1.12840  -1.12626  -1.12597  -1.12541
 Alpha  occ. eigenvalues --   -0.18791  -0.13106  -0.12276  -0.11059
 Alpha virt. eigenvalues --   -0.05576  -0.05290  -0.04238  -0.03214  -0.02984
 Alpha virt. eigenvalues --   -0.02677  -0.01630  -0.01121  -0.00276  -0.00071
 Alpha virt. eigenvalues --    0.00083   0.00335   0.00763   0.00837   0.00930

  Beta  occ. eigenvalues --  -38.43963 -38.43860 -38.43612 -38.43584 -38.43512
  Beta  occ. eigenvalues --  -38.43167 -38.43008  -2.19791  -2.19680  -2.19466
  Beta  occ. eigenvalues --   -2.19441  -2.19340  -2.19138  -2.18910  -1.13464
  Beta  occ. eigenvalues --   -1.13449  -1.13430  -1.13356  -1.13344  -1.13320
  Beta  occ. eigenvalues --   -1.13204  -1.13174  -1.13159  -1.13098  -1.13088
  Beta  occ. eigenvalues --   -1.13067  -1.13037  -1.12998  -1.12959  -1.12862
  Beta  occ. eigenvalues --   -1.12811  -1.12765  -1.12608  -1.12548  -1.12531
  Beta  occ. eigenvalues --   -0.18064  -0.12865  -0.12044
  Beta virt. eigenvalues --   -0.07084  -0.05482  -0.05264  -0.04180  -0.02569
  Beta virt. eigenvalues --   -0.02186  -0.01663  -0.01473  -0.01083  -0.00229
  Beta virt. eigenvalues --   -0.00013   0.00127   0.00377   0.00832   0.00865

 Mulliken charges and spin densities:
               1          2
     1  Na   0.138783   0.051171
     2  Na  -0.297217   0.550572
     3  Na   0.204951   0.012848
     4  Na  -0.277583   0.346514
     5  Na   0.074942  -0.049294
     6  Na   0.205737   0.097565
     7  Na  -0.049613  -0.009377
 Sum of Mulliken charges =  -0.00000   1.00000

 Dipole moment (field-independent basis, Debye):
    X=             -0.0343    Y=              0.1338    Z=              0.0780  Tot=              0.1586
 Quadrupole moment (field-independent basis, Debye-Ang):
   XX=            -54.7454   YY=            -66.0332   ZZ=            -72.4523
   XY=              0.8403   XZ=              1.2383   YZ=              0.9309

 Normal termination of Gaussian 16 at Thu Dec  7 21:59:04 2023.
