 Gaussian 16, Revision B.01,
 Gaussian 16:  ES64L-G16RevB.01 20-Dec-2017

 -------------------------
 #P B3LYP/6-311+g(d) force
 -------------------------

 -----
 DPGEN
 -----
 Symbolic Z-matrix:
 Charge =  0 Multiplicity = 2

                         Standard orientation:
 ---------------------------------------------------------------------
 Center     Atomic      Atomic             Coordinates (Angstroms)
 Number     Number       Type             X           Y           Z
 ---------------------------------------------------------------------
      1         11           0       -2.942100   -0.948589   -1.739544
      2         11           0       -4.890368   -2.435662    0.365571
      3         11           0       -3.563345    0.997816    1.853647
      4         11           0       -1.461278    2.853876   -0.907881
      5         11           0        1.028305    0.546074    0.015683
      6         11           0        4.447988    0.019520    0.379330
      7         11           0        7.380798   -1.033034    0.033194
 ---------------------------------------------------------------------

 SCF Done:  E(UB3LYP) =  -1136.10711692     A.U. after   23 cycles

 The electronic state is 2-A.
 Alpha  occ. eigenvalues --  -38.45239 -38.45232 -38.44825 -38.44356 -38.44302
 Alpha  occ. eigenvalues --  -38.44007 -38.43413  -2.21032  -2.21006  -2.20583
 Alpha  occ. eigenvalues --   -2.20154  -2.20098  -2.19796  -2.19221  -1.14712
 Alpha  occ. eigenvalues --   -1.14679  -1.14676  -1.14654  -1.14636  -1.14609
 Alpha  occ. eigenvalues --   -1.14271  -1.14238  -1.14233  -1.13808  -1.13796
 Alpha  occ. eigenvalues --   -1.13795  -1.13768  -1.13764  -1.13706  -1.13464
 Alpha  occ. eigenvalues --   -1.13463  -1.13437  -1.12890  -1.12888  -1.12882
 Alpha  occ. eigenvalues --   -0.16139  -0.13869  -0.12190  -0.10746
 Alpha virt. eigenvalues --   -0.07815  -0.05392  -0.04635  -0.03315  -0.02872
 Alpha virt. eigenvalues --   -0.02592  -0.02388  -0.02171  -0.01363  -0.01174
 Alpha virt. eigenvalues --   -0.00822  -0.00125   0.00085   0.00311   0.00463

  Beta  occ. eigenvalues --  -38.45200 -38.45142 -38.44840 -38.44311 -38.44256
  Beta  occ. eigenvalues --  -38.44010 -38.43418  -2.20960  -2.20838  -2.20612
  Beta  occ. eigenvalues --   -2.20069  -2.20012  -2.19804  -2.19236  -1.14661
  Beta  occ. eigenvalues --   -1.14628  -1.14603  -1.14564  -1.14523  -1.14492
  Beta  occ. eigenvalues --   -1.14294  -1.14257  -1.14237  -1.13754  -1.13737
  Beta  occ. eigenvalues --   -1.13737  -1.13708  -1.13703  -1.13656  -1.13471
  Beta  occ. eigenvalues --   -1.13455  -1.13444  -1.12903  -1.12903  -1.12856
  Beta  occ. eigenvalues --   -0.15644  -0.13418  -0.11965
  Beta virt. eigenvalues --   -0.07542  -0.07008  -0.05301  -0.04338  -0.02949
  Beta virt. eigenvalues --   -0.02472  -0.02275  -0.02182  -0.01940  -0.01294
  Beta virt. eigenvalues --   -0.00873  -0.00451   0.00059   0.00210   0.00403

 Mulliken charges and spin densities:
               1          2
     1  Na  -0.011411   0.210858
     2  Na   0.300416  -0.101718
     3  Na   0.123200   0.485459
     4  Na   0.840843  -0.018664
     5  Na  -0.075751   0.075940
     6  Na  -1.207369   0.148452
     7  Na   0.030072   0.199674
 Sum of Mulliken charges =  -0.00000   1.00000

 Dipole moment (field-independent basis, Debye):
    X=             -1.2930    Y=              0.0951    Z=             -0.2180  Tot=              1.3147
 Quadrupole moment (field-independent basis, Debye-Ang):
   XX=            -62.4997   YY=            -68.7785   ZZ=            -66.7787
   XY=             -2.1918   XZ=             -1.9800   YZ=             -4.6802

 Normal termination of Gaussian 16 at Thu Nov 30 08:55:42 2023.
