 Gaussian 16, Revision B.01,
 Gaussian 16:  ES64L-G16RevB.01 20-Dec-2017

 -------------------------
 #P B3LYP/6-311+g(d) force
 -------------------------

 -----
 DPGEN
 -----
 Symbolic Z-matrix:
 Charge =  0 Multiplicity = 2

                         Standard orientation:
 ---------------------------------------------------------------------
 Center     Atomic      Atomic             Coordinates (Angstroms)
 Number     Number       Type             X           Y           Z
 ---------------------------------------------------------------------
      1         11           0       -0.335116   -0.640361   -1.387489
      2         11           0       -0.377824   -0.500820    1.761618
      3         11           0       -2.770361   -1.424697    0.054573
      4         11           0       -2.067924    1.416428   -0.021278
      5         11           0        0.618308    2.157716   -0.843796
      6         11           0        2.341997    0.576372    1.209533
      7         11           0        2.590920   -1.584638   -0.773161
 ---------------------------------------------------------------------

 SCF Done:  E(UB3LYP) =  -1136.10566932     A.U. after   24 cycles

 The electronic state is 2-A.
 Alpha  occ. eigenvalues --  -38.44306 -38.44138 -38.44054 -38.43977 -38.43660
 Alpha  occ. eigenvalues --  -38.43652 -38.42541  -2.20301  -2.20112  -2.20031
 Alpha  occ. eigenvalues --   -2.19968  -2.19818  -2.19741  -2.18547  -1.14079
 Alpha  occ. eigenvalues --   -1.14025  -1.13933  -1.13909  -1.13770  -1.13742
 Alpha  occ. eigenvalues --   -1.13725  -1.13708  -1.13655  -1.13642  -1.13634
 Alpha  occ. eigenvalues --   -1.13576  -1.13557  -1.13436  -1.13398  -1.13378
 Alpha  occ. eigenvalues --   -1.13346  -1.13307  -1.12249  -1.12180  -1.12164
 Alpha  occ. eigenvalues --   -0.20277  -0.14411  -0.11880  -0.11757
 Alpha virt. eigenvalues --   -0.05909  -0.05013  -0.04283  -0.03466  -0.02706
 Alpha virt. eigenvalues --   -0.02590  -0.01707  -0.00786  -0.00200   0.00274
 Alpha virt. eigenvalues --    0.00403   0.00523   0.00777   0.00884   0.00905

  Beta  occ. eigenvalues --  -38.44271 -38.44118 -38.43976 -38.43973 -38.43651
  Beta  occ. eigenvalues --  -38.43583 -38.42527  -2.20241  -2.19996  -2.19975
  Beta  occ. eigenvalues --   -2.19960  -2.19733  -2.19693  -2.18526  -1.14013
  Beta  occ. eigenvalues --   -1.13979  -1.13891  -1.13862  -1.13713  -1.13683
  Beta  occ. eigenvalues --   -1.13659  -1.13653  -1.13619  -1.13609  -1.13604
  Beta  occ. eigenvalues --   -1.13524  -1.13512  -1.13370  -1.13343  -1.13321
  Beta  occ. eigenvalues --   -1.13315  -1.13261  -1.12230  -1.12169  -1.12126
  Beta  occ. eigenvalues --   -0.19517  -0.14142  -0.11505
  Beta virt. eigenvalues --   -0.07752  -0.05858  -0.04828  -0.03627  -0.03173
  Beta virt. eigenvalues --   -0.01989  -0.01696  -0.01615  -0.00676  -0.00001
  Beta virt. eigenvalues --    0.00302   0.00412   0.00586   0.00870   0.00892

 Mulliken charges and spin densities:
               1          2
     1  Na  -0.769094   0.238796
     2  Na  -1.068350   0.185214
     3  Na   1.504258   0.208525
     4  Na   0.383601   0.199470
     5  Na  -0.502200  -0.004020
     6  Na   0.840465   0.159604
     7  Na  -0.388681   0.012411
 Sum of Mulliken charges =  -0.00000   1.00000

 Dipole moment (field-independent basis, Debye):
    X=              0.0433    Y=             -0.2554    Z=              0.1725  Tot=              0.3112
 Quadrupole moment (field-independent basis, Debye-Ang):
   XX=            -54.0468   YY=            -72.4998   ZZ=            -69.4150
   XY=              0.8828   XZ=             -0.3335   YZ=              2.0122

 Normal termination of Gaussian 16 at Fri Dec  8 20:09:38 2023.
