 Gaussian 16, Revision B.01,
 Gaussian 16:  ES64L-G16RevB.01 20-Dec-2017

 -------------------------
 #P B3LYP/6-311+g(d) force
 -------------------------

 -----
 DPGEN
 -----
 Symbolic Z-matrix:
 Charge =  0 Multiplicity = 2

                         Standard orientation:
 ---------------------------------------------------------------------
 Center     Atomic      Atomic             Coordinates (Angstroms)
 Number     Number       Type             X           Y           Z
 ---------------------------------------------------------------------
      1         11           0       -3.633349   -0.837404    1.311740
      2         11           0        0.508963    1.593901   -0.871410
      3         11           0        0.313294   -0.943640    1.271775
      4         11           0        2.771143   -1.621649   -0.998587
      5         11           0       -1.719071   -1.176429   -1.498170
      6         11           0       -2.161647    2.102948   -0.316737
      7         11           0        3.920667    0.882275    1.101389
 ---------------------------------------------------------------------

 SCF Done:  E(UB3LYP) =  -1136.11546444     A.U. after   26 cycles

 The electronic state is 2-A.
 Alpha  occ. eigenvalues --  -38.45138 -38.44866 -38.44797 -38.44562 -38.43587
 Alpha  occ. eigenvalues --  -38.43197 -38.42412  -2.20978  -2.20679  -2.20598
 Alpha  occ. eigenvalues --   -2.20427  -2.19413  -2.19114  -2.18369  -1.14701
 Alpha  occ. eigenvalues --   -1.14666  -1.14572  -1.14350  -1.14333  -1.14324
 Alpha  occ. eigenvalues --   -1.14259  -1.14238  -1.14201  -1.14114  -1.14075
 Alpha  occ. eigenvalues --   -1.14056  -1.13076  -1.13064  -1.13033  -1.12929
 Alpha  occ. eigenvalues --   -1.12758  -1.12718  -1.12062  -1.12000  -1.11976
 Alpha  occ. eigenvalues --   -0.18283  -0.14408  -0.10934  -0.10794
 Alpha virt. eigenvalues --   -0.06903  -0.05888  -0.04645  -0.03032  -0.02904
 Alpha virt. eigenvalues --   -0.02317  -0.02028  -0.01418  -0.00976  -0.00426
 Alpha virt. eigenvalues --   -0.00015   0.00210   0.00313   0.00394   0.00545

  Beta  occ. eigenvalues --  -38.45134 -38.44848 -38.44733 -38.44536 -38.43540
  Beta  occ. eigenvalues --  -38.43194 -38.42402  -2.20974  -2.20648  -2.20476
  Beta  occ. eigenvalues --   -2.20382  -2.19324  -2.19110  -2.18354  -1.14690
  Beta  occ. eigenvalues --   -1.14638  -1.14580  -1.14333  -1.14312  -1.14273
  Beta  occ. eigenvalues --   -1.14175  -1.14153  -1.14125  -1.14083  -1.14036
  Beta  occ. eigenvalues --   -1.14009  -1.13016  -1.12999  -1.12978  -1.12921
  Beta  occ. eigenvalues --   -1.12751  -1.12716  -1.12056  -1.11979  -1.11951
  Beta  occ. eigenvalues --   -0.17694  -0.13953  -0.10791
  Beta virt. eigenvalues --   -0.07260  -0.06719  -0.05298  -0.04302  -0.02905
  Beta virt. eigenvalues --   -0.02687  -0.01802  -0.01489  -0.01050  -0.00798
  Beta virt. eigenvalues --   -0.00215   0.00084   0.00305   0.00419   0.00533

 Mulliken charges and spin densities:
               1          2
     1  Na   0.177354   0.273352
     2  Na  -0.549961  -0.000622
     3  Na  -0.518155  -0.035126
     4  Na   0.388165   0.234318
     5  Na   0.200766   0.194590
     6  Na  -0.056342   0.011202
     7  Na   0.358175   0.322286
 Sum of Mulliken charges =  -0.00000   1.00000

 Dipole moment (field-independent basis, Debye):
    X=              1.0126    Y=             -0.6883    Z=             -0.3438  Tot=              1.2717
 Quadrupole moment (field-independent basis, Debye-Ang):
   XX=            -54.5454   YY=            -78.0374   ZZ=            -65.5392
   XY=             -2.3965   XZ=              0.1303   YZ=              6.1575

 Normal termination of Gaussian 16 at Tue Dec  5 12:55:22 2023.
