 Gaussian 16, Revision B.01,
 Gaussian 16:  ES64L-G16RevB.01 20-Dec-2017

 -------------------------
 #P B3LYP/6-311+g(d) force
 -------------------------

 -----
 DPGEN
 -----
 Symbolic Z-matrix:
 Charge =  0 Multiplicity = 2

                         Standard orientation:
 ---------------------------------------------------------------------
 Center     Atomic      Atomic             Coordinates (Angstroms)
 Number     Number       Type             X           Y           Z
 ---------------------------------------------------------------------
      1         11           0        2.387121    1.954392   -0.122835
      2         11           0       -1.073577   -2.361662    0.144065
      3         11           0        0.318388    0.591317    2.336801
      4         11           0       -1.372884    2.320337   -0.743075
      5         11           0       -3.194686   -0.277173    0.278097
      6         11           0        2.857054   -1.768588   -0.100444
      7         11           0        0.078583   -0.458624   -1.792609
 ---------------------------------------------------------------------

 SCF Done:  E(UB3LYP) =  -1136.12916573     A.U. after   19 cycles

 The electronic state is 2-A.
 Alpha  occ. eigenvalues --  -38.44406 -38.44182 -38.44126 -38.43958 -38.43724
 Alpha  occ. eigenvalues --  -38.43307 -38.43266  -2.20227  -2.20052  -2.19906
 Alpha  occ. eigenvalues --   -2.19761  -2.19682  -2.19226  -2.19119  -1.13878
 Alpha  occ. eigenvalues --   -1.13857  -1.13852  -1.13777  -1.13697  -1.13690
 Alpha  occ. eigenvalues --   -1.13587  -1.13561  -1.13550  -1.13443  -1.13435
 Alpha  occ. eigenvalues --   -1.13426  -1.13394  -1.13331  -1.13279  -1.12906
 Alpha  occ. eigenvalues --   -1.12866  -1.12835  -1.12809  -1.12773  -1.12740
 Alpha  occ. eigenvalues --   -0.18426  -0.13170  -0.11973  -0.11274
 Alpha virt. eigenvalues --   -0.05824  -0.05488  -0.03928  -0.03627  -0.03201
 Alpha virt. eigenvalues --   -0.02839  -0.01658  -0.01128  -0.00270  -0.00088
 Alpha virt. eigenvalues --   -0.00031   0.00348   0.00678   0.00765   0.00869

  Beta  occ. eigenvalues --  -38.44311 -38.44178 -38.44126 -38.43959 -38.43661
  Beta  occ. eigenvalues --  -38.43298 -38.43245  -2.20051  -2.20047  -2.19908
  Beta  occ. eigenvalues --   -2.19765  -2.19567  -2.19214  -2.19084  -1.13775
  Beta  occ. eigenvalues --   -1.13760  -1.13732  -1.13727  -1.13696  -1.13669
  Beta  occ. eigenvalues --   -1.13577  -1.13562  -1.13552  -1.13432  -1.13419
  Beta  occ. eigenvalues --   -1.13400  -1.13360  -1.13253  -1.13195  -1.12892
  Beta  occ. eigenvalues --   -1.12833  -1.12830  -1.12777  -1.12741  -1.12717
  Beta  occ. eigenvalues --   -0.17688  -0.12979  -0.11747
  Beta virt. eigenvalues --   -0.07337  -0.05717  -0.05434  -0.03863  -0.02829
  Beta virt. eigenvalues --   -0.02431  -0.01903  -0.01557  -0.01052  -0.00279
  Beta virt. eigenvalues --   -0.00057   0.00067   0.00374   0.00776   0.00861

 Mulliken charges and spin densities:
               1          2
     1  Na   0.088596  -0.051358
     2  Na   0.237406   0.137390
     3  Na  -0.587430   0.596663
     4  Na   0.208793   0.108464
     5  Na   0.026884   0.025750
     6  Na   0.101370  -0.067082
     7  Na  -0.075620   0.250174
 Sum of Mulliken charges =  -0.00000   1.00000

 Dipole moment (field-independent basis, Debye):
    X=              0.3566    Y=              0.1123    Z=              0.3268  Tot=              0.4966
 Quadrupole moment (field-independent basis, Debye-Ang):
   XX=            -55.5036   YY=            -68.9585   ZZ=            -70.9385
   XY=             -0.6226   XZ=             -0.7452   YZ=             -1.9177

 Normal termination of Gaussian 16 at Thu Dec  7 16:46:14 2023.
