 Gaussian 16, Revision B.01,
 Gaussian 16:  ES64L-G16RevB.01 20-Dec-2017

 -------------------------
 #P B3LYP/6-311+g(d) force
 -------------------------

 -----
 DPGEN
 -----
 Symbolic Z-matrix:
 Charge =  0 Multiplicity = 2

                         Standard orientation:
 ---------------------------------------------------------------------
 Center     Atomic      Atomic             Coordinates (Angstroms)
 Number     Number       Type             X           Y           Z
 ---------------------------------------------------------------------
      1         11           0        0.927346   -0.467075   -1.270300
      2         11           0        2.633426    1.448411    0.955870
      3         11           0       -0.183996   -2.096637    1.515188
      4         11           0       -1.072680    2.550055   -0.534060
      5         11           0       -3.966418    0.562054    0.924049
      6         11           0       -2.420263   -1.437826   -1.311153
      7         11           0        4.082585   -0.558984   -0.279594
 ---------------------------------------------------------------------

 SCF Done:  E(UB3LYP) =  -1136.10904237     A.U. after   27 cycles

 The electronic state is 2-A.
 Alpha  occ. eigenvalues --  -38.44840 -38.44746 -38.44708 -38.44698 -38.43722
 Alpha  occ. eigenvalues --  -38.43527 -38.42894  -2.20751  -2.20631  -2.20529
 Alpha  occ. eigenvalues --   -2.20455  -2.19536  -2.19477  -2.18678  -1.14682
 Alpha  occ. eigenvalues --   -1.14390  -1.14352  -1.14267  -1.14246  -1.14224
 Alpha  occ. eigenvalues --   -1.14190  -1.14155  -1.14153  -1.14152  -1.14114
 Alpha  occ. eigenvalues --   -1.14086  -1.13199  -1.13176  -1.13172  -1.13147
 Alpha  occ. eigenvalues --   -1.13139  -1.13075  -1.12360  -1.12345  -1.12299
 Alpha  occ. eigenvalues --   -0.17683  -0.14471  -0.11138  -0.10479
 Alpha virt. eigenvalues --   -0.07253  -0.05614  -0.04296  -0.03569  -0.02916
 Alpha virt. eigenvalues --   -0.02459  -0.02034  -0.01362  -0.00826  -0.00523
 Alpha virt. eigenvalues --   -0.00190  -0.00111   0.00200   0.00593   0.00608

  Beta  occ. eigenvalues --  -38.44801 -38.44730 -38.44725 -38.44690 -38.43646
  Beta  occ. eigenvalues --  -38.43473 -38.42866  -2.20683  -2.20604  -2.20508
  Beta  occ. eigenvalues --   -2.20500  -2.19394  -2.19381  -2.18630  -1.14640
  Beta  occ. eigenvalues --   -1.14336  -1.14314  -1.14246  -1.14216  -1.14190
  Beta  occ. eigenvalues --   -1.14180  -1.14173  -1.14143  -1.14134  -1.14111
  Beta  occ. eigenvalues --   -1.14109  -1.13111  -1.13100  -1.13080  -1.13064
  Beta  occ. eigenvalues --   -1.13052  -1.13000  -1.12329  -1.12306  -1.12257
  Beta  occ. eigenvalues --   -0.17148  -0.13818  -0.10924
  Beta virt. eigenvalues --   -0.07153  -0.06911  -0.05386  -0.03778  -0.03470
  Beta virt. eigenvalues --   -0.02625  -0.02129  -0.01537  -0.01166  -0.00398
  Beta virt. eigenvalues --   -0.00287  -0.00150   0.00067   0.00340   0.00663

 Mulliken charges and spin densities:
               1          2
     1  Na  -0.573194   0.306079
     2  Na  -0.131193   0.143086
     3  Na  -0.103772  -0.265119
     4  Na  -0.261036  -0.047342
     5  Na  -0.143927   0.480317
     6  Na   0.377216   0.109935
     7  Na   0.835907   0.273044
 Sum of Mulliken charges =  -0.00000   1.00000

 Dipole moment (field-independent basis, Debye):
    X=              1.1617    Y=             -0.9565    Z=              0.1824  Tot=              1.5158
 Quadrupole moment (field-independent basis, Debye-Ang):
   XX=            -66.5273   YY=            -75.9966   ZZ=            -60.9487
   XY=              0.4325   XZ=              0.7265   YZ=              3.7783

 Normal termination of Gaussian 16 at Tue Dec  5 18:43:10 2023.
