 Gaussian 16, Revision B.01,
 Gaussian 16:  ES64L-G16RevB.01 20-Dec-2017

 -------------------------
 #P B3LYP/6-311+g(d) force
 -------------------------

 -----
 DPGEN
 -----
 Symbolic Z-matrix:
 Charge =  0 Multiplicity = 2

                         Standard orientation:
 ---------------------------------------------------------------------
 Center     Atomic      Atomic             Coordinates (Angstroms)
 Number     Number       Type             X           Y           Z
 ---------------------------------------------------------------------
      1         11           0       -1.153284   -2.675615   -1.607377
      2         11           0       -2.878289   -0.443134    0.665252
      3         11           0        2.232669    0.578318    1.163157
      4         11           0       -2.615977    3.051886   -0.093900
      5         11           0        4.969523    0.472085   -0.597119
      6         11           0       -0.169070   -1.819866    1.695359
      7         11           0       -0.385572    0.836328   -1.225372
 ---------------------------------------------------------------------

 SCF Done:  E(UB3LYP) =  -1136.11783488     A.U. after   24 cycles

 The electronic state is 2-A.
 Alpha  occ. eigenvalues --  -38.45098 -38.45002 -38.44475 -38.43771 -38.43701
 Alpha  occ. eigenvalues --  -38.43376 -38.43124  -2.20871  -2.20860  -2.20342
 Alpha  occ. eigenvalues --   -2.19608  -2.19543  -2.19269  -2.18928  -1.14580
 Alpha  occ. eigenvalues --   -1.14556  -1.14520  -1.14518  -1.14498  -1.14465
 Alpha  occ. eigenvalues --   -1.14041  -1.14004  -1.13962  -1.13296  -1.13272
 Alpha  occ. eigenvalues --   -1.13240  -1.13201  -1.13195  -1.13152  -1.12947
 Alpha  occ. eigenvalues --   -1.12923  -1.12870  -1.12598  -1.12588  -1.12569
 Alpha  occ. eigenvalues --   -0.17812  -0.13293  -0.11989  -0.10804
 Alpha virt. eigenvalues --   -0.07406  -0.05083  -0.04079  -0.03311  -0.02837
 Alpha virt. eigenvalues --   -0.02542  -0.02399  -0.01290  -0.00895  -0.00721
 Alpha virt. eigenvalues --   -0.00188   0.00044   0.00162   0.00607   0.00796

  Beta  occ. eigenvalues --  -38.45082 -38.44994 -38.44452 -38.43756 -38.43633
  Beta  occ. eigenvalues --  -38.43316 -38.43127  -2.20859  -2.20830  -2.20303
  Beta  occ. eigenvalues --   -2.19582  -2.19416  -2.19161  -2.18934  -1.14568
  Beta  occ. eigenvalues --   -1.14521  -1.14500  -1.14497  -1.14479  -1.14465
  Beta  occ. eigenvalues --   -1.14003  -1.13974  -1.13929  -1.13283  -1.13254
  Beta  occ. eigenvalues --   -1.13195  -1.13115  -1.13100  -1.13072  -1.12871
  Beta  occ. eigenvalues --   -1.12852  -1.12784  -1.12601  -1.12590  -1.12573
  Beta  occ. eigenvalues --   -0.17155  -0.13073  -0.11844
  Beta virt. eigenvalues --   -0.07168  -0.06904  -0.04869  -0.03745  -0.03165
  Beta virt. eigenvalues --   -0.02510  -0.02284  -0.01710  -0.01069  -0.00647
  Beta virt. eigenvalues --   -0.00446  -0.00076   0.00214   0.00297   0.00666

 Mulliken charges and spin densities:
               1          2
     1  Na  -0.145705   0.232468
     2  Na   0.143033   0.173003
     3  Na   0.141558  -0.081637
     4  Na   0.214335  -0.105873
     5  Na  -0.049674   0.132374
     6  Na   0.174722   0.240634
     7  Na  -0.478271   0.409030
 Sum of Mulliken charges =  -0.00000   1.00000

 Dipole moment (field-independent basis, Debye):
    X=              0.3482    Y=             -0.4026    Z=             -0.1958  Tot=              0.5671
 Quadrupole moment (field-independent basis, Debye-Ang):
   XX=            -53.0069   YY=            -68.4953   ZZ=            -71.5911
   XY=              0.5436   XZ=             -6.1345   YZ=              1.2158

 Normal termination of Gaussian 16 at Tue Nov 28 21:42:03 2023.
