 Gaussian 16, Revision B.01,
 Gaussian 16:  ES64L-G16RevB.01 20-Dec-2017

 -------------------------
 #P B3LYP/6-311+g(d) force
 -------------------------

 -----
 DPGEN
 -----
 Symbolic Z-matrix:
 Charge =  0 Multiplicity = 2

                         Standard orientation:
 ---------------------------------------------------------------------
 Center     Atomic      Atomic             Coordinates (Angstroms)
 Number     Number       Type             X           Y           Z
 ---------------------------------------------------------------------
      1         11           0        2.338476    2.537704   -0.762556
      2         11           0        5.358712    0.024600    0.843609
      3         11           0        2.840489   -1.823105   -0.424358
      4         11           0       -0.249556   -2.333677   -0.019525
      5         11           0       -0.313061    1.601499    0.419053
      6         11           0       -3.574588   -0.358693   -0.624795
      7         11           0       -6.400471    0.351672    0.568571
 ---------------------------------------------------------------------

 SCF Done:  E(UB3LYP) =  -1136.10708923     A.U. after   30 cycles

 The electronic state is 2-A.
 Alpha  occ. eigenvalues --  -38.45533 -38.45405 -38.44981 -38.44431 -38.43625
 Alpha  occ. eigenvalues --  -38.43444 -38.43085  -2.21313  -2.21207  -2.20806
 Alpha  occ. eigenvalues --   -2.20222  -2.19435  -2.19249  -2.18907  -1.14962
 Alpha  occ. eigenvalues --   -1.14943  -1.14941  -1.14855  -1.14841  -1.14840
 Alpha  occ. eigenvalues --   -1.14471  -1.14454  -1.14412  -1.13903  -1.13896
 Alpha  occ. eigenvalues --   -1.13875  -1.13128  -1.13107  -1.13085  -1.12963
 Alpha  occ. eigenvalues --   -1.12913  -1.12883  -1.12573  -1.12567  -1.12530
 Alpha  occ. eigenvalues --   -0.16375  -0.14273  -0.12375  -0.11336
 Alpha virt. eigenvalues --   -0.06918  -0.05208  -0.04595  -0.03242  -0.03097
 Alpha virt. eigenvalues --   -0.02879  -0.02382  -0.01411  -0.01245  -0.01083
 Alpha virt. eigenvalues --   -0.00305  -0.00089   0.00055   0.00262   0.00548

  Beta  occ. eigenvalues --  -38.45460 -38.45333 -38.44896 -38.44440 -38.43631
  Beta  occ. eigenvalues --  -38.43442 -38.43081  -2.21177  -2.21074  -2.20650
  Beta  occ. eigenvalues --   -2.20245  -2.19453  -2.19245  -2.18900  -1.14870
  Beta  occ. eigenvalues --   -1.14855  -1.14845  -1.14765  -1.14750  -1.14749
  Beta  occ. eigenvalues --   -1.14370  -1.14349  -1.14303  -1.13920  -1.13915
  Beta  occ. eigenvalues --   -1.13853  -1.13132  -1.13116  -1.13073  -1.12962
  Beta  occ. eigenvalues --   -1.12910  -1.12876  -1.12569  -1.12562  -1.12526
  Beta  occ. eigenvalues --   -0.15687  -0.13463  -0.11154
  Beta virt. eigenvalues --   -0.09092  -0.06252  -0.04934  -0.04286  -0.03011
  Beta virt. eigenvalues --   -0.02729  -0.02623  -0.01995  -0.01194  -0.00863
  Beta virt. eigenvalues --   -0.00694  -0.00204  -0.00007   0.00168   0.00295

 Mulliken charges and spin densities:
               1          2
     1  Na   0.286075   0.093334
     2  Na   0.444759   0.364311
     3  Na  -0.353864   0.033344
     4  Na   0.106011   0.221333
     5  Na  -0.558121  -0.056142
     6  Na  -0.176010   0.092793
     7  Na   0.251149   0.251028
 Sum of Mulliken charges =  -0.00000   1.00000

 Dipole moment (field-independent basis, Debye):
    X=             -0.6351    Y=              0.0275    Z=              0.6619  Tot=              0.9177
 Quadrupole moment (field-independent basis, Debye-Ang):
   XX=            -41.1227   YY=            -77.7305   ZZ=            -69.4798
   XY=              4.0939   XZ=             -1.4968   YZ=              1.0257

 Normal termination of Gaussian 16 at Tue Nov 28 21:30:56 2023.
