 Gaussian 16, Revision B.01,
 Gaussian 16:  ES64L-G16RevB.01 20-Dec-2017

 -------------------------
 #P B3LYP/6-311+g(d) force
 -------------------------

 -----
 DPGEN
 -----
 Symbolic Z-matrix:
 Charge =  0 Multiplicity = 2

                         Standard orientation:
 ---------------------------------------------------------------------
 Center     Atomic      Atomic             Coordinates (Angstroms)
 Number     Number       Type             X           Y           Z
 ---------------------------------------------------------------------
      1         11           0       -1.711788    1.411478   -1.092696
      2         11           0       -2.581796   -1.773379   -0.310722
      3         11           0        0.661896   -1.363809    1.557732
      4         11           0        3.578293   -0.582967   -0.124684
      5         11           0        1.507671    2.087708    0.132652
      6         11           0        0.450741   -0.806642   -1.598947
      7         11           0       -1.905017    1.027612    1.436665
 ---------------------------------------------------------------------

 SCF Done:  E(UB3LYP) =  -1136.12173325     A.U. after   20 cycles

 The electronic state is 2-A.
 Alpha  occ. eigenvalues --  -38.44745 -38.44197 -38.43678 -38.43665 -38.43600
 Alpha  occ. eigenvalues --  -38.43537 -38.43085  -2.20577  -2.20200  -2.19697
 Alpha  occ. eigenvalues --   -2.19581  -2.19574  -2.19407  -2.18945  -1.14282
 Alpha  occ. eigenvalues --   -1.14249  -1.14230  -1.14220  -1.13816  -1.13746
 Alpha  occ. eigenvalues --   -1.13405  -1.13336  -1.13245  -1.13236  -1.13229
 Alpha  occ. eigenvalues --   -1.13216  -1.13185  -1.13180  -1.13165  -1.13071
 Alpha  occ. eigenvalues --   -1.13065  -1.13040  -1.12637  -1.12623  -1.12563
 Alpha  occ. eigenvalues --   -0.19304  -0.14018  -0.11460  -0.11409
 Alpha virt. eigenvalues --   -0.06376  -0.04967  -0.04206  -0.03275  -0.02696
 Alpha virt. eigenvalues --   -0.02587  -0.02030  -0.00929  -0.00327   0.00099
 Alpha virt. eigenvalues --    0.00252   0.00371   0.00557   0.00768   0.00908

  Beta  occ. eigenvalues --  -38.44746 -38.44152 -38.43638 -38.43629 -38.43536
  Beta  occ. eigenvalues --  -38.43531 -38.43080  -2.20579  -2.20119  -2.19650
  Beta  occ. eigenvalues --   -2.19484  -2.19466  -2.19400  -2.18940  -1.14240
  Beta  occ. eigenvalues --   -1.14232  -1.14229  -1.14222  -1.13751  -1.13691
  Beta  occ. eigenvalues --   -1.13346  -1.13270  -1.13213  -1.13179  -1.13162
  Beta  occ. eigenvalues --   -1.13145  -1.13118  -1.13102  -1.13086  -1.13067
  Beta  occ. eigenvalues --   -1.13035  -1.13026  -1.12634  -1.12596  -1.12562
  Beta  occ. eigenvalues --   -0.18510  -0.13845  -0.11230
  Beta virt. eigenvalues --   -0.07336  -0.06234  -0.04992  -0.03501  -0.03147
  Beta virt. eigenvalues --   -0.02000  -0.01947  -0.01594  -0.00863  -0.00032
  Beta virt. eigenvalues --    0.00095   0.00247   0.00400   0.00755   0.00818

 Mulliken charges and spin densities:
               1          2
     1  Na   0.473047   0.082293
     2  Na   0.084126  -0.084926
     3  Na  -0.370913   0.313418
     4  Na   0.522785   0.006983
     5  Na  -0.435526  -0.040674
     6  Na  -0.333478   0.353100
     7  Na   0.059959   0.369805
 Sum of Mulliken charges =  -0.00000   1.00000

 Dipole moment (field-independent basis, Debye):
    X=              0.9183    Y=             -0.4480    Z=              0.1167  Tot=              1.0284
 Quadrupole moment (field-independent basis, Debye-Ang):
   XX=            -50.0365   YY=            -74.5846   ZZ=            -69.1432
   XY=              0.8379   XZ=             -0.1417   YZ=              0.3731

 Normal termination of Gaussian 16 at Fri Dec  8 05:16:00 2023.
