 Gaussian 16, Revision B.01,
 Gaussian 16:  ES64L-G16RevB.01 20-Dec-2017

 -------------------------
 #P B3LYP/6-311+g(d) force
 -------------------------

 -----
 DPGEN
 -----
 Symbolic Z-matrix:
 Charge =  0 Multiplicity = 2

                         Standard orientation:
 ---------------------------------------------------------------------
 Center     Atomic      Atomic             Coordinates (Angstroms)
 Number     Number       Type             X           Y           Z
 ---------------------------------------------------------------------
      1         11           0       -0.111998    1.831841   -0.280553
      2         11           0       -3.134643    1.707383    0.249482
      3         11           0       -0.404187   -0.883710    2.136448
      4         11           0       -2.904063   -1.451393   -0.710433
      5         11           0        3.199792    1.721159   -0.423082
      6         11           0        0.284682   -1.600854   -1.395965
      7         11           0        3.070417   -1.324426    0.424104
 ---------------------------------------------------------------------

 SCF Done:  E(UB3LYP) =  -1136.11989748     A.U. after   23 cycles

 The electronic state is 2-A.
 Alpha  occ. eigenvalues --  -38.45001 -38.44446 -38.44389 -38.44199 -38.43868
 Alpha  occ. eigenvalues --  -38.43560 -38.43540  -2.20833  -2.20288  -2.20238
 Alpha  occ. eigenvalues --   -2.20029  -2.19709  -2.19440  -2.19413  -1.14509
 Alpha  occ. eigenvalues --   -1.14504  -1.14475  -1.13992  -1.13970  -1.13926
 Alpha  occ. eigenvalues --   -1.13912  -1.13880  -1.13849  -1.13700  -1.13685
 Alpha  occ. eigenvalues --   -1.13671  -1.13383  -1.13337  -1.13315  -1.13131
 Alpha  occ. eigenvalues --   -1.13114  -1.13090  -1.13077  -1.13057  -1.13045
 Alpha  occ. eigenvalues --   -0.18267  -0.14193  -0.11640  -0.10675
 Alpha virt. eigenvalues --   -0.07005  -0.06170  -0.03852  -0.03470  -0.02719
 Alpha virt. eigenvalues --   -0.02420  -0.02285  -0.01762  -0.00629  -0.00334
 Alpha virt. eigenvalues --    0.00074   0.00175   0.00472   0.00562   0.00646

  Beta  occ. eigenvalues --  -38.44999 -38.44443 -38.44359 -38.44193 -38.43767
  Beta  occ. eigenvalues --  -38.43551 -38.43511  -2.20831  -2.20284  -2.20185
  Beta  occ. eigenvalues --   -2.20019  -2.19523  -2.19428  -2.19361  -1.14513
  Beta  occ. eigenvalues --   -1.14500  -1.14456  -1.13989  -1.13961  -1.13909
  Beta  occ. eigenvalues --   -1.13868  -1.13838  -1.13820  -1.13694  -1.13678
  Beta  occ. eigenvalues --   -1.13659  -1.13256  -1.13210  -1.13182  -1.13118
  Beta  occ. eigenvalues --   -1.13084  -1.13068  -1.13063  -1.13008  -1.13003
  Beta  occ. eigenvalues --   -0.17650  -0.13994  -0.11380
  Beta virt. eigenvalues --   -0.06883  -0.06851  -0.06034  -0.03314  -0.03211
  Beta virt. eigenvalues --   -0.02529  -0.01907  -0.01670  -0.01376  -0.00606
  Beta virt. eigenvalues --   -0.00042   0.00114   0.00223   0.00535   0.00694

 Mulliken charges and spin densities:
               1          2
     1  Na  -1.440504   0.103305
     2  Na   1.310107   0.102131
     3  Na  -0.313286   0.431154
     4  Na   0.031614   0.109528
     5  Na   0.031363  -0.109159
     6  Na  -0.025178   0.151741
     7  Na   0.405885   0.211298
 Sum of Mulliken charges =  -0.00000   1.00000

 Dipole moment (field-independent basis, Debye):
    X=              0.1022    Y=             -0.3691    Z=              0.3301  Tot=              0.5056
 Quadrupole moment (field-independent basis, Debye-Ang):
   XX=            -46.7475   YY=            -74.4499   ZZ=            -74.0239
   XY=             -1.6209   XZ=             -0.2596   YZ=             -0.7140

 Normal termination of Gaussian 16 at Thu Dec  7 12:52:27 2023.
