 Gaussian 16, Revision B.01,
 Gaussian 16:  ES64L-G16RevB.01 20-Dec-2017

 -------------------------
 #P B3LYP/6-311+g(d) force
 -------------------------

 -----
 DPGEN
 -----
 Symbolic Z-matrix:
 Charge =  0 Multiplicity = 2

                         Standard orientation:
 ---------------------------------------------------------------------
 Center     Atomic      Atomic             Coordinates (Angstroms)
 Number     Number       Type             X           Y           Z
 ---------------------------------------------------------------------
      1         11           0       -0.237054    0.041881   -1.595785
      2         11           0       -3.102233   -1.101714   -0.143372
      3         11           0       -0.317257   -2.552666    0.111306
      4         11           0        3.191044   -1.220943   -0.408433
      5         11           0       -0.041099    0.160432    2.239411
      6         11           0        1.864122    1.871310    0.103011
      7         11           0       -1.357523    2.801699   -0.306138
 ---------------------------------------------------------------------

 SCF Done:  E(UB3LYP) =  -1136.13416196     A.U. after   20 cycles

 The electronic state is 2-A.
 Alpha  occ. eigenvalues --  -38.44122 -38.43996 -38.43709 -38.43414 -38.43401
 Alpha  occ. eigenvalues --  -38.43354 -38.43336  -2.19957  -2.19873  -2.19507
 Alpha  occ. eigenvalues --   -2.19355  -2.19324  -2.19250  -2.19242  -1.13642
 Alpha  occ. eigenvalues --   -1.13618  -1.13597  -1.13535  -1.13505  -1.13483
 Alpha  occ. eigenvalues --   -1.13183  -1.13172  -1.13149  -1.13105  -1.13088
 Alpha  occ. eigenvalues --   -1.13009  -1.13005  -1.12953  -1.12940  -1.12916
 Alpha  occ. eigenvalues --   -1.12913  -1.12890  -1.12874  -1.12861  -1.12849
 Alpha  occ. eigenvalues --   -0.18703  -0.13000  -0.12363  -0.11050
 Alpha virt. eigenvalues --   -0.05601  -0.05072  -0.04525  -0.03272  -0.02871
 Alpha virt. eigenvalues --   -0.02804  -0.01638  -0.01193  -0.00160  -0.00121
 Alpha virt. eigenvalues --   -0.00005   0.00324   0.00784   0.00867   0.00930

  Beta  occ. eigenvalues --  -38.44121 -38.43886 -38.43705 -38.43406 -38.43397
  Beta  occ. eigenvalues --  -38.43327 -38.43297  -2.19958  -2.19670  -2.19502
  Beta  occ. eigenvalues --   -2.19313  -2.19253  -2.19237  -2.19236  -1.13645
  Beta  occ. eigenvalues --   -1.13603  -1.13597  -1.13401  -1.13358  -1.13343
  Beta  occ. eigenvalues --   -1.13181  -1.13157  -1.13146  -1.13061  -1.13050
  Beta  occ. eigenvalues --   -1.12973  -1.12960  -1.12938  -1.12902  -1.12885
  Beta  occ. eigenvalues --   -1.12879  -1.12865  -1.12858  -1.12848  -1.12831
  Beta  occ. eigenvalues --   -0.17958  -0.12781  -0.12137
  Beta virt. eigenvalues --   -0.07066  -0.05547  -0.05032  -0.04482  -0.02445
  Beta virt. eigenvalues --   -0.02154  -0.01739  -0.01559  -0.01143  -0.00158
  Beta virt. eigenvalues --   -0.00121   0.00101   0.00346   0.00844   0.00858

 Mulliken charges and spin densities:
               1          2
     1  Na  -0.384804   0.366943
     2  Na   0.154167  -0.086177
     3  Na   0.242871   0.132859
     4  Na  -0.029866  -0.022279
     5  Na  -0.468220   0.547315
     6  Na   0.351200   0.124365
     7  Na   0.134652  -0.063027
 Sum of Mulliken charges =  -0.00000   1.00000

 Dipole moment (field-independent basis, Debye):
    X=             -0.4020    Y=             -0.0069    Z=              0.2038  Tot=              0.4507
 Quadrupole moment (field-independent basis, Debye-Ang):
   XX=            -56.2231   YY=            -64.6468   ZZ=            -72.9881
   XY=             -1.1193   XZ=             -0.4991   YZ=              0.0369

 Normal termination of Gaussian 16 at Tue Dec  5 11:09:33 2023.
