 Gaussian 16, Revision B.01,
 Gaussian 16:  ES64L-G16RevB.01 20-Dec-2017

 -------------------------
 #P B3LYP/6-311+g(d) force
 -------------------------

 -----
 DPGEN
 -----
 Symbolic Z-matrix:
 Charge =  0 Multiplicity = 2

                         Standard orientation:
 ---------------------------------------------------------------------
 Center     Atomic      Atomic             Coordinates (Angstroms)
 Number     Number       Type             X           Y           Z
 ---------------------------------------------------------------------
      1         11           0       -0.290020    2.891454    0.196050
      2         11           0        5.799329   -0.741175   -0.990032
      3         11           0        2.653946    1.414780   -0.071939
      4         11           0        3.393535   -1.903956    1.339098
      5         11           0       -0.520881   -0.036035    0.159705
      6         11           0       -4.363769   -1.307481   -1.167259
      7         11           0       -6.672139   -0.317586    0.534376
 ---------------------------------------------------------------------

 SCF Done:  E(UB3LYP) =  -1136.10994594     A.U. after   19 cycles

 The electronic state is 2-A.
 Alpha  occ. eigenvalues --  -38.44473 -38.44417 -38.44366 -38.44346 -38.44110
 Alpha  occ. eigenvalues --  -38.44083 -38.44068  -2.20259  -2.20240  -2.20162
 Alpha  occ. eigenvalues --   -2.20132  -2.19959  -2.19935  -2.19905  -1.13967
 Alpha  occ. eigenvalues --   -1.13956  -1.13911  -1.13905  -1.13873  -1.13871
 Alpha  occ. eigenvalues --   -1.13853  -1.13812  -1.13811  -1.13809  -1.13788
 Alpha  occ. eigenvalues --   -1.13783  -1.13736  -1.13620  -1.13591  -1.13570
 Alpha  occ. eigenvalues --   -1.13563  -1.13560  -1.13553  -1.13533  -1.13471
 Alpha  occ. eigenvalues --   -0.16446  -0.13705  -0.12709  -0.09965
 Alpha virt. eigenvalues --   -0.06900  -0.05640  -0.04766  -0.03576  -0.02867
 Alpha virt. eigenvalues --   -0.02497  -0.01945  -0.01922  -0.01344  -0.01043
 Alpha virt. eigenvalues --   -0.00428  -0.00157   0.00307   0.00399   0.00497

  Beta  occ. eigenvalues --  -38.44452 -38.44389 -38.44352 -38.44305 -38.44113
  Beta  occ. eigenvalues --  -38.44048 -38.44047  -2.20209  -2.20200  -2.20135
  Beta  occ. eigenvalues --   -2.20055  -2.19914  -2.19911  -2.19877  -1.13937
  Beta  occ. eigenvalues --   -1.13898  -1.13884  -1.13871  -1.13859  -1.13842
  Beta  occ. eigenvalues --   -1.13820  -1.13792  -1.13790  -1.13761  -1.13745
  Beta  occ. eigenvalues --   -1.13734  -1.13674  -1.13581  -1.13569  -1.13558
  Beta  occ. eigenvalues --   -1.13554  -1.13536  -1.13526  -1.13515  -1.13430
  Beta  occ. eigenvalues --   -0.15890  -0.13543  -0.12506
  Beta virt. eigenvalues --   -0.06754  -0.06246  -0.05356  -0.04334  -0.03374
  Beta virt. eigenvalues --   -0.02705  -0.02243  -0.01834  -0.01501  -0.01190
  Beta virt. eigenvalues --   -0.00737  -0.00113   0.00076   0.00414   0.00551

 Mulliken charges and spin densities:
               1          2
     1  Na   0.592345   0.186251
     2  Na   0.540135   0.086638
     3  Na  -0.273376   0.196587
     4  Na   0.167363   0.145191
     5  Na  -0.970706   0.347319
     6  Na  -0.166557  -0.025403
     7  Na   0.110796   0.063417
 Sum of Mulliken charges =  -0.00000   1.00000

 Dipole moment (field-independent basis, Debye):
    X=              0.0667    Y=              0.3838    Z=              0.1077  Tot=              0.4041
 Quadrupole moment (field-independent basis, Debye-Ang):
   XX=            -57.2531   YY=            -69.0540   ZZ=            -68.2980
   XY=             -8.2096   XZ=             -6.4090   YZ=              2.6253

 Normal termination of Gaussian 16 at Tue Nov 28 20:11:11 2023.
