 Gaussian 16, Revision B.01,
 Gaussian 16:  ES64L-G16RevB.01 20-Dec-2017

 -------------------------
 #P B3LYP/6-311+g(d) force
 -------------------------

 -----
 DPGEN
 -----
 Symbolic Z-matrix:
 Charge =  0 Multiplicity = 2

                         Standard orientation:
 ---------------------------------------------------------------------
 Center     Atomic      Atomic             Coordinates (Angstroms)
 Number     Number       Type             X           Y           Z
 ---------------------------------------------------------------------
      1         11           0        2.325319   -2.435520    0.317119
      2         11           0       -2.786047    1.678032    0.101030
      3         11           0        0.261442   -1.169236   -1.633419
      4         11           0       -0.440838   -0.214314    1.851501
      5         11           0       -3.118478   -1.737148   -0.217774
      6         11           0        3.301004    1.180885    0.105398
      7         11           0        0.457599    2.697302   -0.523856
 ---------------------------------------------------------------------

 SCF Done:  E(UB3LYP) =  -1136.12588352     A.U. after   23 cycles

 The electronic state is 2-A.
 Alpha  occ. eigenvalues --  -38.44994 -38.44784 -38.44411 -38.44042 -38.43617
 Alpha  occ. eigenvalues --  -38.43584 -38.42924  -2.20773  -2.20573  -2.20233
 Alpha  occ. eigenvalues --   -2.19863  -2.19479  -2.19450  -2.18757  -1.14447
 Alpha  occ. eigenvalues --   -1.14444  -1.14406  -1.14243  -1.14227  -1.14221
 Alpha  occ. eigenvalues --   -1.13906  -1.13899  -1.13870  -1.13579  -1.13509
 Alpha  occ. eigenvalues --   -1.13499  -1.13166  -1.13122  -1.13111  -1.13100
 Alpha  occ. eigenvalues --   -1.13091  -1.13061  -1.12429  -1.12421  -1.12406
 Alpha  occ. eigenvalues --   -0.17868  -0.13517  -0.12116  -0.10083
 Alpha virt. eigenvalues --   -0.06722  -0.06041  -0.04192  -0.03414  -0.02723
 Alpha virt. eigenvalues --   -0.02221  -0.02089  -0.01655  -0.00953  -0.00218
 Alpha virt. eigenvalues --   -0.00072   0.00252   0.00528   0.00633   0.00646

  Beta  occ. eigenvalues --  -38.44995 -38.44775 -38.44407 -38.44038 -38.43535
  Beta  occ. eigenvalues --  -38.43530 -38.42914  -2.20776  -2.20559  -2.20229
  Beta  occ. eigenvalues --   -2.19857  -2.19352  -2.19327  -2.18739  -1.14450
  Beta  occ. eigenvalues --   -1.14435  -1.14409  -1.14231  -1.14214  -1.14200
  Beta  occ. eigenvalues --   -1.13901  -1.13877  -1.13872  -1.13568  -1.13500
  Beta  occ. eigenvalues --   -1.13487  -1.13072  -1.13038  -1.13031  -1.13010
  Beta  occ. eigenvalues --   -1.12989  -1.12979  -1.12419  -1.12408  -1.12381
  Beta  occ. eigenvalues --   -0.17224  -0.13346  -0.11883
  Beta virt. eigenvalues --   -0.06686  -0.06372  -0.05900  -0.04068  -0.02715
  Beta virt. eigenvalues --   -0.02199  -0.02020  -0.01566  -0.01172  -0.00976
  Beta virt. eigenvalues --   -0.00206   0.00134   0.00302   0.00587   0.00717

 Mulliken charges and spin densities:
               1          2
     1  Na   0.190419   0.083374
     2  Na   0.163199   0.086039
     3  Na  -0.172698   0.315001
     4  Na  -0.082283   0.406923
     5  Na   0.131342   0.083353
     6  Na  -0.000049   0.002371
     7  Na  -0.229931   0.022938
 Sum of Mulliken charges =  -0.00000   1.00000

 Dipole moment (field-independent basis, Debye):
    X=             -0.1135    Y=             -0.3881    Z=              0.1793  Tot=              0.4423
 Quadrupole moment (field-independent basis, Debye-Ang):
   XX=            -48.5578   YY=            -67.2608   ZZ=            -77.3399
   XY=             -0.4052   XZ=              1.6406   YZ=             -1.2193

 Normal termination of Gaussian 16 at Sun Dec  3 19:39:46 2023.
