 Gaussian 16, Revision B.01,
 Gaussian 16:  ES64L-G16RevB.01 20-Dec-2017

 -------------------------
 #P B3LYP/6-311+g(d) force
 -------------------------

 -----
 DPGEN
 -----
 Symbolic Z-matrix:
 Charge =  0 Multiplicity = 2

                         Standard orientation:
 ---------------------------------------------------------------------
 Center     Atomic      Atomic             Coordinates (Angstroms)
 Number     Number       Type             X           Y           Z
 ---------------------------------------------------------------------
      1         11           0        0.153984    0.071125   -1.510848
      2         11           0       -1.432117    2.598256   -0.118128
      3         11           0       -3.530703   -0.614741    0.030176
      4         11           0       -0.692761   -2.454692   -0.312669
      5         11           0        0.177576    0.171014    2.104199
      6         11           0        2.897130   -1.588866    0.100991
      7         11           0        2.426891    1.817905   -0.293720
 ---------------------------------------------------------------------

 SCF Done:  E(UB3LYP) =  -1136.13067084     A.U. after   20 cycles

 The electronic state is 2-A.
 Alpha  occ. eigenvalues --  -38.44834 -38.44111 -38.43955 -38.43632 -38.43435
 Alpha  occ. eigenvalues --  -38.43229 -38.43086  -2.20606  -2.19930  -2.19814
 Alpha  occ. eigenvalues --   -2.19505  -2.19263  -2.19254  -2.18985  -1.14279
 Alpha  occ. eigenvalues --   -1.14268  -1.14243  -1.13602  -1.13595  -1.13577
 Alpha  occ. eigenvalues --   -1.13532  -1.13467  -1.13424  -1.13178  -1.13130
 Alpha  occ. eigenvalues --   -1.13117  -1.13054  -1.12978  -1.12923  -1.12904
 Alpha  occ. eigenvalues --   -1.12873  -1.12840  -1.12656  -1.12632  -1.12570
 Alpha  occ. eigenvalues --   -0.18588  -0.13187  -0.12078  -0.10616
 Alpha virt. eigenvalues --   -0.06300  -0.05403  -0.04058  -0.03165  -0.02648
 Alpha virt. eigenvalues --   -0.02507  -0.02080  -0.01320  -0.00452  -0.00138
 Alpha virt. eigenvalues --   -0.00042   0.00281   0.00694   0.00806   0.00877

  Beta  occ. eigenvalues --  -38.44838 -38.44109 -38.43944 -38.43532 -38.43432
  Beta  occ. eigenvalues --  -38.43168 -38.43075  -2.20615  -2.19928  -2.19797
  Beta  occ. eigenvalues --   -2.19320  -2.19252  -2.19153  -2.18968  -1.14280
  Beta  occ. eigenvalues --   -1.14270  -1.14250  -1.13602  -1.13578  -1.13571
  Beta  occ. eigenvalues --   -1.13512  -1.13436  -1.13417  -1.13057  -1.13002
  Beta  occ. eigenvalues --   -1.12989  -1.12983  -1.12954  -1.12901  -1.12877
  Beta  occ. eigenvalues --   -1.12833  -1.12769  -1.12628  -1.12592  -1.12563
  Beta  occ. eigenvalues --   -0.17858  -0.13007  -0.11824
  Beta virt. eigenvalues --   -0.06658  -0.06237  -0.05407  -0.04054  -0.02456
  Beta virt. eigenvalues --   -0.01981  -0.01870  -0.01402  -0.01262  -0.00501
  Beta virt. eigenvalues --   -0.00155   0.00108   0.00311   0.00748   0.00799

 Mulliken charges and spin densities:
               1          2
     1  Na  -0.313482   0.338596
     2  Na   0.100419  -0.085836
     3  Na  -0.027791  -0.048257
     4  Na   0.317643  -0.013771
     5  Na  -0.615978   0.812251
     6  Na   0.202868   0.027688
     7  Na   0.336321  -0.030671
 Sum of Mulliken charges =  -0.00000   1.00000

 Dipole moment (field-independent basis, Debye):
    X=             -0.1433    Y=              0.0808    Z=              0.2882  Tot=              0.3319
 Quadrupole moment (field-independent basis, Debye-Ang):
   XX=            -49.3838   YY=            -66.6062   ZZ=            -75.5853
   XY=             -0.7917   XZ=             -0.2694   YZ=             -0.5013

 Normal termination of Gaussian 16 at Thu Dec  7 12:40:48 2023.
