 Gaussian 16, Revision B.01,
 Gaussian 16:  ES64L-G16RevB.01 20-Dec-2017

 -------------------------
 #P B3LYP/6-311+g(d) force
 -------------------------

 -----
 DPGEN
 -----
 Symbolic Z-matrix:
 Charge =  0 Multiplicity = 2

                         Standard orientation:
 ---------------------------------------------------------------------
 Center     Atomic      Atomic             Coordinates (Angstroms)
 Number     Number       Type             X           Y           Z
 ---------------------------------------------------------------------
      1         11           0        1.089413    2.802159    0.077095
      2         11           0       -0.115802    0.001531   -1.628438
      3         11           0       -2.394529    1.884434   -0.224776
      4         11           0       -0.343764   -0.060031    2.253995
      5         11           0        3.167362   -0.029113   -0.259223
      6         11           0        1.099582   -2.769825    0.066069
      7         11           0       -2.502262   -1.829154   -0.284722
 ---------------------------------------------------------------------

 SCF Done:  E(UB3LYP) =  -1136.13959988     A.U. after   18 cycles

 The electronic state is 2-A.
 Alpha  occ. eigenvalues --  -38.43912 -38.43805 -38.43779 -38.43694 -38.43553
 Alpha  occ. eigenvalues --  -38.43521 -38.43225  -2.19758  -2.19634  -2.19617
 Alpha  occ. eigenvalues --   -2.19514  -2.19383  -2.19346  -2.19197  -1.13411
 Alpha  occ. eigenvalues --   -1.13387  -1.13377  -1.13333  -1.13314  -1.13291
 Alpha  occ. eigenvalues --   -1.13276  -1.13267  -1.13237  -1.13191  -1.13178
 Alpha  occ. eigenvalues --   -1.13167  -1.13063  -1.13051  -1.13025  -1.13014
 Alpha  occ. eigenvalues --   -1.13010  -1.12978  -1.12876  -1.12826  -1.12821
 Alpha  occ. eigenvalues --   -0.18397  -0.12776  -0.12507  -0.10877
 Alpha virt. eigenvalues --   -0.05433  -0.05249  -0.04871  -0.03060  -0.03008
 Alpha virt. eigenvalues --   -0.02818  -0.01362  -0.01208  -0.00466  -0.00394
 Alpha virt. eigenvalues --   -0.00041   0.00356   0.00807   0.00860   0.00887

  Beta  occ. eigenvalues --  -38.43805 -38.43798 -38.43773 -38.43693 -38.43550
  Beta  occ. eigenvalues --  -38.43519 -38.43168  -2.19626  -2.19610  -2.19559
  Beta  occ. eigenvalues --   -2.19513  -2.19381  -2.19344  -2.19092  -1.13323
  Beta  occ. eigenvalues --   -1.13302  -1.13284  -1.13273  -1.13264  -1.13258
  Beta  occ. eigenvalues --   -1.13240  -1.13236  -1.13230  -1.13185  -1.13171
  Beta  occ. eigenvalues --   -1.13168  -1.13058  -1.13032  -1.13020  -1.13011
  Beta  occ. eigenvalues --   -1.12997  -1.12979  -1.12806  -1.12753  -1.12743
  Beta  occ. eigenvalues --   -0.17677  -0.12559  -0.12306
  Beta virt. eigenvalues --   -0.06902  -0.05452  -0.05229  -0.04770  -0.02320
  Beta virt. eigenvalues --   -0.02225  -0.01712  -0.01280  -0.01140  -0.00510
  Beta virt. eigenvalues --   -0.00455   0.00122   0.00389   0.00850   0.00872

 Mulliken charges and spin densities:
               1          2
     1  Na   0.075664  -0.010361
     2  Na  -0.116067   0.336064
     3  Na   0.235639  -0.032403
     4  Na  -0.598943   0.791178
     5  Na   0.050108  -0.033929
     6  Na   0.117527  -0.010786
     7  Na   0.236071  -0.039763
 Sum of Mulliken charges =  -0.00000   1.00000

 Dipole moment (field-independent basis, Debye):
    X=             -0.1860    Y=             -0.0217    Z=              0.1449  Tot=              0.2368
 Quadrupole moment (field-independent basis, Debye-Ang):
   XX=            -58.5757   YY=            -61.5139   ZZ=            -73.9262
   XY=              0.1715   XZ=              0.4179   YZ=              0.1546

 Normal termination of Gaussian 16 at Thu Dec  7 15:24:48 2023.
