 Gaussian 16, Revision B.01,
 Gaussian 16:  ES64L-G16RevB.01 20-Dec-2017

 -------------------------
 #P B3LYP/6-311+g(d) force
 -------------------------

 -----
 DPGEN
 -----
 Symbolic Z-matrix:
 Charge =  0 Multiplicity = 2

                         Standard orientation:
 ---------------------------------------------------------------------
 Center     Atomic      Atomic             Coordinates (Angstroms)
 Number     Number       Type             X           Y           Z
 ---------------------------------------------------------------------
      1         11           0        2.380774    1.809821   -0.006164
      2         11           0       -3.189348   -0.360696   -0.450923
      3         11           0       -0.249486   -0.009995    2.164259
      4         11           0        0.030484   -0.070562   -1.506636
      5         11           0        3.015090   -1.426483   -0.270904
      6         11           0       -0.785669   -2.616486    0.153245
      7         11           0       -1.201846    2.674401   -0.082877
 ---------------------------------------------------------------------

 SCF Done:  E(UB3LYP) =  -1136.13671195     A.U. after   19 cycles

 The electronic state is 2-A.
 Alpha  occ. eigenvalues --  -38.44259 -38.44003 -38.43757 -38.43684 -38.43205
 Alpha  occ. eigenvalues --  -38.43149 -38.43093  -2.20102  -2.19816  -2.19605
 Alpha  occ. eigenvalues --   -2.19569  -2.19214  -2.19042  -2.18939  -1.13778
 Alpha  occ. eigenvalues --   -1.13753  -1.13741  -1.13494  -1.13487  -1.13454
 Alpha  occ. eigenvalues --   -1.13292  -1.13272  -1.13235  -1.13226  -1.13190
 Alpha  occ. eigenvalues --   -1.13187  -1.12937  -1.12887  -1.12830  -1.12715
 Alpha  occ. eigenvalues --   -1.12701  -1.12653  -1.12615  -1.12603  -1.12568
 Alpha  occ. eigenvalues --   -0.18677  -0.13253  -0.12181  -0.10831
 Alpha virt. eigenvalues --   -0.05844  -0.05201  -0.04380  -0.03200  -0.02762
 Alpha virt. eigenvalues --   -0.02652  -0.01795  -0.01089  -0.00319  -0.00274
 Alpha virt. eigenvalues --   -0.00031   0.00322   0.00752   0.00876   0.00888

  Beta  occ. eigenvalues --  -38.44246 -38.44001 -38.43755 -38.43576 -38.43156
  Beta  occ. eigenvalues --  -38.43140 -38.43089  -2.20080  -2.19814  -2.19603
  Beta  occ. eigenvalues --   -2.19370  -2.19125  -2.19029  -2.18935  -1.13756
  Beta  occ. eigenvalues --   -1.13729  -1.13728  -1.13494  -1.13474  -1.13451
  Beta  occ. eigenvalues --   -1.13287  -1.13259  -1.13223  -1.13104  -1.13051
  Beta  occ. eigenvalues --   -1.13044  -1.12883  -1.12826  -1.12760  -1.12698
  Beta  occ. eigenvalues --   -1.12657  -1.12648  -1.12608  -1.12586  -1.12562
  Beta  occ. eigenvalues --   -0.17958  -0.13010  -0.11950
  Beta virt. eigenvalues --   -0.06875  -0.05765  -0.05210  -0.04348  -0.02471
  Beta virt. eigenvalues --   -0.01985  -0.01711  -0.01522  -0.01050  -0.00348
  Beta virt. eigenvalues --   -0.00299   0.00119   0.00363   0.00825   0.00869

 Mulliken charges and spin densities:
               1          2
     1  Na   0.150363  -0.012310
     2  Na   0.269109   0.028570
     3  Na  -0.523869   0.696772
     4  Na  -0.456166   0.277408
     5  Na   0.159120  -0.020623
     6  Na   0.299461   0.045644
     7  Na   0.101982  -0.015460
 Sum of Mulliken charges =  -0.00000   1.00000

 Dipole moment (field-independent basis, Debye):
    X=             -0.0088    Y=             -0.0475    Z=              0.1459  Tot=              0.1537
 Quadrupole moment (field-independent basis, Debye-Ang):
   XX=            -54.1207   YY=            -64.9880   ZZ=            -74.0887
   XY=             -0.5050   XZ=              0.8434   YZ=              0.1874

 Normal termination of Gaussian 16 at Thu Dec  7 07:59:20 2023.
