 Gaussian 16, Revision B.01,
 Gaussian 16:  ES64L-G16RevB.01 20-Dec-2017

 -------------------------
 #P B3LYP/6-311+g(d) force
 -------------------------

 -----
 DPGEN
 -----
 Symbolic Z-matrix:
 Charge =  0 Multiplicity = 2

                         Standard orientation:
 ---------------------------------------------------------------------
 Center     Atomic      Atomic             Coordinates (Angstroms)
 Number     Number       Type             X           Y           Z
 ---------------------------------------------------------------------
      1         11           0       -0.744569    1.195837    1.068871
      2         11           0        0.881030    1.721771   -0.813429
      3         11           0        1.939897   -0.871957   -0.847929
      4         11           0       -0.357361   -1.815162    0.663371
      5         11           0       -2.647066   -0.042368   -0.097129
      6         11           0       -0.557965   -0.285563   -1.515829
      7         11           0        1.486034    0.097442    1.542071
 ---------------------------------------------------------------------

 SCF Done:  E(UB3LYP) =  -1136.01378374     A.U. after   23 cycles

 The electronic state is 2-A.
 Alpha  occ. eigenvalues --  -38.45660 -38.45444 -38.45017 -38.45010 -38.44600
 Alpha  occ. eigenvalues --  -38.44229 -38.43191  -2.22190  -2.21778  -2.21452
 Alpha  occ. eigenvalues --   -2.21151  -2.20866  -2.20521  -2.19464  -1.16258
 Alpha  occ. eigenvalues --   -1.16065  -1.15990  -1.15846  -1.15616  -1.15443
 Alpha  occ. eigenvalues --   -1.15298  -1.15206  -1.14842  -1.14776  -1.14656
 Alpha  occ. eigenvalues --   -1.14554  -1.14506  -1.14438  -1.14415  -1.14118
 Alpha  occ. eigenvalues --   -1.14041  -1.13948  -1.13200  -1.13112  -1.13004
 Alpha  occ. eigenvalues --   -0.22785  -0.14206  -0.13607  -0.12518
 Alpha virt. eigenvalues --   -0.05445  -0.04187  -0.04110  -0.03718  -0.03233
 Alpha virt. eigenvalues --   -0.02961  -0.00911  -0.00331  -0.00184   0.00267
 Alpha virt. eigenvalues --    0.00922   0.01048   0.01112   0.01212   0.01314

  Beta  occ. eigenvalues --  -38.45571 -38.45371 -38.45011 -38.44955 -38.44565
  Beta  occ. eigenvalues --  -38.44196 -38.43166  -2.22035  -2.21651  -2.21362
  Beta  occ. eigenvalues --   -2.21138  -2.20809  -2.20469  -2.19425  -1.16133
  Beta  occ. eigenvalues --   -1.15987  -1.15890  -1.15734  -1.15538  -1.15367
  Beta  occ. eigenvalues --   -1.15223  -1.15127  -1.14768  -1.14732  -1.14639
  Beta  occ. eigenvalues --   -1.14502  -1.14466  -1.14403  -1.14337  -1.14071
  Beta  occ. eigenvalues --   -1.13967  -1.13912  -1.13184  -1.13033  -1.12974
  Beta  occ. eigenvalues --   -0.21928  -0.13934  -0.12238
  Beta virt. eigenvalues --   -0.08977  -0.05384  -0.03699  -0.03488  -0.03340
  Beta virt. eigenvalues --   -0.02397  -0.02166  -0.00880  -0.00185  -0.00078
  Beta virt. eigenvalues --    0.00303   0.00979   0.01109   0.01161   0.01317

 Mulliken charges and spin densities:
               1          2
     1  Na  -0.557434   0.378416
     2  Na   0.155720   0.124330
     3  Na   0.179397  -0.078592
     4  Na  -0.658718   0.312921
     5  Na   0.991321  -0.004847
     6  Na  -0.650467   0.128310
     7  Na   0.540181   0.139462
 Sum of Mulliken charges =  -0.00000   1.00000

 Dipole moment (field-independent basis, Debye):
    X=             -0.0107    Y=             -0.2016    Z=              0.1450  Tot=              0.2485
 Quadrupole moment (field-independent basis, Debye-Ang):
   XX=            -61.1571   YY=            -74.9522   ZZ=            -63.8074
   XY=             -0.0003   XZ=             -0.5216   YZ=             -0.1409

 Normal termination of Gaussian 16 at Fri Dec  8 19:37:38 2023.
