 Gaussian 16, Revision B.01,
 Gaussian 16:  ES64L-G16RevB.01 20-Dec-2017

 -------------------------
 #P B3LYP/6-311+g(d) force
 -------------------------

 -----
 DPGEN
 -----
 Symbolic Z-matrix:
 Charge =  0 Multiplicity = 2

                         Standard orientation:
 ---------------------------------------------------------------------
 Center     Atomic      Atomic             Coordinates (Angstroms)
 Number     Number       Type             X           Y           Z
 ---------------------------------------------------------------------
      1         11           0        3.382868   -0.572797   -0.299019
      2         11           0       -2.097437    2.043208    0.151553
      3         11           0        1.071535    2.664901   -0.215540
      4         11           0       -0.338853    0.022162   -1.684413
      5         11           0        0.161501    0.142635    2.043186
      6         11           0        0.620174   -2.540161    0.196342
      7         11           0       -2.799789   -1.759947   -0.192109
 ---------------------------------------------------------------------

 SCF Done:  E(UB3LYP) =  -1136.13705746     A.U. after   22 cycles

 The electronic state is 2-A.
 Alpha  occ. eigenvalues --  -38.44069 -38.43719 -38.43692 -38.43612 -38.43494
 Alpha  occ. eigenvalues --  -38.43311 -38.43280  -2.19853  -2.19573  -2.19534
 Alpha  occ. eigenvalues --   -2.19517  -2.19364  -2.19283  -2.19173  -1.13523
 Alpha  occ. eigenvalues --   -1.13515  -1.13494  -1.13286  -1.13247  -1.13218
 Alpha  occ. eigenvalues --   -1.13209  -1.13195  -1.13184  -1.13180  -1.13152
 Alpha  occ. eigenvalues --   -1.13127  -1.13060  -1.13022  -1.12980  -1.12973
 Alpha  occ. eigenvalues --   -1.12931  -1.12887  -1.12859  -1.12837  -1.12770
 Alpha  occ. eigenvalues --   -0.18673  -0.12827  -0.12563  -0.10805
 Alpha virt. eigenvalues --   -0.05604  -0.05196  -0.04634  -0.03156  -0.02932
 Alpha virt. eigenvalues --   -0.02571  -0.01624  -0.01210  -0.00293  -0.00177
 Alpha virt. eigenvalues --   -0.00022   0.00330   0.00778   0.00862   0.00909

  Beta  occ. eigenvalues --  -38.44067 -38.43717 -38.43685 -38.43515 -38.43487
  Beta  occ. eigenvalues --  -38.43271 -38.43247  -2.19851  -2.19564  -2.19534
  Beta  occ. eigenvalues --   -2.19354  -2.19339  -2.19167  -2.19160  -1.13521
  Beta  occ. eigenvalues --   -1.13505  -1.13494  -1.13277  -1.13215  -1.13205
  Beta  occ. eigenvalues --   -1.13200  -1.13185  -1.13178  -1.13080  -1.13052
  Beta  occ. eigenvalues --   -1.13027  -1.13005  -1.12985  -1.12975  -1.12910
  Beta  occ. eigenvalues --   -1.12864  -1.12825  -1.12803  -1.12792  -1.12767
  Beta  occ. eigenvalues --   -0.17928  -0.12593  -0.12343
  Beta virt. eigenvalues --   -0.06882  -0.05531  -0.05189  -0.04593  -0.02343
  Beta virt. eigenvalues --   -0.02209  -0.01548  -0.01523  -0.01145  -0.00347
  Beta virt. eigenvalues --   -0.00178   0.00108   0.00352   0.00828   0.00863

 Mulliken charges and spin densities:
               1          2
     1  Na  -0.073241  -0.069475
     2  Na   0.276781  -0.039238
     3  Na   0.101320  -0.069520
     4  Na  -0.318168   0.648655
     5  Na  -0.337082   0.629319
     6  Na   0.208055  -0.016373
     7  Na   0.142336  -0.083369
 Sum of Mulliken charges =  -0.00000   1.00000

 Dipole moment (field-independent basis, Debye):
    X=             -0.0083    Y=              0.1387    Z=              0.0815  Tot=              0.1611
 Quadrupole moment (field-independent basis, Debye-Ang):
   XX=            -55.5821   YY=            -63.6148   ZZ=            -74.0501
   XY=              0.7512   XZ=             -1.3361   YZ=             -0.1467

 Normal termination of Gaussian 16 at Fri Dec  8 04:55:45 2023.
