 Gaussian 16, Revision B.01,
 Gaussian 16:  ES64L-G16RevB.01 20-Dec-2017

 -------------------------
 #P B3LYP/6-311+g(d) force
 -------------------------

 -----
 DPGEN
 -----
 Symbolic Z-matrix:
 Charge =  0 Multiplicity = 2

                         Standard orientation:
 ---------------------------------------------------------------------
 Center     Atomic      Atomic             Coordinates (Angstroms)
 Number     Number       Type             X           Y           Z
 ---------------------------------------------------------------------
      1         11           0       -3.351405   -1.780988    0.256076
      2         11           0       -2.457199    1.753946    0.058084
      3         11           0       -0.153705   -0.086179   -1.834084
      4         11           0        1.610949   -2.238409   -0.678843
      5         11           0        0.505927   -0.207011    2.273831
      6         11           0        3.161882    0.116799    0.287907
      7         11           0        0.683552    2.441841   -0.362970
 ---------------------------------------------------------------------

 SCF Done:  E(UB3LYP) =  -1136.12126446     A.U. after   22 cycles

 The electronic state is 2-A.
 Alpha  occ. eigenvalues --  -38.44904 -38.44537 -38.44173 -38.44083 -38.43939
 Alpha  occ. eigenvalues --  -38.43676 -38.42463  -2.20743  -2.20440  -2.20045
 Alpha  occ. eigenvalues --   -2.19912  -2.19776  -2.19590  -2.18390  -1.14403
 Alpha  occ. eigenvalues --   -1.14372  -1.14368  -1.14147  -1.14093  -1.14074
 Alpha  occ. eigenvalues --   -1.13760  -1.13726  -1.13647  -1.13587  -1.13578
 Alpha  occ. eigenvalues --   -1.13552  -1.13456  -1.13452  -1.13395  -1.13262
 Alpha  occ. eigenvalues --   -1.13228  -1.13201  -1.12100  -1.12037  -1.12014
 Alpha  occ. eigenvalues --   -0.18669  -0.13434  -0.11707  -0.11461
 Alpha virt. eigenvalues --   -0.06247  -0.05400  -0.03941  -0.03573  -0.03190
 Alpha virt. eigenvalues --   -0.02838  -0.01834  -0.01062  -0.00364  -0.00123
 Alpha virt. eigenvalues --    0.00017   0.00302   0.00437   0.00659   0.00813

  Beta  occ. eigenvalues --  -38.44811 -38.44528 -38.44178 -38.44006 -38.43938
  Beta  occ. eigenvalues --  -38.43651 -38.42453  -2.20569  -2.20429  -2.19922
  Beta  occ. eigenvalues --   -2.19906  -2.19776  -2.19549  -2.18376  -1.14291
  Beta  occ. eigenvalues --   -1.14249  -1.14244  -1.14142  -1.14074  -1.14044
  Beta  occ. eigenvalues --   -1.13665  -1.13629  -1.13590  -1.13585  -1.13562
  Beta  occ. eigenvalues --   -1.13544  -1.13453  -1.13443  -1.13398  -1.13224
  Beta  occ. eigenvalues --   -1.13203  -1.13153  -1.12084  -1.12024  -1.11992
  Beta  occ. eigenvalues --   -0.17866  -0.13259  -0.11370
  Beta virt. eigenvalues --   -0.07583  -0.06031  -0.05378  -0.03736  -0.03011
  Beta virt. eigenvalues --   -0.02231  -0.02111  -0.01668  -0.00988  -0.00348
  Beta virt. eigenvalues --   -0.00018   0.00041   0.00332   0.00704   0.00755

 Mulliken charges and spin densities:
               1          2
     1  Na  -0.175077  -0.029981
     2  Na  -0.090987  -0.040848
     3  Na   0.333548   0.205858
     4  Na   0.038880  -0.017909
     5  Na  -0.484903   0.555071
     6  Na   0.398188   0.252329
     7  Na  -0.019648   0.075480
 Sum of Mulliken charges =  -0.00000   1.00000

 Dipole moment (field-independent basis, Debye):
    X=              0.2196    Y=             -0.0610    Z=              0.5264  Tot=              0.5736
 Quadrupole moment (field-independent basis, Debye-Ang):
   XX=            -56.6501   YY=            -70.0513   ZZ=            -70.2556
   XY=             -0.1531   XZ=             -0.6891   YZ=              0.3501

 Normal termination of Gaussian 16 at Fri Dec  8 00:54:34 2023.
