 Gaussian 16, Revision B.01,
 Gaussian 16:  ES64L-G16RevB.01 20-Dec-2017

 -------------------------
 #P B3LYP/6-311+g(d) force
 -------------------------

 -----
 DPGEN
 -----
 Symbolic Z-matrix:
 Charge =  0 Multiplicity = 2

                         Standard orientation:
 ---------------------------------------------------------------------
 Center     Atomic      Atomic             Coordinates (Angstroms)
 Number     Number       Type             X           Y           Z
 ---------------------------------------------------------------------
      1         11           0       -0.279802   -0.668299   -1.441414
      2         11           0       -0.739004   -1.176997    1.287186
      3         11           0       -2.980910   -0.299786   -0.377214
      4         11           0       -1.012390    1.769705    0.270886
      5         11           0        1.275705    0.768394    1.566686
      6         11           0        1.731107    1.279892   -1.161414
      7         11           0        2.005294   -1.672909   -0.144714
 ---------------------------------------------------------------------

 SCF Done:  E(UB3LYP) =  -1136.08469402     A.U. after   21 cycles

 The electronic state is 2-A.
 Alpha  occ. eigenvalues --  -38.44328 -38.44154 -38.43941 -38.43880 -38.43727
 Alpha  occ. eigenvalues --  -38.43179 -38.42729  -2.20352  -2.20340  -2.20244
 Alpha  occ. eigenvalues --   -2.19986  -2.19934  -2.19238  -2.18886  -1.14241
 Alpha  occ. eigenvalues --   -1.14228  -1.14152  -1.14073  -1.14011  -1.14008
 Alpha  occ. eigenvalues --   -1.13968  -1.13942  -1.13825  -1.13585  -1.13560
 Alpha  occ. eigenvalues --   -1.13552  -1.13542  -1.13489  -1.13472  -1.12926
 Alpha  occ. eigenvalues --   -1.12880  -1.12826  -1.12603  -1.12536  -1.12467
 Alpha  occ. eigenvalues --   -0.21474  -0.14201  -0.12726  -0.12005
 Alpha virt. eigenvalues --   -0.05579  -0.04117  -0.04005  -0.03639  -0.02917
 Alpha virt. eigenvalues --   -0.02867  -0.01317  -0.00391  -0.00302   0.00302
 Alpha virt. eigenvalues --    0.00730   0.00904   0.00990   0.01049   0.01088

  Beta  occ. eigenvalues --  -38.44322 -38.44086 -38.43874 -38.43838 -38.43669
  Beta  occ. eigenvalues --  -38.43168 -38.42712  -2.20329  -2.20232  -2.20127
  Beta  occ. eigenvalues --   -2.19913  -2.19834  -2.19225  -2.18862  -1.14197
  Beta  occ. eigenvalues --   -1.14155  -1.14051  -1.14012  -1.13978  -1.13958
  Beta  occ. eigenvalues --   -1.13902  -1.13874  -1.13759  -1.13517  -1.13509
  Beta  occ. eigenvalues --   -1.13483  -1.13473  -1.13418  -1.13377  -1.12918
  Beta  occ. eigenvalues --   -1.12845  -1.12805  -1.12589  -1.12487  -1.12437
  Beta  occ. eigenvalues --   -0.20621  -0.13939  -0.11775
  Beta virt. eigenvalues --   -0.08265  -0.05500  -0.04024  -0.03382  -0.03262
  Beta virt. eigenvalues --   -0.02139  -0.01881  -0.01251  -0.00361  -0.00060
  Beta virt. eigenvalues --    0.00339   0.00786   0.00907   0.01050   0.01104

 Mulliken charges and spin densities:
               1          2
     1  Na  -0.000477   0.519628
     2  Na  -0.534900   0.205484
     3  Na   0.884422  -0.047581
     4  Na  -0.843990   0.124846
     5  Na   0.777715   0.302097
     6  Na  -0.021844  -0.016228
     7  Na  -0.260925  -0.088247
 Sum of Mulliken charges =  -0.00000   1.00000

 Dipole moment (field-independent basis, Debye):
    X=             -0.1919    Y=              0.0024    Z=             -0.0881  Tot=              0.2112
 Quadrupole moment (field-independent basis, Debye-Ang):
   XX=            -56.0301   YY=            -74.5003   ZZ=            -65.7081
   XY=             -0.2412   XZ=              0.1848   YZ=             -1.1144

 Normal termination of Gaussian 16 at Fri Dec  8 18:14:00 2023.
