 Gaussian 16, Revision B.01,
 Gaussian 16:  ES64L-G16RevB.01 20-Dec-2017

 -------------------------
 #P B3LYP/6-311+g(d) force
 -------------------------

 -----
 DPGEN
 -----
 Symbolic Z-matrix:
 Charge =  0 Multiplicity = 2

                         Standard orientation:
 ---------------------------------------------------------------------
 Center     Atomic      Atomic             Coordinates (Angstroms)
 Number     Number       Type             X           Y           Z
 ---------------------------------------------------------------------
      1         11           0        3.215862    2.001984    0.281209
      2         11           0       -1.615342   -1.669371   -1.163500
      3         11           0        1.000102   -1.146766    0.815824
      4         11           0        3.926365   -1.585629   -0.499556
      5         11           0       -2.542603   -0.228931    2.165566
      6         11           0        0.049969    2.022614   -0.632957
      7         11           0       -4.034354    0.606099   -0.966587
 ---------------------------------------------------------------------

 SCF Done:  E(UB3LYP) =  -1136.11080767     A.U. after   28 cycles

 The electronic state is 2-A.
 Alpha  occ. eigenvalues --  -38.45188 -38.44955 -38.44947 -38.44635 -38.43771
 Alpha  occ. eigenvalues --  -38.43532 -38.43351  -2.20997  -2.20789  -2.20774
 Alpha  occ. eigenvalues --   -2.20420  -2.19576  -2.19328  -2.19237  -1.14654
 Alpha  occ. eigenvalues --   -1.14643  -1.14616  -1.14492  -1.14470  -1.14439
 Alpha  occ. eigenvalues --   -1.14424  -1.14402  -1.14361  -1.14091  -1.14075
 Alpha  occ. eigenvalues --   -1.14064  -1.13254  -1.13243  -1.13213  -1.13036
 Alpha  occ. eigenvalues --   -1.13006  -1.12961  -1.12931  -1.12876  -1.12863
 Alpha  occ. eigenvalues --   -0.17711  -0.14379  -0.11056  -0.10628
 Alpha virt. eigenvalues --   -0.07907  -0.05725  -0.04444  -0.03270  -0.02975
 Alpha virt. eigenvalues --   -0.02501  -0.02053  -0.01826  -0.01355  -0.00431
 Alpha virt. eigenvalues --   -0.00242   0.00133   0.00215   0.00421   0.00563

  Beta  occ. eigenvalues --  -38.45115 -38.44927 -38.44885 -38.44631 -38.43771
  Beta  occ. eigenvalues --  -38.43539 -38.43329  -2.20863  -2.20742  -2.20660
  Beta  occ. eigenvalues --   -2.20412  -2.19575  -2.19343  -2.19200  -1.14551
  Beta  occ. eigenvalues --   -1.14545  -1.14529  -1.14461  -1.14408  -1.14384
  Beta  occ. eigenvalues --   -1.14343  -1.14319  -1.14301  -1.14088  -1.14069
  Beta  occ. eigenvalues --   -1.14056  -1.13252  -1.13243  -1.13213  -1.13046
  Beta  occ. eigenvalues --   -1.13004  -1.12945  -1.12942  -1.12847  -1.12813
  Beta  occ. eigenvalues --   -0.17097  -0.14059  -0.10759
  Beta virt. eigenvalues --   -0.07671  -0.06977  -0.05531  -0.04010  -0.03100
  Beta virt. eigenvalues --   -0.02848  -0.01752  -0.01655  -0.01513  -0.00902
  Beta virt. eigenvalues --   -0.00283  -0.00183   0.00167   0.00342   0.00571

 Mulliken charges and spin densities:
               1          2
     1  Na   0.468798  -0.024137
     2  Na   0.134844   0.217811
     3  Na  -0.864628   0.260728
     4  Na   0.478525   0.099414
     5  Na   0.220266   0.120128
     6  Na  -0.715539  -0.048522
     7  Na   0.277734   0.374578
 Sum of Mulliken charges =  -0.00000   1.00000

 Dipole moment (field-independent basis, Debye):
    X=             -0.6822    Y=             -0.0930    Z=              0.2754  Tot=              0.7415
 Quadrupole moment (field-independent basis, Debye-Ang):
   XX=            -46.1654   YY=            -79.8627   ZZ=            -69.6935
   XY=             -1.4830   XZ=             -3.9515   YZ=              2.3849

 Normal termination of Gaussian 16 at Fri Dec  8 18:31:51 2023.
