 Gaussian 16, Revision B.01,
 Gaussian 16:  ES64L-G16RevB.01 20-Dec-2017

 -------------------------
 #P B3LYP/6-311+g(d) force
 -------------------------

 -----
 DPGEN
 -----
 Symbolic Z-matrix:
 Charge =  0 Multiplicity = 2

                         Standard orientation:
 ---------------------------------------------------------------------
 Center     Atomic      Atomic             Coordinates (Angstroms)
 Number     Number       Type             X           Y           Z
 ---------------------------------------------------------------------
      1         11           0       -0.598382    1.448111   -0.058582
      2         11           0        2.657601    3.366766    0.508674
      3         11           0        3.325191    0.462199   -0.424104
      4         11           0        3.504976   -2.605326   -0.266671
      5         11           0        0.428762   -2.147136    0.058797
      6         11           0       -3.701868   -1.312180    1.020837
      7         11           0       -5.616280    0.787567   -0.838952
 ---------------------------------------------------------------------

 SCF Done:  E(UB3LYP) =  -1136.11808054     A.U. after   20 cycles

 The electronic state is 2-A.
 Alpha  occ. eigenvalues --  -38.45139 -38.44877 -38.44612 -38.43942 -38.43845
 Alpha  occ. eigenvalues --  -38.43535 -38.43336  -2.20897  -2.20624  -2.20403
 Alpha  occ. eigenvalues --   -2.19777  -2.19742  -2.19347  -2.19218  -1.14597
 Alpha  occ. eigenvalues --   -1.14582  -1.14466  -1.14316  -1.14293  -1.14273
 Alpha  occ. eigenvalues --   -1.14047  -1.14045  -1.14010  -1.13459  -1.13452
 Alpha  occ. eigenvalues --   -1.13435  -1.13422  -1.13412  -1.13391  -1.13025
 Alpha  occ. eigenvalues --   -1.13003  -1.12966  -1.12879  -1.12851  -1.12846
 Alpha  occ. eigenvalues --   -0.16607  -0.14041  -0.12300  -0.11006
 Alpha virt. eigenvalues --   -0.06421  -0.05221  -0.04689  -0.03814  -0.03207
 Alpha virt. eigenvalues --   -0.02337  -0.01899  -0.01469  -0.01014  -0.00836
 Alpha virt. eigenvalues --   -0.00346  -0.00093   0.00144   0.00322   0.00646

  Beta  occ. eigenvalues --  -38.45097 -38.44889 -38.44527 -38.43909 -38.43812
  Beta  occ. eigenvalues --  -38.43531 -38.43315  -2.20819  -2.20653  -2.20244
  Beta  occ. eigenvalues --   -2.19716  -2.19683  -2.19341  -2.19180  -1.14545
  Beta  occ. eigenvalues --   -1.14521  -1.14414  -1.14341  -1.14312  -1.14256
  Beta  occ. eigenvalues --   -1.13938  -1.13934  -1.13910  -1.13420  -1.13413
  Beta  occ. eigenvalues --   -1.13391  -1.13381  -1.13356  -1.13345  -1.13014
  Beta  occ. eigenvalues --   -1.12999  -1.12962  -1.12841  -1.12827  -1.12823
  Beta  occ. eigenvalues --   -0.15994  -0.13330  -0.12231
  Beta virt. eigenvalues --   -0.07548  -0.06091  -0.04874  -0.04265  -0.03602
  Beta virt. eigenvalues --   -0.02841  -0.02108  -0.01739  -0.01190  -0.00920
  Beta virt. eigenvalues --   -0.00438  -0.00096   0.00090   0.00369   0.00455

 Mulliken charges and spin densities:
               1          2
     1  Na  -0.709366   0.012103
     2  Na   0.831689   0.088903
     3  Na  -0.978101   0.288246
     4  Na   1.337078   0.146191
     5  Na  -0.708362   0.081787
     6  Na   0.009400  -0.038316
     7  Na   0.217661   0.421086
 Sum of Mulliken charges =  -0.00000   1.00000

 Dipole moment (field-independent basis, Debye):
    X=             -0.5495    Y=              0.1252    Z=              0.1513  Tot=              0.5835
 Quadrupole moment (field-independent basis, Debye-Ang):
   XX=            -66.3732   YY=            -62.7599   ZZ=            -70.2595
   XY=             -0.8746   XZ=              1.1948   YZ=             -2.3652

 Normal termination of Gaussian 16 at Wed Nov 29 01:07:06 2023.
