 Gaussian 16, Revision B.01,
 Gaussian 16:  ES64L-G16RevB.01 20-Dec-2017

 -------------------------
 #P B3LYP/6-311+g(d) force
 -------------------------

 -----
 DPGEN
 -----
 Symbolic Z-matrix:
 Charge =  0 Multiplicity = 2

                         Standard orientation:
 ---------------------------------------------------------------------
 Center     Atomic      Atomic             Coordinates (Angstroms)
 Number     Number       Type             X           Y           Z
 ---------------------------------------------------------------------
      1         11           0       -0.064074   -0.955347   -1.089619
      2         11           0        1.552626   -1.039739    1.646006
      3         11           0       -3.008663   -1.698431   -0.240420
      4         11           0       -1.236599    0.816835    1.715363
      5         11           0       -2.245706    1.515472   -1.073749
      6         11           0        1.322154    1.761200    0.048658
      7         11           0        3.680262   -0.399990   -1.006241
 ---------------------------------------------------------------------

 SCF Done:  E(UB3LYP) =  -1136.12321240     A.U. after   26 cycles

 The electronic state is 2-A.
 Alpha  occ. eigenvalues --  -38.44534 -38.44216 -38.44139 -38.43496 -38.43282
 Alpha  occ. eigenvalues --  -38.42902 -38.42815  -2.20364  -2.20163  -2.20067
 Alpha  occ. eigenvalues --   -2.19490  -2.19142  -2.18896  -2.18794  -1.14032
 Alpha  occ. eigenvalues --   -1.14024  -1.13989  -1.13881  -1.13795  -1.13766
 Alpha  occ. eigenvalues --   -1.13757  -1.13753  -1.13642  -1.13211  -1.13180
 Alpha  occ. eigenvalues --   -1.13109  -1.12799  -1.12796  -1.12784  -1.12611
 Alpha  occ. eigenvalues --   -1.12566  -1.12521  -1.12492  -1.12450  -1.12369
 Alpha  occ. eigenvalues --   -0.19352  -0.14296  -0.11535  -0.10939
 Alpha virt. eigenvalues --   -0.06480  -0.05052  -0.04493  -0.03027  -0.02559
 Alpha virt. eigenvalues --   -0.02236  -0.02167  -0.00906  -0.00802   0.00062
 Alpha virt. eigenvalues --    0.00181   0.00390   0.00500   0.00723   0.00794

  Beta  occ. eigenvalues --  -38.44513 -38.44148 -38.44100 -38.43477 -38.43282
  Beta  occ. eigenvalues --  -38.42871 -38.42796  -2.20324  -2.20041  -2.19993
  Beta  occ. eigenvalues --   -2.19463  -2.19143  -2.18843  -2.18762  -1.14000
  Beta  occ. eigenvalues --   -1.13992  -1.13964  -1.13799  -1.13723  -1.13712
  Beta  occ. eigenvalues --   -1.13696  -1.13651  -1.13590  -1.13177  -1.13132
  Beta  occ. eigenvalues --   -1.13098  -1.12802  -1.12792  -1.12776  -1.12582
  Beta  occ. eigenvalues --   -1.12505  -1.12483  -1.12461  -1.12401  -1.12345
  Beta  occ. eigenvalues --   -0.18566  -0.14076  -0.10755
  Beta virt. eigenvalues --   -0.07540  -0.06233  -0.04703  -0.04116  -0.02760
  Beta virt. eigenvalues --   -0.02270  -0.01714  -0.01591  -0.00759  -0.00394
  Beta virt. eigenvalues --    0.00166   0.00228   0.00454   0.00613   0.00785

 Mulliken charges and spin densities:
               1          2
     1  Na  -0.461532   0.529684
     2  Na  -0.235399  -0.021602
     3  Na  -0.105780  -0.059419
     4  Na   0.516522   0.306755
     5  Na   0.084531  -0.053989
     6  Na  -0.401868   0.225617
     7  Na   0.603525   0.072954
 Sum of Mulliken charges =  -0.00000   1.00000

 Dipole moment (field-independent basis, Debye):
    X=              0.5967    Y=              0.2515    Z=              0.1019  Tot=              0.6555
 Quadrupole moment (field-independent basis, Debye-Ang):
   XX=            -50.3913   YY=            -74.6655   ZZ=            -68.3852
   XY=             -1.8396   XZ=             -1.7985   YZ=             -5.7958

 Normal termination of Gaussian 16 at Tue Dec  5 10:44:30 2023.
