 Gaussian 16, Revision B.01,
 Gaussian 16:  ES64L-G16RevB.01 20-Dec-2017

 -------------------------
 #P B3LYP/6-311+g(d) force
 -------------------------

 -----
 DPGEN
 -----
 Symbolic Z-matrix:
 Charge =  0 Multiplicity = 2

                         Standard orientation:
 ---------------------------------------------------------------------
 Center     Atomic      Atomic             Coordinates (Angstroms)
 Number     Number       Type             X           Y           Z
 ---------------------------------------------------------------------
      1         11           0        2.194611   -3.113901   -0.283055
      2         11           0       -4.264976   -1.155836    0.599036
      3         11           0       -0.129450    3.352913   -0.664269
      4         11           0        4.372188   -0.811926    0.083385
      5         11           0       -1.529640   -2.446417   -0.247107
      6         11           0        2.861082    2.635547    0.650679
      7         11           0       -3.503816    1.539619   -0.138670
 ---------------------------------------------------------------------

 SCF Done:  E(UB3LYP) =  -1136.10592997     A.U. after   26 cycles

 The electronic state is 2-A.
 Alpha  occ. eigenvalues --  -38.45504 -38.45324 -38.44795 -38.44448 -38.44389
 Alpha  occ. eigenvalues --  -38.43744 -38.43627  -2.21337  -2.21076  -2.20686
 Alpha  occ. eigenvalues --   -2.20223  -2.20206  -2.19529  -2.19443  -1.15072
 Alpha  occ. eigenvalues --   -1.14985  -1.14964  -1.14758  -1.14746  -1.14714
 Alpha  occ. eigenvalues --   -1.14360  -1.14335  -1.14312  -1.13906  -1.13903
 Alpha  occ. eigenvalues --   -1.13881  -1.13870  -1.13856  -1.13813  -1.13188
 Alpha  occ. eigenvalues --   -1.13183  -1.13172  -1.13092  -1.13090  -1.13075
 Alpha  occ. eigenvalues --   -0.16191  -0.14274  -0.13095  -0.10547
 Alpha virt. eigenvalues --   -0.07923  -0.04849  -0.04475  -0.03892  -0.03307
 Alpha virt. eigenvalues --   -0.02580  -0.02267  -0.01719  -0.01098  -0.00616
 Alpha virt. eigenvalues --   -0.00549  -0.00079   0.00102   0.00452   0.00608

  Beta  occ. eigenvalues --  -38.45462 -38.45322 -38.44777 -38.44455 -38.44323
  Beta  occ. eigenvalues --  -38.43713 -38.43572  -2.21265  -2.21076  -2.20658
  Beta  occ. eigenvalues --   -2.20241  -2.20085  -2.19472  -2.19339  -1.15012
  Beta  occ. eigenvalues --   -1.14939  -1.14904  -1.14762  -1.14749  -1.14686
  Beta  occ. eigenvalues --   -1.14326  -1.14303  -1.14295  -1.13922  -1.13919
  Beta  occ. eigenvalues --   -1.13853  -1.13789  -1.13776  -1.13727  -1.13149
  Beta  occ. eigenvalues --   -1.13145  -1.13132  -1.13029  -1.13021  -1.13005
  Beta  occ. eigenvalues --   -0.15660  -0.13762  -0.12510
  Beta virt. eigenvalues --   -0.07981  -0.07231  -0.04395  -0.03976  -0.03627
  Beta virt. eigenvalues --   -0.02939  -0.02306  -0.02185  -0.01614  -0.00999
  Beta virt. eigenvalues --   -0.00383  -0.00235   0.00173   0.00252   0.00513

 Mulliken charges and spin densities:
               1          2
     1  Na   0.282890  -0.183832
     2  Na   1.209100   0.189239
     3  Na  -0.129347   0.113955
     4  Na  -0.352815   0.295885
     5  Na  -0.913060   0.311649
     6  Na  -0.057381   0.022788
     7  Na  -0.039386   0.250317
 Sum of Mulliken charges =  -0.00000   1.00000

 Dipole moment (field-independent basis, Debye):
    X=             -1.1996    Y=              0.2936    Z=              0.2590  Tot=              1.2619
 Quadrupole moment (field-independent basis, Debye-Ang):
   XX=            -60.5471   YY=            -68.1735   ZZ=            -72.0190
   XY=              3.1657   XZ=              0.8031   YZ=             -0.2682

 Normal termination of Gaussian 16 at Mon Dec  4 02:00:11 2023.
