 Gaussian 16, Revision B.01,
 Gaussian 16:  ES64L-G16RevB.01 20-Dec-2017

 -------------------------
 #P B3LYP/6-311+g(d) force
 -------------------------

 -----
 DPGEN
 -----
 Symbolic Z-matrix:
 Charge =  0 Multiplicity = 2

                         Standard orientation:
 ---------------------------------------------------------------------
 Center     Atomic      Atomic             Coordinates (Angstroms)
 Number     Number       Type             X           Y           Z
 ---------------------------------------------------------------------
      1         11           0       -0.062750   -0.080012   -1.933339
      2         11           0       -2.102870   -2.243108   -0.328364
      3         11           0        2.747838    0.913755   -0.397166
      4         11           0        0.186206    2.808881    0.251389
      5         11           0       -2.711206    1.239060    0.150387
      6         11           0        0.015441   -0.360331    1.940345
      7         11           0        1.927342   -2.278245    0.316748
 ---------------------------------------------------------------------

 SCF Done:  E(UB3LYP) =  -1136.13944105     A.U. after   19 cycles

 The electronic state is 2-A.
 Alpha  occ. eigenvalues --  -38.43719 -38.43684 -38.43668 -38.43667 -38.43605
 Alpha  occ. eigenvalues --  -38.43506 -38.43062  -2.19596  -2.19590  -2.19547
 Alpha  occ. eigenvalues --   -2.19535  -2.19464  -2.19390  -2.18945  -1.13309
 Alpha  occ. eigenvalues --   -1.13283  -1.13267  -1.13248  -1.13235  -1.13229
 Alpha  occ. eigenvalues --   -1.13204  -1.13199  -1.13196  -1.13191  -1.13178
 Alpha  occ. eigenvalues --   -1.13153  -1.13126  -1.13117  -1.13091  -1.13063
 Alpha  occ. eigenvalues --   -1.13052  -1.13010  -1.12613  -1.12601  -1.12590
 Alpha  occ. eigenvalues --   -0.18804  -0.12972  -0.12515  -0.11163
 Alpha virt. eigenvalues --   -0.05364  -0.05093  -0.04578  -0.03322  -0.03129
 Alpha virt. eigenvalues --   -0.02837  -0.01277  -0.01109  -0.00245  -0.00088
 Alpha virt. eigenvalues --   -0.00003   0.00378   0.00843   0.00900   0.00933

  Beta  occ. eigenvalues --  -38.43712 -38.43681 -38.43597 -38.43587 -38.43585
  Beta  occ. eigenvalues --  -38.43497 -38.43057  -2.19536  -2.19531  -2.19454
  Beta  occ. eigenvalues --   -2.19444  -2.19440  -2.19377  -2.18939  -1.13244
  Beta  occ. eigenvalues --   -1.13229  -1.13214  -1.13206  -1.13184  -1.13180
  Beta  occ. eigenvalues --   -1.13171  -1.13151  -1.13136  -1.13126  -1.13112
  Beta  occ. eigenvalues --   -1.13109  -1.13099  -1.13080  -1.13054  -1.13049
  Beta  occ. eigenvalues --   -1.13018  -1.12998  -1.12610  -1.12597  -1.12566
  Beta  occ. eigenvalues --   -0.18056  -0.12719  -0.12249
  Beta virt. eigenvalues --   -0.07250  -0.05369  -0.05013  -0.04534  -0.02527
  Beta virt. eigenvalues --   -0.02336  -0.01802  -0.01183  -0.01025  -0.00276
  Beta virt. eigenvalues --   -0.00120   0.00101   0.00399   0.00877   0.00925

 Mulliken charges and spin densities:
               1          2
     1  Na  -0.286244   0.604061
     2  Na   0.110363  -0.101939
     3  Na   0.205777   0.038802
     4  Na   0.018268  -0.021385
     5  Na   0.068610  -0.062797
     6  Na  -0.317844   0.618582
     7  Na   0.201071  -0.075324
 Sum of Mulliken charges =  -0.00000   1.00000

 Dipole moment (field-independent basis, Debye):
    X=             -0.1586    Y=             -0.2936    Z=             -0.0258  Tot=              0.3347
 Quadrupole moment (field-independent basis, Debye-Ang):
   XX=            -59.6039   YY=            -63.2404   ZZ=            -72.0878
   XY=              0.0614   XZ=             -0.4284   YZ=              0.6206

 Normal termination of Gaussian 16 at Tue Dec  5 09:52:26 2023.
