 Gaussian 16, Revision B.01,
 Gaussian 16:  ES64L-G16RevB.01 20-Dec-2017

 -------------------------
 #P B3LYP/6-311+g(d) force
 -------------------------

 -----
 DPGEN
 -----
 Symbolic Z-matrix:
 Charge =  0 Multiplicity = 2

                         Standard orientation:
 ---------------------------------------------------------------------
 Center     Atomic      Atomic             Coordinates (Angstroms)
 Number     Number       Type             X           Y           Z
 ---------------------------------------------------------------------
      1         11           0        2.357020   -2.184999    0.228448
      2         11           0       -1.277601   -2.682781   -0.251222
      3         11           0       -0.220922    0.029233    2.120295
      4         11           0       -0.228599   -0.211625   -1.764847
      5         11           0        2.875330    1.085871   -0.237962
      6         11           0       -3.904948    0.703004    0.016811
      7         11           0        0.399719    3.261298   -0.111522
 ---------------------------------------------------------------------

 SCF Done:  E(UB3LYP) =  -1136.12513240     A.U. after   21 cycles

 The electronic state is 2-A.
 Alpha  occ. eigenvalues --  -38.45291 -38.44086 -38.44024 -38.43843 -38.43753
 Alpha  occ. eigenvalues --  -38.43738 -38.43729  -2.20992  -2.19920  -2.19844
 Alpha  occ. eigenvalues --   -2.19640  -2.19631  -2.19584  -2.19546  -1.14673
 Alpha  occ. eigenvalues --   -1.14661  -1.14625  -1.13672  -1.13581  -1.13520
 Alpha  occ. eigenvalues --   -1.13509  -1.13475  -1.13457  -1.13329  -1.13317
 Alpha  occ. eigenvalues --   -1.13301  -1.13291  -1.13278  -1.13268  -1.13252
 Alpha  occ. eigenvalues --   -1.13240  -1.13215  -1.13205  -1.13183  -1.13176
 Alpha  occ. eigenvalues --   -0.17826  -0.12757  -0.12090  -0.10568
 Alpha virt. eigenvalues --   -0.06705  -0.05192  -0.04723  -0.03130  -0.02862
 Alpha virt. eigenvalues --   -0.02604  -0.02165  -0.01264  -0.00729  -0.00601
 Alpha virt. eigenvalues --   -0.00109   0.00282   0.00566   0.00636   0.00781

  Beta  occ. eigenvalues --  -38.45301 -38.44074 -38.43929 -38.43843 -38.43732
  Beta  occ. eigenvalues --  -38.43723 -38.43685  -2.21012  -2.19901  -2.19668
  Beta  occ. eigenvalues --   -2.19633  -2.19575  -2.19538  -2.19516  -1.14682
  Beta  occ. eigenvalues --   -1.14673  -1.14639  -1.13645  -1.13547  -1.13513
  Beta  occ. eigenvalues --   -1.13391  -1.13354  -1.13330  -1.13329  -1.13291
  Beta  occ. eigenvalues --   -1.13284  -1.13275  -1.13233  -1.13225  -1.13213
  Beta  occ. eigenvalues --   -1.13183  -1.13180  -1.13178  -1.13172  -1.13155
  Beta  occ. eigenvalues --   -0.17085  -0.12557  -0.11943
  Beta virt. eigenvalues --   -0.06783  -0.06570  -0.05030  -0.04729  -0.02439
  Beta virt. eigenvalues --   -0.02147  -0.02094  -0.01544  -0.01160  -0.00801
  Beta virt. eigenvalues --   -0.00626   0.00047   0.00310   0.00663   0.00703

 Mulliken charges and spin densities:
               1          2
     1  Na   0.094380   0.052104
     2  Na   0.261972  -0.047672
     3  Na  -0.401696   0.786671
     4  Na   0.071913   0.456954
     5  Na   0.076830   0.026718
     6  Na  -0.079110  -0.155987
     7  Na  -0.024288  -0.118788
 Sum of Mulliken charges =  -0.00000   1.00000

 Dipole moment (field-independent basis, Debye):
    X=             -0.6508    Y=              0.0078    Z=              0.0407  Tot=              0.6521
 Quadrupole moment (field-independent basis, Debye-Ang):
   XX=            -55.3294   YY=            -62.2650   ZZ=            -75.9336
   XY=             -1.9264   XZ=             -0.0074   YZ=             -0.6040

 Normal termination of Gaussian 16 at Thu Dec  7 15:28:26 2023.
