 Gaussian 16, Revision B.01,
 Gaussian 16:  ES64L-G16RevB.01 20-Dec-2017

 -------------------------
 #P B3LYP/6-311+g(d) force
 -------------------------

 -----
 DPGEN
 -----
 Symbolic Z-matrix:
 Charge =  0 Multiplicity = 2

                         Standard orientation:
 ---------------------------------------------------------------------
 Center     Atomic      Atomic             Coordinates (Angstroms)
 Number     Number       Type             X           Y           Z
 ---------------------------------------------------------------------
      1         11           0        2.385784   -0.651194    1.839010
      2         11           0        5.544307   -0.299215   -0.062928
      3         11           0       -0.538795    2.463500    0.178456
      4         11           0        1.839227    0.143648   -1.766392
      5         11           0       -3.824597    1.433570    0.304566
      6         11           0       -4.420150   -1.954400    0.004223
      7         11           0       -0.985776   -1.135908   -0.496935
 ---------------------------------------------------------------------

 SCF Done:  E(UB3LYP) =  -1136.11394954     A.U. after   30 cycles

 The electronic state is 2-A.
 Alpha  occ. eigenvalues --  -38.46272 -38.45156 -38.44052 -38.43757 -38.43709
 Alpha  occ. eigenvalues --  -38.43473 -38.42982  -2.22006  -2.20972  -2.19872
 Alpha  occ. eigenvalues --   -2.19583  -2.19526  -2.19298  -2.18785  -1.15704
 Alpha  occ. eigenvalues --   -1.15656  -1.15632  -1.14669  -1.14621  -1.14581
 Alpha  occ. eigenvalues --   -1.13550  -1.13538  -1.13483  -1.13290  -1.13242
 Alpha  occ. eigenvalues --   -1.13194  -1.13190  -1.13178  -1.13139  -1.12975
 Alpha  occ. eigenvalues --   -1.12968  -1.12903  -1.12449  -1.12447  -1.12421
 Alpha  occ. eigenvalues --   -0.17014  -0.14047  -0.11285  -0.10895
 Alpha virt. eigenvalues --   -0.07403  -0.05147  -0.04902  -0.03449  -0.03206
 Alpha virt. eigenvalues --   -0.02143  -0.01844  -0.01659  -0.01307  -0.01209
 Alpha virt. eigenvalues --   -0.00524   0.00245   0.00301   0.00335   0.00531

  Beta  occ. eigenvalues --  -38.46286 -38.45138 -38.44005 -38.43721 -38.43653
  Beta  occ. eigenvalues --  -38.43429 -38.42968  -2.22032  -2.20940  -2.19788
  Beta  occ. eigenvalues --   -2.19481  -2.19460  -2.19218  -2.18760  -1.15720
  Beta  occ. eigenvalues --   -1.15675  -1.15643  -1.14625  -1.14603  -1.14567
  Beta  occ. eigenvalues --   -1.13497  -1.13483  -1.13406  -1.13224  -1.13167
  Beta  occ. eigenvalues --   -1.13149  -1.13145  -1.13097  -1.13095  -1.12924
  Beta  occ. eigenvalues --   -1.12912  -1.12835  -1.12433  -1.12421  -1.12408
  Beta  occ. eigenvalues --   -0.16460  -0.13616  -0.10822
  Beta virt. eigenvalues --   -0.07428  -0.07352  -0.04752  -0.04410  -0.03293
  Beta virt. eigenvalues --   -0.02683  -0.02124  -0.01588  -0.01322  -0.01096
  Beta virt. eigenvalues --   -0.00890  -0.00291   0.00282   0.00396   0.00491

 Mulliken charges and spin densities:
               1          2
     1  Na   0.241745  -0.179194
     2  Na  -0.025993   0.231351
     3  Na  -0.256333   0.326928
     4  Na   1.130980  -0.259984
     5  Na   0.105280   0.094762
     6  Na   0.460215   0.122228
     7  Na  -1.655893   0.663909
 Sum of Mulliken charges =  -0.00000   1.00000

 Dipole moment (field-independent basis, Debye):
    X=              0.9200    Y=              0.2002    Z=             -0.0570  Tot=              0.9432
 Quadrupole moment (field-independent basis, Debye-Ang):
   XX=            -73.8455   YY=            -71.9031   ZZ=            -62.6447
   XY=              1.4046   XZ=             -5.2780   YZ=             -1.4486

 Normal termination of Gaussian 16 at Fri Dec  8 18:31:05 2023.
