 Gaussian 16, Revision B.01,
 Gaussian 16:  ES64L-G16RevB.01 20-Dec-2017

 -------------------------
 #P B3LYP/6-311+g(d) force
 -------------------------

 -----
 DPGEN
 -----
 Symbolic Z-matrix:
 Charge =  0 Multiplicity = 2

                         Standard orientation:
 ---------------------------------------------------------------------
 Center     Atomic      Atomic             Coordinates (Angstroms)
 Number     Number       Type             X           Y           Z
 ---------------------------------------------------------------------
      1         11           0        1.606432   -2.717478   -0.079203
      2         11           0       -2.633769   -1.888177   -0.007034
      3         11           0       -2.605394    1.657218   -0.269069
      4         11           0       -0.308327   -0.346638   -1.254552
      5         11           0       -0.209538    0.104217    1.882442
      6         11           0        3.233409    0.301557   -0.144494
      7         11           0        0.917187    2.889301   -0.128090
 ---------------------------------------------------------------------

 SCF Done:  E(UB3LYP) =  -1136.13335771     A.U. after   21 cycles

 The electronic state is 2-A.
 Alpha  occ. eigenvalues --  -38.44292 -38.44221 -38.44071 -38.43780 -38.43370
 Alpha  occ. eigenvalues --  -38.42925 -38.42898  -2.20140  -2.20035  -2.19929
 Alpha  occ. eigenvalues --   -2.19605  -2.19197  -2.18954  -2.18857  -1.13855
 Alpha  occ. eigenvalues --   -1.13788  -1.13765  -1.13708  -1.13691  -1.13685
 Alpha  occ. eigenvalues --   -1.13626  -1.13587  -1.13547  -1.13296  -1.13261
 Alpha  occ. eigenvalues --   -1.13237  -1.12871  -1.12865  -1.12839  -1.12709
 Alpha  occ. eigenvalues --   -1.12586  -1.12579  -1.12519  -1.12464  -1.12456
 Alpha  occ. eigenvalues --   -0.18648  -0.13330  -0.12399  -0.10014
 Alpha virt. eigenvalues --   -0.05885  -0.05645  -0.04779  -0.02960  -0.02494
 Alpha virt. eigenvalues --   -0.01910  -0.01773  -0.01417  -0.00743  -0.00549
 Alpha virt. eigenvalues --    0.00029   0.00316   0.00745   0.00773   0.00844

  Beta  occ. eigenvalues --  -38.44286 -38.44218 -38.44059 -38.43778 -38.43367
  Beta  occ. eigenvalues --  -38.42856 -38.42825  -2.20132  -2.20032  -2.19910
  Beta  occ. eigenvalues --   -2.19603  -2.19194  -2.18879  -2.18673  -1.13847
  Beta  occ. eigenvalues --   -1.13770  -1.13752  -1.13696  -1.13688  -1.13682
  Beta  occ. eigenvalues --   -1.13611  -1.13551  -1.13536  -1.13292  -1.13249
  Beta  occ. eigenvalues --   -1.13233  -1.12869  -1.12841  -1.12839  -1.12628
  Beta  occ. eigenvalues --   -1.12533  -1.12522  -1.12404  -1.12336  -1.12323
  Beta  occ. eigenvalues --   -0.17950  -0.13084  -0.12177
  Beta virt. eigenvalues --   -0.06159  -0.05851  -0.05579  -0.04756  -0.02223
  Beta virt. eigenvalues --   -0.01790  -0.01689  -0.01366  -0.00915  -0.00759
  Beta virt. eigenvalues --   -0.00579   0.00192   0.00379   0.00783   0.00805

 Mulliken charges and spin densities:
               1          2
     1  Na   0.284103  -0.008242
     2  Na   0.440191   0.015613
     3  Na   0.360722   0.055934
     4  Na  -0.836102   0.207739
     5  Na  -0.371112   0.730331
     6  Na   0.052207  -0.001501
     7  Na   0.069991   0.000128
 Sum of Mulliken charges =  -0.00000   1.00000

 Dipole moment (field-independent basis, Debye):
    X=             -0.1758    Y=             -0.1870    Z=              0.1818  Tot=              0.3145
 Quadrupole moment (field-independent basis, Debye-Ang):
   XX=            -52.8086   YY=            -59.6551   ZZ=            -78.2645
   XY=              0.4648   XZ=             -0.1945   YZ=             -0.9844

 Normal termination of Gaussian 16 at Thu Dec  7 14:42:10 2023.
