 Gaussian 16, Revision B.01,
 Gaussian 16:  ES64L-G16RevB.01 20-Dec-2017

 -------------------------
 #P B3LYP/6-311+g(d) force
 -------------------------

 -----
 DPGEN
 -----
 Symbolic Z-matrix:
 Charge =  0 Multiplicity = 2

                         Standard orientation:
 ---------------------------------------------------------------------
 Center     Atomic      Atomic             Coordinates (Angstroms)
 Number     Number       Type             X           Y           Z
 ---------------------------------------------------------------------
      1         11           0       -0.409883   -0.561467   -1.558698
      2         11           0        0.373640   -0.205514    2.065070
      3         11           0        0.479942    2.959482   -0.047281
      4         11           0       -2.772284   -1.893336    0.165284
      5         11           0        2.962819    0.965083   -0.306366
      6         11           0        2.211443   -2.625921   -0.183270
      7         11           0       -2.845678    1.361673   -0.134740
 ---------------------------------------------------------------------

 SCF Done:  E(UB3LYP) =  -1136.13203793     A.U. after   20 cycles

 The electronic state is 2-A.
 Alpha  occ. eigenvalues --  -38.44488 -38.44303 -38.44296 -38.43897 -38.43513
 Alpha  occ. eigenvalues --  -38.43506 -38.42992  -2.20320  -2.20135  -2.20130
 Alpha  occ. eigenvalues --   -2.19682  -2.19417  -2.19364  -2.18827  -1.14010
 Alpha  occ. eigenvalues --   -1.13988  -1.13960  -1.13816  -1.13809  -1.13805
 Alpha  occ. eigenvalues --   -1.13787  -1.13767  -1.13757  -1.13351  -1.13339
 Alpha  occ. eigenvalues --   -1.13329  -1.13112  -1.13067  -1.13034  -1.13026
 Alpha  occ. eigenvalues --   -1.12988  -1.12981  -1.12504  -1.12483  -1.12477
 Alpha  occ. eigenvalues --   -0.18131  -0.13480  -0.12058  -0.10323
 Alpha virt. eigenvalues --   -0.06103  -0.05745  -0.04579  -0.03379  -0.02585
 Alpha virt. eigenvalues --   -0.02370  -0.01807  -0.01426  -0.00819  -0.00422
 Alpha virt. eigenvalues --   -0.00024   0.00322   0.00688   0.00720   0.00850

  Beta  occ. eigenvalues --  -38.44485 -38.44297 -38.44292 -38.43895 -38.43456
  Beta  occ. eigenvalues --  -38.43413 -38.42990  -2.20318  -2.20126  -2.20125
  Beta  occ. eigenvalues --   -2.19680  -2.19327  -2.19180  -2.18825  -1.14007
  Beta  occ. eigenvalues --   -1.13986  -1.13943  -1.13811  -1.13799  -1.13778
  Beta  occ. eigenvalues --   -1.13772  -1.13763  -1.13757  -1.13343  -1.13332
  Beta  occ. eigenvalues --   -1.13328  -1.13043  -1.13003  -1.12966  -1.12905
  Beta  occ. eigenvalues --   -1.12858  -1.12851  -1.12505  -1.12479  -1.12462
  Beta  occ. eigenvalues --   -0.17447  -0.13286  -0.11869
  Beta virt. eigenvalues --   -0.06465  -0.06084  -0.05634  -0.04547  -0.02623
  Beta virt. eigenvalues --   -0.01910  -0.01699  -0.01460  -0.01231  -0.00866
  Beta virt. eigenvalues --   -0.00441   0.00154   0.00374   0.00724   0.00785

 Mulliken charges and spin densities:
               1          2
     1  Na  -0.052423   0.262722
     2  Na  -0.362948   0.694219
     3  Na  -0.159435  -0.021098
     4  Na   0.275999  -0.010139
     5  Na   0.134895   0.049507
     6  Na   0.102511  -0.031249
     7  Na   0.061400   0.056038
 Sum of Mulliken charges =  -0.00000   1.00000

 Dipole moment (field-independent basis, Debye):
    X=             -0.3926    Y=             -0.4609    Z=              0.0208  Tot=              0.6058
 Quadrupole moment (field-independent basis, Debye-Ang):
   XX=            -53.7905   YY=            -62.9987   ZZ=            -76.7039
   XY=             -0.0886   XZ=             -1.4828   YZ=             -0.7287

 Normal termination of Gaussian 16 at Thu Dec  7 10:06:55 2023.
