 Gaussian 16, Revision B.01,
 Gaussian 16:  ES64L-G16RevB.01 20-Dec-2017

 -------------------------
 #P B3LYP/6-311+g(d) force
 -------------------------

 -----
 DPGEN
 -----
 Symbolic Z-matrix:
 Charge =  0 Multiplicity = 2

                         Standard orientation:
 ---------------------------------------------------------------------
 Center     Atomic      Atomic             Coordinates (Angstroms)
 Number     Number       Type             X           Y           Z
 ---------------------------------------------------------------------
      1         11           0        1.468511   -0.682729   -1.750429
      2         11           0        3.747346   -1.675814    1.682158
      3         11           0       -4.270322   -1.387152    0.285498
      4         11           0       -1.106032   -2.042596   -0.934842
      5         11           0        3.312965    1.314859    0.099786
      6         11           0       -0.213036    2.895012   -0.756466
      7         11           0       -2.939432    1.578418    1.374295
 ---------------------------------------------------------------------

 SCF Done:  E(UB3LYP) =  -1136.11240828     A.U. after   21 cycles

 The electronic state is 2-A.
 Alpha  occ. eigenvalues --  -38.45215 -38.44894 -38.44441 -38.44408 -38.44356
 Alpha  occ. eigenvalues --  -38.43699 -38.43290  -2.21005  -2.20709  -2.20286
 Alpha  occ. eigenvalues --   -2.20207  -2.20147  -2.19538  -2.19046  -1.14656
 Alpha  occ. eigenvalues --   -1.14646  -1.14616  -1.14409  -1.14380  -1.14319
 Alpha  occ. eigenvalues --   -1.14020  -1.13912  -1.13899  -1.13893  -1.13876
 Alpha  occ. eigenvalues --   -1.13849  -1.13814  -1.13795  -1.13777  -1.13220
 Alpha  occ. eigenvalues --   -1.13188  -1.13151  -1.12732  -1.12719  -1.12676
 Alpha  occ. eigenvalues --   -0.16722  -0.14122  -0.11752  -0.11465
 Alpha virt. eigenvalues --   -0.06718  -0.05513  -0.04354  -0.03568  -0.03195
 Alpha virt. eigenvalues --   -0.02441  -0.02228  -0.01264  -0.00898  -0.00694
 Alpha virt. eigenvalues --   -0.00362  -0.00007   0.00015   0.00323   0.00611

  Beta  occ. eigenvalues --  -38.45127 -38.44877 -38.44429 -38.44348 -38.44346
  Beta  occ. eigenvalues --  -38.43656 -38.43291  -2.20843  -2.20682  -2.20184
  Beta  occ. eigenvalues --   -2.20178  -2.20133  -2.19463  -2.19048  -1.14545
  Beta  occ. eigenvalues --   -1.14529  -1.14514  -1.14394  -1.14365  -1.14265
  Beta  occ. eigenvalues --   -1.13926  -1.13877  -1.13862  -1.13836  -1.13832
  Beta  occ. eigenvalues --   -1.13818  -1.13805  -1.13792  -1.13759  -1.13159
  Beta  occ. eigenvalues --   -1.13141  -1.13089  -1.12731  -1.12723  -1.12676
  Beta  occ. eigenvalues --   -0.15968  -0.13615  -0.11311
  Beta virt. eigenvalues --   -0.08026  -0.06493  -0.05212  -0.04007  -0.03113
  Beta virt. eigenvalues --   -0.02948  -0.02101  -0.01864  -0.01068  -0.00673
  Beta virt. eigenvalues --   -0.00445  -0.00144   0.00012   0.00205   0.00406

 Mulliken charges and spin densities:
               1          2
     1  Na   0.288296   0.031103
     2  Na   0.062843   0.441555
     3  Na   0.330596   0.154366
     4  Na  -0.569908   0.084838
     5  Na   0.281182   0.210377
     6  Na  -0.169381   0.008877
     7  Na  -0.223628   0.068885
 Sum of Mulliken charges =  -0.00000   1.00000

 Dipole moment (field-independent basis, Debye):
    X=              0.5964    Y=             -0.5683    Z=              0.7863  Tot=              1.1389
 Quadrupole moment (field-independent basis, Debye-Ang):
   XX=            -57.6293   YY=            -71.9344   ZZ=            -67.7479
   XY=              1.9064   XZ=             -0.9104   YZ=             -2.8406

 Normal termination of Gaussian 16 at Mon Dec  4 01:37:10 2023.
