 Gaussian 16, Revision B.01,
 Gaussian 16:  ES64L-G16RevB.01 20-Dec-2017

 -------------------------
 #P B3LYP/6-311+g(d) force
 -------------------------

 -----
 DPGEN
 -----
 Symbolic Z-matrix:
 Charge =  0 Multiplicity = 2

                         Standard orientation:
 ---------------------------------------------------------------------
 Center     Atomic      Atomic             Coordinates (Angstroms)
 Number     Number       Type             X           Y           Z
 ---------------------------------------------------------------------
      1         11           0        0.229614    0.044638   -1.776347
      2         11           0       -3.363217    0.415085    0.108285
      3         11           0        0.198013   -0.134623    1.899841
      4         11           0        2.203063   -1.915339    0.040542
      5         11           0       -0.537503    2.800675   -0.060373
      6         11           0       -1.353493   -2.593155   -0.208736
      7         11           0        2.623523    1.382719   -0.003211
 ---------------------------------------------------------------------

 SCF Done:  E(UB3LYP) =  -1136.13876488     A.U. after   20 cycles

 The electronic state is 2-A.
 Alpha  occ. eigenvalues --  -38.44319 -38.43642 -38.43476 -38.43471 -38.43440
 Alpha  occ. eigenvalues --  -38.43261 -38.43248  -2.20092  -2.19543  -2.19378
 Alpha  occ. eigenvalues --   -2.19374  -2.19306  -2.19223  -2.19114  -1.13768
 Alpha  occ. eigenvalues --   -1.13744  -1.13738  -1.13250  -1.13213  -1.13189
 Alpha  occ. eigenvalues --   -1.13106  -1.13059  -1.13033  -1.13013  -1.12997
 Alpha  occ. eigenvalues --   -1.12991  -1.12972  -1.12962  -1.12928  -1.12902
 Alpha  occ. eigenvalues --   -1.12861  -1.12838  -1.12782  -1.12775  -1.12736
 Alpha  occ. eigenvalues --   -0.18858  -0.12981  -0.12511  -0.10765
 Alpha virt. eigenvalues --   -0.05776  -0.05096  -0.04623  -0.03112  -0.02900
 Alpha virt. eigenvalues --   -0.02524  -0.01560  -0.01076  -0.00389  -0.00262
 Alpha virt. eigenvalues --   -0.00008   0.00353   0.00805   0.00894   0.00910

  Beta  occ. eigenvalues --  -38.44321 -38.43633 -38.43467 -38.43466 -38.43354
  Beta  occ. eigenvalues --  -38.43257 -38.43170  -2.20098  -2.19533  -2.19366
  Beta  occ. eigenvalues --   -2.19300  -2.19218  -2.19109  -2.19079  -1.13761
  Beta  occ. eigenvalues --   -1.13752  -1.13743  -1.13242  -1.13187  -1.13166
  Beta  occ. eigenvalues --   -1.13076  -1.13013  -1.13003  -1.12981  -1.12958
  Beta  occ. eigenvalues --   -1.12936  -1.12927  -1.12880  -1.12869  -1.12830
  Beta  occ. eigenvalues --   -1.12786  -1.12761  -1.12740  -1.12732  -1.12714
  Beta  occ. eigenvalues --   -0.18099  -0.12767  -0.12247
  Beta virt. eigenvalues --   -0.06820  -0.05739  -0.05104  -0.04591  -0.02349
  Beta virt. eigenvalues --   -0.02091  -0.01530  -0.01414  -0.01011  -0.00429
  Beta virt. eigenvalues --   -0.00329   0.00127   0.00377   0.00842   0.00891

 Mulliken charges and spin densities:
               1          2
     1  Na  -0.208343   0.678837
     2  Na  -0.123974  -0.108023
     3  Na  -0.401303   0.775931
     4  Na   0.385098  -0.044554
     5  Na  -0.027957  -0.139806
     6  Na  -0.005673  -0.130473
     7  Na   0.382152  -0.031912
 Sum of Mulliken charges =  -0.00000   1.00000

 Dipole moment (field-independent basis, Debye):
    X=             -0.2154    Y=             -0.0123    Z=              0.0756  Tot=              0.2286
 Quadrupole moment (field-independent basis, Debye-Ang):
   XX=            -55.5743   YY=            -63.3044   ZZ=            -74.3726
   XY=             -0.1088   XZ=             -0.0959   YZ=              0.4576

 Normal termination of Gaussian 16 at Thu Dec  7 21:11:23 2023.
