 Gaussian 16, Revision B.01,
 Gaussian 16:  ES64L-G16RevB.01 20-Dec-2017

 -------------------------
 #P B3LYP/6-311+g(d) force
 -------------------------

 -----
 DPGEN
 -----
 Symbolic Z-matrix:
 Charge =  0 Multiplicity = 2

                         Standard orientation:
 ---------------------------------------------------------------------
 Center     Atomic      Atomic             Coordinates (Angstroms)
 Number     Number       Type             X           Y           Z
 ---------------------------------------------------------------------
      1         11           0       -1.635975   -2.493069   -1.241860
      2         11           0       -2.733443   -0.050367    1.546994
      3         11           0       -0.943758    2.693019   -1.432583
      4         11           0       -0.412525   -0.000122   -0.343909
      5         11           0        2.355253    0.097172   -2.017806
      6         11           0        2.149344   -1.726348    1.287275
      7         11           0        1.221103    1.479715    2.201888
 ---------------------------------------------------------------------

 SCF Done:  E(UB3LYP) =  -1136.11153147     A.U. after   27 cycles

 The electronic state is 2-A.
 Alpha  occ. eigenvalues --  -38.45071 -38.44696 -38.44652 -38.43722 -38.43650
 Alpha  occ. eigenvalues --  -38.43502 -38.41897  -2.20869  -2.20513  -2.20463
 Alpha  occ. eigenvalues --   -2.19531  -2.19466  -2.19324  -2.18101  -1.14558
 Alpha  occ. eigenvalues --   -1.14498  -1.14472  -1.14196  -1.14182  -1.14144
 Alpha  occ. eigenvalues --   -1.14122  -1.14106  -1.14055  -1.13217  -1.13209
 Alpha  occ. eigenvalues --   -1.13172  -1.13167  -1.13090  -1.13079  -1.13077
 Alpha  occ. eigenvalues --   -1.12956  -1.12923  -1.11849  -1.11741  -1.11727
 Alpha  occ. eigenvalues --   -0.18001  -0.12308  -0.12172  -0.11233
 Alpha virt. eigenvalues --   -0.05723  -0.04990  -0.04401  -0.03128  -0.02993
 Alpha virt. eigenvalues --   -0.02822  -0.01453  -0.01001  -0.00980   0.00177
 Alpha virt. eigenvalues --    0.00310   0.00357   0.00397   0.00718   0.00819

  Beta  occ. eigenvalues --  -38.45014 -38.44630 -38.44629 -38.43708 -38.43631
  Beta  occ. eigenvalues --  -38.43496 -38.41871  -2.20766  -2.20422  -2.20392
  Beta  occ. eigenvalues --   -2.19508  -2.19433  -2.19313  -2.18064  -1.14480
  Beta  occ. eigenvalues --   -1.14430  -1.14398  -1.14154  -1.14108  -1.14074
  Beta  occ. eigenvalues --   -1.14061  -1.14035  -1.14027  -1.13195  -1.13183
  Beta  occ. eigenvalues --   -1.13157  -1.13142  -1.13072  -1.13065  -1.13047
  Beta  occ. eigenvalues --   -1.12948  -1.12914  -1.11745  -1.11729  -1.11715
  Beta  occ. eigenvalues --   -0.17163  -0.12068  -0.11054
  Beta virt. eigenvalues --   -0.08306  -0.05206  -0.04682  -0.04157  -0.02764
  Beta virt. eigenvalues --   -0.02525  -0.02243  -0.01220  -0.00906  -0.00651
  Beta virt. eigenvalues --    0.00277   0.00418   0.00432   0.00467   0.00810

 Mulliken charges and spin densities:
               1          2
     1  Na   0.583467  -0.616469
     2  Na   0.052676   0.164805
     3  Na   0.434179   0.512114
     4  Na  -1.804607   0.467715
     5  Na   0.367569  -0.030324
     6  Na   0.121512  -0.199194
     7  Na   0.245204   0.701351
 Sum of Mulliken charges =  -0.00000   1.00000

 Dipole moment (field-independent basis, Debye):
    X=              0.4332    Y=              0.1867    Z=              0.3790  Tot=              0.6051
 Quadrupole moment (field-independent basis, Debye-Ang):
   XX=            -63.6151   YY=            -69.1470   ZZ=            -58.2101
   XY=             -0.5697   XZ=             -3.6041   YZ=              0.7683

 Normal termination of Gaussian 16 at Fri Dec  8 06:18:53 2023.
