 Gaussian 16, Revision B.01,
 Gaussian 16:  ES64L-G16RevB.01 20-Dec-2017

 -------------------------
 #P B3LYP/6-311+g(d) force
 -------------------------

 -----
 DPGEN
 -----
 Symbolic Z-matrix:
 Charge =  0 Multiplicity = 2

                         Standard orientation:
 ---------------------------------------------------------------------
 Center     Atomic      Atomic             Coordinates (Angstroms)
 Number     Number       Type             X           Y           Z
 ---------------------------------------------------------------------
      1         11           0       -0.620174   -3.081590   -0.972785
      2         11           0        1.972934    3.125007    0.621271
      3         11           0       -4.493952    1.076002   -0.370240
      4         11           0       -2.719762   -2.241402    1.022483
      5         11           0        3.810540    0.743875   -0.658415
      6         11           0       -1.192078    3.021198   -0.143681
      7         11           0        3.242492   -2.643089    0.501368
 ---------------------------------------------------------------------

 SCF Done:  E(UB3LYP) =  -1136.10582208     A.U. after   21 cycles

 The electronic state is 2-A.
 Alpha  occ. eigenvalues --  -38.44972 -38.44829 -38.44693 -38.44634 -38.44520
 Alpha  occ. eigenvalues --  -38.44328 -38.43687  -2.20742  -2.20583  -2.20498
 Alpha  occ. eigenvalues --   -2.20394  -2.20325  -2.20104  -2.19523  -1.14430
 Alpha  occ. eigenvalues --   -1.14415  -1.14381  -1.14277  -1.14266  -1.14254
 Alpha  occ. eigenvalues --   -1.14221  -1.14153  -1.14122  -1.14057  -1.14035
 Alpha  occ. eigenvalues --   -1.14021  -1.13972  -1.13962  -1.13934  -1.13758
 Alpha  occ. eigenvalues --   -1.13734  -1.13727  -1.13177  -1.13170  -1.13165
 Alpha  occ. eigenvalues --   -0.15504  -0.13865  -0.13179  -0.10700
 Alpha virt. eigenvalues --   -0.07288  -0.05257  -0.04355  -0.03443  -0.02944
 Alpha virt. eigenvalues --   -0.02746  -0.02487  -0.01890  -0.01292  -0.00598
 Alpha virt. eigenvalues --   -0.00406  -0.00344   0.00194   0.00409   0.00631

  Beta  occ. eigenvalues --  -38.44974 -38.44832 -38.44670 -38.44580 -38.44488
  Beta  occ. eigenvalues --  -38.44244 -38.43649  -2.20748  -2.20595  -2.20460
  Beta  occ. eigenvalues --   -2.20296  -2.20270  -2.19948  -2.19453  -1.14438
  Beta  occ. eigenvalues --   -1.14422  -1.14359  -1.14289  -1.14279  -1.14209
  Beta  occ. eigenvalues --   -1.14193  -1.14131  -1.14090  -1.13991  -1.13972
  Beta  occ. eigenvalues --   -1.13948  -1.13937  -1.13926  -1.13884  -1.13652
  Beta  occ. eigenvalues --   -1.13628  -1.13623  -1.13135  -1.13123  -1.13116
  Beta  occ. eigenvalues --   -0.15065  -0.13237  -0.12280
  Beta virt. eigenvalues --   -0.07587  -0.07409  -0.04958  -0.03883  -0.03283
  Beta virt. eigenvalues --   -0.02524  -0.02438  -0.02250  -0.01662  -0.01127
  Beta virt. eigenvalues --   -0.00339  -0.00200  -0.00125   0.00314   0.00389

 Mulliken charges and spin densities:
               1          2
     1  Na  -0.115130   0.101880
     2  Na  -0.022896   0.133122
     3  Na   0.174286   0.403253
     4  Na   0.009290   0.057416
     5  Na  -0.003990   0.018056
     6  Na  -0.122955   0.025944
     7  Na   0.081394   0.260330
 Sum of Mulliken charges =  -0.00000   1.00000

 Dipole moment (field-independent basis, Debye):
    X=              0.1682    Y=             -0.5818    Z=              0.0425  Tot=              0.6071
 Quadrupole moment (field-independent basis, Debye-Ang):
   XX=            -65.3022   YY=            -70.0566   ZZ=            -67.3858
   XY=              2.8063   XZ=             -1.6895   YZ=             -1.0950

 Normal termination of Gaussian 16 at Sun Dec  3 19:17:13 2023.
