 Gaussian 16, Revision B.01,
 Gaussian 16:  ES64L-G16RevB.01 20-Dec-2017

 -------------------------
 #P B3LYP/6-311+g(d) force
 -------------------------

 -----
 DPGEN
 -----
 Symbolic Z-matrix:
 Charge =  0 Multiplicity = 2

                         Standard orientation:
 ---------------------------------------------------------------------
 Center     Atomic      Atomic             Coordinates (Angstroms)
 Number     Number       Type             X           Y           Z
 ---------------------------------------------------------------------
      1         11           0        0.863851   -2.380255    1.203625
      2         11           0       -2.140458    0.088201    1.039103
      3         11           0       -1.316028    3.127304   -0.481409
      4         11           0        0.202100    0.117319   -1.698620
      5         11           0        0.885091    1.171446    1.821996
      6         11           0       -1.904140   -2.360314   -1.074114
      7         11           0        3.409584    0.236299   -0.810582
 ---------------------------------------------------------------------

 SCF Done:  E(UB3LYP) =  -1136.13432182     A.U. after   20 cycles

 The electronic state is 2-A.
 Alpha  occ. eigenvalues --  -38.44296 -38.43849 -38.43654 -38.43615 -38.43502
 Alpha  occ. eigenvalues --  -38.43501 -38.43254  -2.20104  -2.19722  -2.19457
 Alpha  occ. eigenvalues --   -2.19435  -2.19411  -2.19410  -2.19120  -1.13791
 Alpha  occ. eigenvalues --   -1.13761  -1.13718  -1.13436  -1.13364  -1.13324
 Alpha  occ. eigenvalues --   -1.13145  -1.13135  -1.13127  -1.13117  -1.13106
 Alpha  occ. eigenvalues --   -1.13098  -1.13083  -1.13073  -1.13059  -1.13046
 Alpha  occ. eigenvalues --   -1.13019  -1.13007  -1.12788  -1.12770  -1.12741
 Alpha  occ. eigenvalues --   -0.18370  -0.12413  -0.12261  -0.11572
 Alpha virt. eigenvalues --   -0.05466  -0.05027  -0.04471  -0.03288  -0.03154
 Alpha virt. eigenvalues --   -0.02949  -0.01367  -0.01198  -0.00610   0.00231
 Alpha virt. eigenvalues --    0.00278   0.00362   0.00527   0.00779   0.00786

  Beta  occ. eigenvalues --  -38.44265 -38.43795 -38.43652 -38.43602 -38.43481
  Beta  occ. eigenvalues --  -38.43434 -38.43239  -2.20049  -2.19625  -2.19454
  Beta  occ. eigenvalues --   -2.19388  -2.19378  -2.19312  -2.19093  -1.13743
  Beta  occ. eigenvalues --   -1.13715  -1.13685  -1.13367  -1.13284  -1.13258
  Beta  occ. eigenvalues --   -1.13125  -1.13118  -1.13099  -1.13089  -1.13083
  Beta  occ. eigenvalues --   -1.13051  -1.13049  -1.13029  -1.13016  -1.12990
  Beta  occ. eigenvalues --   -1.12987  -1.12954  -1.12756  -1.12754  -1.12721
  Beta  occ. eigenvalues --   -0.17573  -0.12225  -0.12060
  Beta virt. eigenvalues --   -0.07617  -0.05283  -0.04851  -0.04231  -0.02802
  Beta virt. eigenvalues --   -0.02649  -0.02010  -0.01251  -0.01094  -0.00283
  Beta virt. eigenvalues --    0.00203   0.00343   0.00400   0.00647   0.00790

 Mulliken charges and spin densities:
               1          2
     1  Na  -0.304397   0.130428
     2  Na  -0.058773   0.270483
     3  Na   0.014805  -0.139694
     4  Na  -0.341691   0.646264
     5  Na   0.131000   0.330158
     6  Na   0.551552  -0.150755
     7  Na   0.007505  -0.086884
 Sum of Mulliken charges =  -0.00000   1.00000

 Dipole moment (field-independent basis, Debye):
    X=              0.1416    Y=             -0.0136    Z=              0.1755  Tot=              0.2259
 Quadrupole moment (field-independent basis, Debye-Ang):
   XX=            -64.0189   YY=            -62.0538   ZZ=            -67.7338
   XY=             -0.2671   XZ=              0.9318   YZ=             -1.4446

 Normal termination of Gaussian 16 at Tue Dec  5 23:39:42 2023.
