 Gaussian 16, Revision B.01,
 Gaussian 16:  ES64L-G16RevB.01 20-Dec-2017

 -------------------------
 #P B3LYP/6-311+g(d) force
 -------------------------

 -----
 DPGEN
 -----
 Symbolic Z-matrix:
 Charge =  0 Multiplicity = 2

                         Standard orientation:
 ---------------------------------------------------------------------
 Center     Atomic      Atomic             Coordinates (Angstroms)
 Number     Number       Type             X           Y           Z
 ---------------------------------------------------------------------
      1         11           0       -0.663223   -0.230779    1.870322
      2         11           0        2.478015   -1.514289    0.616730
      3         11           0        2.656047    1.550517   -0.371185
      4         11           0       -0.932210    2.762027    0.391715
      5         11           0       -0.445589   -2.625729   -0.508068
      6         11           0       -3.171816   -0.271130   -0.305895
      7         11           0        0.078775    0.329382   -1.693618
 ---------------------------------------------------------------------

 SCF Done:  E(UB3LYP) =  -1136.13656546     A.U. after   19 cycles

 The electronic state is 2-A.
 Alpha  occ. eigenvalues --  -38.44308 -38.43745 -38.43513 -38.43508 -38.43450
 Alpha  occ. eigenvalues --  -38.43225 -38.43133  -2.20143  -2.19601  -2.19392
 Alpha  occ. eigenvalues --   -2.19385  -2.19349  -2.19216  -2.19036  -1.13826
 Alpha  occ. eigenvalues --   -1.13804  -1.13771  -1.13318  -1.13277  -1.13227
 Alpha  occ. eigenvalues --   -1.13091  -1.13069  -1.13049  -1.13042  -1.13029
 Alpha  occ. eigenvalues --   -1.13023  -1.13015  -1.12986  -1.12958  -1.12903
 Alpha  occ. eigenvalues --   -1.12860  -1.12831  -1.12708  -1.12691  -1.12651
 Alpha  occ. eigenvalues --   -0.18873  -0.13153  -0.12408  -0.10944
 Alpha virt. eigenvalues --   -0.05796  -0.04902  -0.04449  -0.03349  -0.03007
 Alpha virt. eigenvalues --   -0.02540  -0.01613  -0.00957  -0.00316  -0.00039
 Alpha virt. eigenvalues --    0.00055   0.00365   0.00839   0.00855   0.00917

  Beta  occ. eigenvalues --  -38.44301 -38.43740 -38.43501 -38.43499 -38.43374
  Beta  occ. eigenvalues --  -38.43155 -38.43119  -2.20134  -2.19594  -2.19365
  Beta  occ. eigenvalues --   -2.19335  -2.19251  -2.19089  -2.19015  -1.13812
  Beta  occ. eigenvalues --   -1.13791  -1.13760  -1.13306  -1.13262  -1.13222
  Beta  occ. eigenvalues --   -1.13048  -1.13041  -1.13028  -1.13003  -1.12999
  Beta  occ. eigenvalues --   -1.12967  -1.12956  -1.12928  -1.12890  -1.12825
  Beta  occ. eigenvalues --   -1.12772  -1.12744  -1.12682  -1.12657  -1.12626
  Beta  occ. eigenvalues --   -0.18148  -0.12915  -0.12138
  Beta virt. eigenvalues --   -0.07036  -0.05759  -0.04831  -0.04405  -0.02608
  Beta virt. eigenvalues --   -0.02255  -0.01538  -0.01498  -0.00878  -0.00285
  Beta virt. eigenvalues --   -0.00052   0.00138   0.00395   0.00857   0.00905

 Mulliken charges and spin densities:
               1          2
     1  Na  -0.131470   0.608811
     2  Na  -0.042079   0.060203
     3  Na   0.107692  -0.021246
     4  Na  -0.144832  -0.089640
     5  Na   0.129228   0.105456
     6  Na   0.104418  -0.082910
     7  Na  -0.022958   0.419327
 Sum of Mulliken charges =  -0.00000   1.00000

 Dipole moment (field-independent basis, Debye):
    X=             -0.4039    Y=              0.1507    Z=              0.0864  Tot=              0.4397
 Quadrupole moment (field-independent basis, Debye-Ang):
   XX=            -55.8813   YY=            -64.6493   ZZ=            -73.0133
   XY=              0.2300   XZ=              1.7130   YZ=              0.8290

 Normal termination of Gaussian 16 at Thu Dec  7 06:01:35 2023.
