 Gaussian 16, Revision B.01,
 Gaussian 16:  ES64L-G16RevB.01 20-Dec-2017

 -------------------------
 #P B3LYP/6-311+g(d) force
 -------------------------

 -----
 DPGEN
 -----
 Symbolic Z-matrix:
 Charge =  0 Multiplicity = 2

                         Standard orientation:
 ---------------------------------------------------------------------
 Center     Atomic      Atomic             Coordinates (Angstroms)
 Number     Number       Type             X           Y           Z
 ---------------------------------------------------------------------
      1         11           0       -2.699265    1.577196   -0.209692
      2         11           0        0.929459   -2.542187   -0.200761
      3         11           0       -2.837728   -1.713674   -0.027336
      4         11           0        0.391728    0.177700   -1.730764
      5         11           0        0.630134    2.606526    0.120220
      6         11           0       -0.031564   -0.117012    1.990808
      7         11           0        3.617236    0.011452    0.057526
 ---------------------------------------------------------------------

 SCF Done:  E(UB3LYP) =  -1136.13208987     A.U. after   19 cycles

 The electronic state is 2-A.
 Alpha  occ. eigenvalues --  -38.45282 -38.43976 -38.43903 -38.43524 -38.43476
 Alpha  occ. eigenvalues --  -38.43266 -38.42920  -2.21042  -2.19777  -2.19738
 Alpha  occ. eigenvalues --   -2.19433  -2.19421  -2.19127  -2.18812  -1.14719
 Alpha  occ. eigenvalues --   -1.14697  -1.14678  -1.13489  -1.13446  -1.13415
 Alpha  occ. eigenvalues --   -1.13406  -1.13387  -1.13364  -1.13143  -1.13133
 Alpha  occ. eigenvalues --   -1.13092  -1.13062  -1.13029  -1.13023  -1.12820
 Alpha  occ. eigenvalues --   -1.12797  -1.12722  -1.12512  -1.12479  -1.12413
 Alpha  occ. eigenvalues --   -0.18499  -0.13167  -0.12066  -0.10627
 Alpha virt. eigenvalues --   -0.06559  -0.05070  -0.04154  -0.03208  -0.02743
 Alpha virt. eigenvalues --   -0.02500  -0.02287  -0.01095  -0.00323  -0.00241
 Alpha virt. eigenvalues --   -0.00082   0.00279   0.00724   0.00765   0.00853

  Beta  occ. eigenvalues --  -38.45284 -38.43977 -38.43899 -38.43430 -38.43407
  Beta  occ. eigenvalues --  -38.43256 -38.42911  -2.21047  -2.19780  -2.19734
  Beta  occ. eigenvalues --   -2.19308  -2.19248  -2.19112  -2.18800  -1.14708
  Beta  occ. eigenvalues --   -1.14701  -1.14683  -1.13492  -1.13432  -1.13418
  Beta  occ. eigenvalues --   -1.13387  -1.13381  -1.13366  -1.13056  -1.13047
  Beta  occ. eigenvalues --   -1.12980  -1.12939  -1.12934  -1.12905  -1.12802
  Beta  occ. eigenvalues --   -1.12756  -1.12716  -1.12503  -1.12436  -1.12408
  Beta  occ. eigenvalues --   -0.17756  -0.12988  -0.11809
  Beta virt. eigenvalues --   -0.06707  -0.06498  -0.05089  -0.04128  -0.02495
  Beta virt. eigenvalues --   -0.02194  -0.01922  -0.01432  -0.01058  -0.00366
  Beta virt. eigenvalues --   -0.00270   0.00069   0.00302   0.00790   0.00839

 Mulliken charges and spin densities:
               1          2
     1  Na   0.125702  -0.040083
     2  Na   0.046056  -0.150741
     3  Na   0.041273  -0.077169
     4  Na  -0.161104   0.649025
     5  Na   0.171621  -0.094444
     6  Na  -0.391954   0.810016
     7  Na   0.168407  -0.096603
 Sum of Mulliken charges =  -0.00000   1.00000

 Dipole moment (field-independent basis, Debye):
    X=              0.5924    Y=             -0.0544    Z=              0.1081  Tot=              0.6046
 Quadrupole moment (field-independent basis, Debye-Ang):
   XX=            -49.2061   YY=            -67.6760   ZZ=            -75.0448
   XY=              0.3517   XZ=              1.0791   YZ=              0.4507

 Normal termination of Gaussian 16 at Thu Dec  7 08:43:44 2023.
