 Gaussian 16, Revision B.01,
 Gaussian 16:  ES64L-G16RevB.01 20-Dec-2017

 -------------------------
 #P B3LYP/6-311+g(d) force
 -------------------------

 -----
 DPGEN
 -----
 Symbolic Z-matrix:
 Charge =  0 Multiplicity = 2

                         Standard orientation:
 ---------------------------------------------------------------------
 Center     Atomic      Atomic             Coordinates (Angstroms)
 Number     Number       Type             X           Y           Z
 ---------------------------------------------------------------------
      1         11           0        0.394727    0.052033    2.040165
      2         11           0       -2.448905   -1.949247    0.189438
      3         11           0        1.197213   -2.752431   -0.264783
      4         11           0        0.467181    2.954113   -0.070840
      5         11           0        0.060988   -0.051770   -1.544579
      6         11           0       -2.689652    1.427778   -0.202791
      7         11           0        3.018448    0.319524   -0.146610
 ---------------------------------------------------------------------

 SCF Done:  E(UB3LYP) =  -1136.13993423     A.U. after   19 cycles

 The electronic state is 2-A.
 Alpha  occ. eigenvalues --  -38.43879 -38.43742 -38.43655 -38.43630 -38.43464
 Alpha  occ. eigenvalues --  -38.43461 -38.42957  -2.19742  -2.19558  -2.19496
 Alpha  occ. eigenvalues --   -2.19480  -2.19358  -2.19311  -2.18969  -1.13431
 Alpha  occ. eigenvalues --   -1.13415  -1.13368  -1.13241  -1.13227  -1.13209
 Alpha  occ. eigenvalues --   -1.13186  -1.13177  -1.13154  -1.13137  -1.13124
 Alpha  occ. eigenvalues --   -1.13100  -1.13030  -1.12994  -1.12991  -1.12980
 Alpha  occ. eigenvalues --   -1.12957  -1.12939  -1.12652  -1.12601  -1.12593
 Alpha  occ. eigenvalues --   -0.18697  -0.12957  -0.12597  -0.10608
 Alpha virt. eigenvalues --   -0.05483  -0.05179  -0.04947  -0.03040  -0.02871
 Alpha virt. eigenvalues --   -0.02457  -0.01403  -0.01230  -0.00457  -0.00391
 Alpha virt. eigenvalues --    0.00006   0.00358   0.00843   0.00868   0.00892

  Beta  occ. eigenvalues --  -38.43872 -38.43740 -38.43652 -38.43623 -38.43456
  Beta  occ. eigenvalues --  -38.43368 -38.42896  -2.19733  -2.19556  -2.19493
  Beta  occ. eigenvalues --   -2.19469  -2.19306  -2.19180  -2.18860  -1.13425
  Beta  occ. eigenvalues --   -1.13381  -1.13362  -1.13241  -1.13212  -1.13207
  Beta  occ. eigenvalues --   -1.13173  -1.13167  -1.13143  -1.13124  -1.13113
  Beta  occ. eigenvalues --   -1.13095  -1.12991  -1.12958  -1.12938  -1.12904
  Beta  occ. eigenvalues --   -1.12856  -1.12842  -1.12575  -1.12519  -1.12513
  Beta  occ. eigenvalues --   -0.17976  -0.12722  -0.12360
  Beta virt. eigenvalues --   -0.06683  -0.05467  -0.05180  -0.04884  -0.02275
  Beta virt. eigenvalues --   -0.02104  -0.01386  -0.01312  -0.01155  -0.00503
  Beta virt. eigenvalues --   -0.00453   0.00150   0.00388   0.00857   0.00878

 Mulliken charges and spin densities:
               1          2
     1  Na  -0.535320   0.825169
     2  Na   0.021141  -0.025942
     3  Na   0.180670  -0.043153
     4  Na   0.175621  -0.061633
     5  Na  -0.271164   0.400769
     6  Na   0.073271  -0.049325
     7  Na   0.355780  -0.045886
 Sum of Mulliken charges =  -0.00000   1.00000

 Dipole moment (field-independent basis, Debye):
    X=              0.1136    Y=             -0.0539    Z=              0.1485  Tot=              0.1946
 Quadrupole moment (field-independent basis, Debye-Ang):
   XX=            -57.6145   YY=            -59.9574   ZZ=            -75.2759
   XY=              0.2646   XZ=             -0.8039   YZ=             -0.3605

 Normal termination of Gaussian 16 at Tue Dec  5 17:02:04 2023.
