 Gaussian 16, Revision B.01,
 Gaussian 16:  ES64L-G16RevB.01 20-Dec-2017

 -------------------------
 #P B3LYP/6-311+g(d) force
 -------------------------

 -----
 DPGEN
 -----
 Symbolic Z-matrix:
 Charge =  0 Multiplicity = 2

                         Standard orientation:
 ---------------------------------------------------------------------
 Center     Atomic      Atomic             Coordinates (Angstroms)
 Number     Number       Type             X           Y           Z
 ---------------------------------------------------------------------
      1         11           0       -2.757312   -1.317285    0.317587
      2         11           0        0.830660   -0.016688    1.872417
      3         11           0        0.592706   -2.538845   -0.088151
      4         11           0       -0.616240   -0.053751   -1.807613
      5         11           0        2.980202   -0.333790   -0.353290
      6         11           0       -2.241271    1.828302    0.220123
      7         11           0        1.211256    2.432056   -0.161073
 ---------------------------------------------------------------------

 SCF Done:  E(UB3LYP) =  -1136.13465515     A.U. after   20 cycles

 The electronic state is 2-A.
 Alpha  occ. eigenvalues --  -38.44124 -38.43957 -38.43622 -38.43552 -38.43360
 Alpha  occ. eigenvalues --  -38.43046 -38.42943  -2.20034  -2.19824  -2.19524
 Alpha  occ. eigenvalues --   -2.19506  -2.19341  -2.18948  -2.18866  -1.13743
 Alpha  occ. eigenvalues --   -1.13683  -1.13678  -1.13524  -1.13491  -1.13461
 Alpha  occ. eigenvalues --   -1.13213  -1.13199  -1.13170  -1.13163  -1.13140
 Alpha  occ. eigenvalues --   -1.13131  -1.13017  -1.12970  -1.12957  -1.12631
 Alpha  occ. eigenvalues --   -1.12610  -1.12575  -1.12555  -1.12532  -1.12483
 Alpha  occ. eigenvalues --   -0.19216  -0.13602  -0.12352  -0.10918
 Alpha virt. eigenvalues --   -0.05717  -0.05126  -0.04251  -0.03626  -0.02838
 Alpha virt. eigenvalues --   -0.02499  -0.01480  -0.00850  -0.00069  -0.00059
 Alpha virt. eigenvalues --   -0.00043   0.00382   0.00830   0.00942   0.00950

  Beta  occ. eigenvalues --  -38.44116 -38.43951 -38.43617 -38.43477 -38.43287
  Beta  occ. eigenvalues --  -38.43037 -38.42933  -2.20024  -2.19816  -2.19499
  Beta  occ. eigenvalues --   -2.19386  -2.19207  -2.18937  -2.18852  -1.13732
  Beta  occ. eigenvalues --   -1.13677  -1.13649  -1.13520  -1.13471  -1.13451
  Beta  occ. eigenvalues --   -1.13199  -1.13140  -1.13133  -1.13111  -1.13069
  Beta  occ. eigenvalues --   -1.13040  -1.12931  -1.12877  -1.12860  -1.12625
  Beta  occ. eigenvalues --   -1.12577  -1.12565  -1.12548  -1.12482  -1.12479
  Beta  occ. eigenvalues --   -0.18470  -0.13385  -0.12089
  Beta virt. eigenvalues --   -0.07009  -0.05595  -0.05124  -0.04230  -0.02837
  Beta virt. eigenvalues --   -0.02051  -0.01471  -0.01382  -0.00798  -0.00109
  Beta virt. eigenvalues --   -0.00098   0.00115   0.00409   0.00906   0.00932

 Mulliken charges and spin densities:
               1          2
     1  Na   0.103403  -0.018705
     2  Na  -0.618897   0.634581
     3  Na   0.265612  -0.059235
     4  Na  -0.444357   0.536207
     5  Na   0.378891   0.012775
     6  Na   0.121437  -0.040729
     7  Na   0.193911  -0.064895
 Sum of Mulliken charges =  -0.00000   1.00000

 Dipole moment (field-independent basis, Debye):
    X=             -0.0765    Y=             -0.0360    Z=              0.0473  Tot=              0.0968
 Quadrupole moment (field-independent basis, Debye-Ang):
   XX=            -55.8297   YY=            -66.5710   ZZ=            -72.3166
   XY=              0.2594   XZ=             -2.8097   YZ=             -0.1495

 Normal termination of Gaussian 16 at Thu Dec  7 02:02:21 2023.
