 Gaussian 16, Revision B.01,
 Gaussian 16:  ES64L-G16RevB.01 20-Dec-2017

 -------------------------
 #P B3LYP/6-311+g(d) force
 -------------------------

 -----
 DPGEN
 -----
 Symbolic Z-matrix:
 Charge =  0 Multiplicity = 2

                         Standard orientation:
 ---------------------------------------------------------------------
 Center     Atomic      Atomic             Coordinates (Angstroms)
 Number     Number       Type             X           Y           Z
 ---------------------------------------------------------------------
      1         11           0        0.887180   -1.302149   -0.618807
      2         11           0        6.027193   -0.459415   -0.744532
      3         11           0        3.217681    0.926558    0.680128
      4         11           0       -0.144047    2.248936    0.026265
      5         11           0       -2.377030   -0.671007   -0.848266
      6         11           0       -1.437775   -1.037798    2.138647
      7         11           0       -6.173201    0.294874   -0.633435
 ---------------------------------------------------------------------

 SCF Done:  E(UB3LYP) =  -1136.10075052     A.U. after   31 cycles

 The electronic state is 2-A.
 Alpha  occ. eigenvalues --  -38.46981 -38.45726 -38.44477 -38.44250 -38.43805
 Alpha  occ. eigenvalues --  -38.43767 -38.43610  -2.22785  -2.21568  -2.20316
 Alpha  occ. eigenvalues --   -2.20116  -2.19627  -2.19512  -2.19352  -1.16455
 Alpha  occ. eigenvalues --   -1.16440  -1.16391  -1.15279  -1.15213  -1.15184
 Alpha  occ. eigenvalues --   -1.13979  -1.13949  -1.13918  -1.13833  -1.13796
 Alpha  occ. eigenvalues --   -1.13716  -1.13321  -1.13315  -1.13242  -1.13187
 Alpha  occ. eigenvalues --   -1.13184  -1.13140  -1.13015  -1.13014  -1.12967
 Alpha  occ. eigenvalues --   -0.18007  -0.13460  -0.11405  -0.10927
 Alpha virt. eigenvalues --   -0.07809  -0.06513  -0.04253  -0.03587  -0.03013
 Alpha virt. eigenvalues --   -0.02653  -0.02201  -0.01849  -0.01590  -0.01168
 Alpha virt. eigenvalues --   -0.00507  -0.00043   0.00160   0.00198   0.00310

  Beta  occ. eigenvalues --  -38.46943 -38.45710 -38.44378 -38.44248 -38.43796
  Beta  occ. eigenvalues --  -38.43783 -38.43570  -2.22715  -2.21540  -2.20132
  Beta  occ. eigenvalues --   -2.20115  -2.19612  -2.19543  -2.19277  -1.16413
  Beta  occ. eigenvalues --   -1.16374  -1.16348  -1.15261  -1.15185  -1.15152
  Beta  occ. eigenvalues --   -1.13852  -1.13839  -1.13819  -1.13800  -1.13774
  Beta  occ. eigenvalues --   -1.13707  -1.13313  -1.13305  -1.13231  -1.13208
  Beta  occ. eigenvalues --   -1.13203  -1.13151  -1.12964  -1.12962  -1.12918
  Beta  occ. eigenvalues --   -0.17404  -0.13277  -0.10506
  Beta virt. eigenvalues --   -0.07867  -0.07527  -0.06147  -0.04042  -0.03103
  Beta virt. eigenvalues --   -0.02607  -0.02322  -0.01820  -0.01556  -0.01274
  Beta virt. eigenvalues --   -0.01062  -0.00368   0.00135   0.00218   0.00312

 Mulliken charges and spin densities:
               1          2
     1  Na   0.178288   0.594671
     2  Na   0.067591  -0.058095
     3  Na  -0.154630  -0.094126
     4  Na  -0.047810   0.507135
     5  Na  -0.463468  -0.170596
     6  Na   0.209653   0.073341
     7  Na   0.210376   0.147669
 Sum of Mulliken charges =  -0.00000   1.00000

 Dipole moment (field-independent basis, Debye):
    X=              0.5213    Y=             -0.6031    Z=              1.5765  Tot=              1.7666
 Quadrupole moment (field-independent basis, Debye-Ang):
   XX=            -85.5962   YY=            -72.2851   ZZ=            -60.3492
   XY=             -3.3237   XZ=             -6.7945   YZ=              1.7135

 Normal termination of Gaussian 16 at Wed Nov 29 03:45:39 2023.
