 Gaussian 16, Revision B.01,
 Gaussian 16:  ES64L-G16RevB.01 20-Dec-2017

 -------------------------
 #P B3LYP/6-311+g(d) force
 -------------------------

 -----
 DPGEN
 -----
 Symbolic Z-matrix:
 Charge =  0 Multiplicity = 2

                         Standard orientation:
 ---------------------------------------------------------------------
 Center     Atomic      Atomic             Coordinates (Angstroms)
 Number     Number       Type             X           Y           Z
 ---------------------------------------------------------------------
      1         11           0        1.010358   -1.480007    0.920134
      2         11           0        3.589720   -3.174942   -0.010076
      3         11           0        2.970977    0.411854   -0.525039
      4         11           0       -0.187622    1.422886   -0.865188
      5         11           0       -2.904419   -0.763023   -0.572275
      6         11           0        2.596144    3.626362    0.650185
      7         11           0       -7.075158   -0.043130    0.402259
 ---------------------------------------------------------------------

 SCF Done:  E(UB3LYP) =  -1136.11543545     A.U. after   20 cycles

 The electronic state is 2-A.
 Alpha  occ. eigenvalues --  -38.45149 -38.44542 -38.44171 -38.44109 -38.43975
 Alpha  occ. eigenvalues --  -38.43909 -38.43474  -2.20923  -2.20418  -2.20073
 Alpha  occ. eigenvalues --   -2.19893  -2.19787  -2.19759  -2.19224  -1.14550
 Alpha  occ. eigenvalues --   -1.14550  -1.14523  -1.14175  -1.14090  -1.14010
 Alpha  occ. eigenvalues --   -1.13801  -1.13773  -1.13636  -1.13558  -1.13557
 Alpha  occ. eigenvalues --   -1.13500  -1.13471  -1.13454  -1.13448  -1.13446
 Alpha  occ. eigenvalues --   -1.13411  -1.13327  -1.12916  -1.12910  -1.12855
 Alpha  occ. eigenvalues --   -0.17028  -0.13134  -0.12529  -0.11291
 Alpha virt. eigenvalues --   -0.06083  -0.05722  -0.04777  -0.03538  -0.02414
 Alpha virt. eigenvalues --   -0.02386  -0.02017  -0.01908  -0.01441  -0.00958
 Alpha virt. eigenvalues --   -0.00474  -0.00287   0.00029   0.00432   0.00462

  Beta  occ. eigenvalues --  -38.44998 -38.44533 -38.44167 -38.44089 -38.43968
  Beta  occ. eigenvalues --  -38.43888 -38.43491  -2.20642  -2.20403  -2.20067
  Beta  occ. eigenvalues --   -2.19856  -2.19774  -2.19722  -2.19260  -1.14360
  Beta  occ. eigenvalues --   -1.14359  -1.14334  -1.14169  -1.14082  -1.13983
  Beta  occ. eigenvalues --   -1.13791  -1.13767  -1.13629  -1.13533  -1.13530
  Beta  occ. eigenvalues --   -1.13479  -1.13448  -1.13445  -1.13436  -1.13422
  Beta  occ. eigenvalues --   -1.13402  -1.13296  -1.12944  -1.12939  -1.12848
  Beta  occ. eigenvalues --   -0.16783  -0.12559  -0.11998
  Beta virt. eigenvalues --   -0.07531  -0.05799  -0.05530  -0.04489  -0.03383
  Beta virt. eigenvalues --   -0.02223  -0.02182  -0.01702  -0.01451  -0.00903
  Beta virt. eigenvalues --   -0.00422  -0.00345  -0.00040   0.00240   0.00531

 Mulliken charges and spin densities:
               1          2
     1  Na  -0.581300  -0.015134
     2  Na   0.506005   0.016620
     3  Na   0.031321   0.115951
     4  Na  -0.205383  -0.004509
     5  Na   0.031885   0.016631
     6  Na   0.140983   0.103097
     7  Na   0.076491   0.767343
 Sum of Mulliken charges =  -0.00000   1.00000

 Dipole moment (field-independent basis, Debye):
    X=              1.5885    Y=             -0.0257    Z=              0.3020  Tot=              1.6172
 Quadrupole moment (field-independent basis, Debye-Ang):
   XX=            -67.1172   YY=            -61.4957   ZZ=            -69.3128
   XY=             -3.2627   XZ=             -1.4328   YZ=              1.9854

 Normal termination of Gaussian 16 at Tue Nov 28 20:31:09 2023.
