 Gaussian 16, Revision B.01,
 Gaussian 16:  ES64L-G16RevB.01 20-Dec-2017

 -------------------------
 #P B3LYP/6-311+g(d) force
 -------------------------

 -----
 DPGEN
 -----
 Symbolic Z-matrix:
 Charge =  0 Multiplicity = 2

                         Standard orientation:
 ---------------------------------------------------------------------
 Center     Atomic      Atomic             Coordinates (Angstroms)
 Number     Number       Type             X           Y           Z
 ---------------------------------------------------------------------
      1         11           0       -4.221377    1.009891    0.541362
      2         11           0        1.900131    1.998807   -0.900509
      3         11           0       -3.835652   -2.355224   -0.624686
      4         11           0       -0.783377    2.815045    0.660837
      5         11           0       -0.456037   -1.057016   -0.703202
      6         11           0        2.555018   -2.112306    1.386897
      7         11           0        4.841295   -0.299198   -0.360699
 ---------------------------------------------------------------------

 SCF Done:  E(UB3LYP) =  -1136.11273722     A.U. after   23 cycles

 The electronic state is 2-A.
 Alpha  occ. eigenvalues --  -38.45289 -38.44584 -38.44511 -38.44331 -38.44128
 Alpha  occ. eigenvalues --  -38.44053 -38.43555  -2.21034  -2.20339  -2.20293
 Alpha  occ. eigenvalues --   -2.20136  -2.19937  -2.19859  -2.19353  -1.14720
 Alpha  occ. eigenvalues --   -1.14699  -1.14684  -1.14020  -1.14002  -1.13992
 Alpha  occ. eigenvalues --   -1.13959  -1.13935  -1.13898  -1.13824  -1.13805
 Alpha  occ. eigenvalues --   -1.13771  -1.13588  -1.13584  -1.13554  -1.13550
 Alpha  occ. eigenvalues --   -1.13492  -1.13470  -1.13026  -1.13006  -1.13003
 Alpha  occ. eigenvalues --   -0.16402  -0.13993  -0.11928  -0.10541
 Alpha virt. eigenvalues --   -0.07627  -0.05229  -0.04679  -0.03617  -0.03220
 Alpha virt. eigenvalues --   -0.02478  -0.02165  -0.01183  -0.01030  -0.00971
 Alpha virt. eigenvalues --   -0.00678  -0.00244   0.00281   0.00468   0.00510

  Beta  occ. eigenvalues --  -38.45305 -38.44597 -38.44439 -38.44326 -38.44059
  Beta  occ. eigenvalues --  -38.43981 -38.43550  -2.21069  -2.20365  -2.20157
  Beta  occ. eigenvalues --   -2.20129  -2.19808  -2.19726  -2.19346  -1.14748
  Beta  occ. eigenvalues --   -1.14716  -1.14688  -1.14040  -1.14013  -1.13996
  Beta  occ. eigenvalues --   -1.13867  -1.13841  -1.13822  -1.13810  -1.13786
  Beta  occ. eigenvalues --   -1.13762  -1.13499  -1.13495  -1.13474  -1.13460
  Beta  occ. eigenvalues --   -1.13399  -1.13380  -1.13023  -1.13003  -1.12986
  Beta  occ. eigenvalues --   -0.15801  -0.13425  -0.11835
  Beta virt. eigenvalues --   -0.07339  -0.07145  -0.05023  -0.03953  -0.03443
  Beta virt. eigenvalues --   -0.02826  -0.02443  -0.01825  -0.01044  -0.00684
  Beta virt. eigenvalues --   -0.00565  -0.00469  -0.00203   0.00390   0.00587

 Mulliken charges and spin densities:
               1          2
     1  Na  -0.012686   0.410010
     2  Na   0.114695   0.091485
     3  Na   0.488049  -0.008631
     4  Na   0.232708  -0.023387
     5  Na  -1.193222   0.272162
     6  Na   0.234105  -0.075533
     7  Na   0.136351   0.333893
 Sum of Mulliken charges =  -0.00000   1.00000

 Dipole moment (field-independent basis, Debye):
    X=              0.0662    Y=             -0.6568    Z=              0.2589  Tot=              0.7091
 Quadrupole moment (field-independent basis, Debye-Ang):
   XX=            -66.1187   YY=            -67.7994   ZZ=            -67.0547
   XY=              3.7071   XZ=             -1.4013   YZ=             -1.1986

 Normal termination of Gaussian 16 at Sun Dec  3 12:34:57 2023.
