 Gaussian 16, Revision B.01,
 Gaussian 16:  ES64L-G16RevB.01 20-Dec-2017

 -------------------------
 #P B3LYP/6-311+g(d) force
 -------------------------

 -----
 DPGEN
 -----
 Symbolic Z-matrix:
 Charge =  0 Multiplicity = 2

                         Standard orientation:
 ---------------------------------------------------------------------
 Center     Atomic      Atomic             Coordinates (Angstroms)
 Number     Number       Type             X           Y           Z
 ---------------------------------------------------------------------
      1         11           0        2.143094    1.397823    0.368523
      2         11           0        4.242329   -0.523900   -0.404658
      3         11           0       -4.028409   -1.531559   -0.287461
      4         11           0       -1.598380    0.811435    1.863387
      5         11           0        1.046436   -2.196850    0.915974
      6         11           0       -1.320291    2.820523   -0.716077
      7         11           0       -0.484779   -0.777471   -1.739687
 ---------------------------------------------------------------------

 SCF Done:  E(UB3LYP) =  -1136.11154572     A.U. after   33 cycles

 The electronic state is 2-A.
 Alpha  occ. eigenvalues --  -38.45349 -38.45101 -38.44540 -38.44407 -38.44042
 Alpha  occ. eigenvalues --  -38.43736 -38.43228  -2.21044  -2.20923  -2.20356
 Alpha  occ. eigenvalues --   -2.20220  -2.19902  -2.19568  -2.19034  -1.14735
 Alpha  occ. eigenvalues --   -1.14729  -1.14689  -1.14661  -1.14563  -1.14531
 Alpha  occ. eigenvalues --   -1.14062  -1.13998  -1.13960  -1.13905  -1.13873
 Alpha  occ. eigenvalues --   -1.13811  -1.13580  -1.13569  -1.13527  -1.13233
 Alpha  occ. eigenvalues --   -1.13226  -1.13188  -1.12708  -1.12695  -1.12670
 Alpha  occ. eigenvalues --   -0.17574  -0.13566  -0.11470  -0.10291
 Alpha virt. eigenvalues --   -0.07643  -0.05349  -0.04451  -0.03244  -0.03030
 Alpha virt. eigenvalues --   -0.02697  -0.02211  -0.01659  -0.00817  -0.00503
 Alpha virt. eigenvalues --   -0.00202  -0.00061   0.00258   0.00599   0.00654

  Beta  occ. eigenvalues --  -38.45396 -38.45089 -38.44471 -38.44345 -38.44024
  Beta  occ. eigenvalues --  -38.43677 -38.43228  -2.21134  -2.20901  -2.20230
  Beta  occ. eigenvalues --   -2.20107  -2.19871  -2.19458  -2.19036  -1.14795
  Beta  occ. eigenvalues --   -1.14786  -1.14747  -1.14640  -1.14545  -1.14515
  Beta  occ. eigenvalues --   -1.13960  -1.13909  -1.13878  -1.13824  -1.13780
  Beta  occ. eigenvalues --   -1.13734  -1.13556  -1.13523  -1.13516  -1.13156
  Beta  occ. eigenvalues --   -1.13144  -1.13117  -1.12703  -1.12691  -1.12669
  Beta  occ. eigenvalues --   -0.16818  -0.13467  -0.11278
  Beta virt. eigenvalues --   -0.07518  -0.06576  -0.05248  -0.04088  -0.02897
  Beta virt. eigenvalues --   -0.02843  -0.02119  -0.01619  -0.01272  -0.00569
  Beta virt. eigenvalues --   -0.00385  -0.00133  -0.00080   0.00378   0.00657

 Mulliken charges and spin densities:
               1          2
     1  Na  -0.396126   0.125538
     2  Na   0.472501   0.040035
     3  Na   0.093138  -0.333531
     4  Na   0.074141   0.452021
     5  Na  -0.048320   0.164888
     6  Na  -0.019916  -0.113189
     7  Na  -0.175418   0.664239
 Sum of Mulliken charges =  -0.00000   1.00000

 Dipole moment (field-independent basis, Debye):
    X=              0.4125    Y=             -0.5520    Z=             -0.0684  Tot=              0.6925
 Quadrupole moment (field-independent basis, Debye-Ang):
   XX=            -48.0240   YY=            -71.9437   ZZ=            -73.8416
   XY=             -2.5934   XZ=             -2.5822   YZ=             -1.5094

 Normal termination of Gaussian 16 at Sun Dec  3 13:21:12 2023.
