 Gaussian 16, Revision B.01,
 Gaussian 16:  ES64L-G16RevB.01 20-Dec-2017

 -------------------------
 #P B3LYP/6-311+g(d) force
 -------------------------

 -----
 DPGEN
 -----
 Symbolic Z-matrix:
 Charge =  0 Multiplicity = 2

                         Standard orientation:
 ---------------------------------------------------------------------
 Center     Atomic      Atomic             Coordinates (Angstroms)
 Number     Number       Type             X           Y           Z
 ---------------------------------------------------------------------
      1         11           0        3.006374    0.186425   -1.262986
      2         11           0        1.077425   -2.848948    0.367306
      3         11           0       -0.197917   -0.304947   -1.405865
      4         11           0       -0.848732    2.844717   -0.216825
      5         11           0       -3.236602   -0.657309   -1.099338
      6         11           0       -1.301077   -0.558665    2.158620
      7         11           0        1.500528    1.338726    1.459088
 ---------------------------------------------------------------------

 SCF Done:  E(UB3LYP) =  -1136.12805027     A.U. after   22 cycles

 The electronic state is 2-A.
 Alpha  occ. eigenvalues --  -38.44425 -38.44137 -38.44048 -38.43751 -38.43571
 Alpha  occ. eigenvalues --  -38.43393 -38.42984  -2.20265  -2.19955  -2.19886
 Alpha  occ. eigenvalues --   -2.19542  -2.19387  -2.19291  -2.18998  -1.13948
 Alpha  occ. eigenvalues --   -1.13886  -1.13882  -1.13670  -1.13583  -1.13580
 Alpha  occ. eigenvalues --   -1.13574  -1.13549  -1.13488  -1.13226  -1.13211
 Alpha  occ. eigenvalues --   -1.13166  -1.13089  -1.13067  -1.13016  -1.12968
 Alpha  occ. eigenvalues --   -1.12936  -1.12902  -1.12673  -1.12656  -1.12626
 Alpha  occ. eigenvalues --   -0.18306  -0.12703  -0.11810  -0.11747
 Alpha virt. eigenvalues --   -0.05731  -0.04749  -0.04526  -0.03277  -0.03150
 Alpha virt. eigenvalues --   -0.02977  -0.01524  -0.01056  -0.00682   0.00155
 Alpha virt. eigenvalues --    0.00320   0.00344   0.00450   0.00698   0.00821

  Beta  occ. eigenvalues --  -38.44346 -38.44112 -38.44024 -38.43744 -38.43571
  Beta  occ. eigenvalues --  -38.43364 -38.42939  -2.20121  -2.19910  -2.19842
  Beta  occ. eigenvalues --   -2.19532  -2.19388  -2.19241  -2.18918  -1.13845
  Beta  occ. eigenvalues --   -1.13783  -1.13780  -1.13629  -1.13554  -1.13543
  Beta  occ. eigenvalues --   -1.13539  -1.13523  -1.13460  -1.13221  -1.13192
  Beta  occ. eigenvalues --   -1.13157  -1.13089  -1.13049  -1.13019  -1.12930
  Beta  occ. eigenvalues --   -1.12885  -1.12873  -1.12610  -1.12595  -1.12570
  Beta  occ. eigenvalues --   -0.17551  -0.12418  -0.11577
  Beta virt. eigenvalues --   -0.07839  -0.05644  -0.04550  -0.04020  -0.03107
  Beta virt. eigenvalues --   -0.02424  -0.02111  -0.01392  -0.00994  -0.00325
  Beta virt. eigenvalues --    0.00208   0.00368   0.00387   0.00493   0.00824

 Mulliken charges and spin densities:
               1          2
     1  Na   0.658549  -0.041192
     2  Na  -0.300926   0.195545
     3  Na  -0.769037   0.062531
     4  Na  -0.238398   0.030434
     5  Na   0.478418   0.156484
     6  Na  -0.026171   0.365016
     7  Na   0.197564   0.231182
 Sum of Mulliken charges =  -0.00000   1.00000

 Dipole moment (field-independent basis, Debye):
    X=             -0.1819    Y=             -0.0895    Z=              0.1644  Tot=              0.2611
 Quadrupole moment (field-independent basis, Debye-Ang):
   XX=            -58.2992   YY=            -68.4078   ZZ=            -66.6949
   XY=             -0.3406   XZ=             -0.6415   YZ=             -2.3867

 Normal termination of Gaussian 16 at Sun Dec  3 17:53:02 2023.
