 Gaussian 16, Revision B.01,
 Gaussian 16:  ES64L-G16RevB.01 20-Dec-2017

 -------------------------
 #P B3LYP/6-311+g(d) force
 -------------------------

 -----
 DPGEN
 -----
 Symbolic Z-matrix:
 Charge =  0 Multiplicity = 2

                         Standard orientation:
 ---------------------------------------------------------------------
 Center     Atomic      Atomic             Coordinates (Angstroms)
 Number     Number       Type             X           Y           Z
 ---------------------------------------------------------------------
      1         11           0       -3.354168   -1.291768   -0.566452
      2         11           0       -0.317639   -2.295801   -0.331377
      3         11           0       -1.035096    0.760471    2.005488
      4         11           0       -2.141311    2.124296   -1.013646
      5         11           0        1.984290   -0.539467    2.004569
      6         11           0        1.699187    1.765276   -0.384789
      7         11           0        3.164737   -0.523007   -1.713794
 ---------------------------------------------------------------------

 SCF Done:  E(UB3LYP) =  -1136.12454966     A.U. after   22 cycles

 The electronic state is 2-A.
 Alpha  occ. eigenvalues --  -38.44747 -38.44719 -38.44233 -38.43793 -38.43784
 Alpha  occ. eigenvalues --  -38.43657 -38.42943  -2.20595  -2.20583  -2.20092
 Alpha  occ. eigenvalues --   -2.19598  -2.19589  -2.19542  -2.18756  -1.14293
 Alpha  occ. eigenvalues --   -1.14285  -1.14238  -1.14218  -1.14205  -1.14180
 Alpha  occ. eigenvalues --   -1.13782  -1.13731  -1.13716  -1.13277  -1.13265
 Alpha  occ. eigenvalues --   -1.13263  -1.13248  -1.13233  -1.13229  -1.13210
 Alpha  occ. eigenvalues --   -1.13208  -1.13159  -1.12439  -1.12437  -1.12383
 Alpha  occ. eigenvalues --   -0.17978  -0.13714  -0.12045  -0.11175
 Alpha virt. eigenvalues --   -0.05653  -0.05313  -0.05179  -0.03419  -0.02936
 Alpha virt. eigenvalues --   -0.02846  -0.01625  -0.00931  -0.00825  -0.00069
 Alpha virt. eigenvalues --    0.00093   0.00220   0.00392   0.00474   0.00523

  Beta  occ. eigenvalues --  -38.44690 -38.44652 -38.44187 -38.43779 -38.43772
  Beta  occ. eigenvalues --  -38.43637 -38.42941  -2.20480  -2.20475  -2.20010
  Beta  occ. eigenvalues --   -2.19588  -2.19549  -2.19508  -2.18755  -1.14214
  Beta  occ. eigenvalues --   -1.14195  -1.14156  -1.14148  -1.14120  -1.14103
  Beta  occ. eigenvalues --   -1.13724  -1.13666  -1.13647  -1.13270  -1.13257
  Beta  occ. eigenvalues --   -1.13235  -1.13233  -1.13210  -1.13202  -1.13186
  Beta  occ. eigenvalues --   -1.13175  -1.13130  -1.12440  -1.12420  -1.12388
  Beta  occ. eigenvalues --   -0.17227  -0.13359  -0.11079
  Beta virt. eigenvalues --   -0.08105  -0.05435  -0.05067  -0.04671  -0.03173
  Beta virt. eigenvalues --   -0.02315  -0.02201  -0.01514  -0.00742  -0.00463
  Beta virt. eigenvalues --    0.00027   0.00171   0.00370   0.00470   0.00571

 Mulliken charges and spin densities:
               1          2
     1  Na   0.267646  -0.042171
     2  Na  -0.702467   0.115938
     3  Na  -0.007599   0.179389
     4  Na   0.121614   0.099651
     5  Na   0.320704   0.214483
     6  Na  -0.464567   0.397223
     7  Na   0.464668   0.035488
 Sum of Mulliken charges =  -0.00000   1.00000

 Dipole moment (field-independent basis, Debye):
    X=              0.5359    Y=              0.1095    Z=              0.0007  Tot=              0.5470
 Quadrupole moment (field-independent basis, Debye-Ang):
   XX=            -55.9770   YY=            -77.3616   ZZ=            -63.5276
   XY=             -3.1054   XZ=              0.1600   YZ=             -2.1963

 Normal termination of Gaussian 16 at Sun Dec  3 22:31:48 2023.
