 Gaussian 16, Revision B.01,
 Gaussian 16:  ES64L-G16RevB.01 20-Dec-2017

 -------------------------
 #P B3LYP/6-311+g(d) force
 -------------------------

 -----
 DPGEN
 -----
 Symbolic Z-matrix:
 Charge =  0 Multiplicity = 2

                         Standard orientation:
 ---------------------------------------------------------------------
 Center     Atomic      Atomic             Coordinates (Angstroms)
 Number     Number       Type             X           Y           Z
 ---------------------------------------------------------------------
      1         11           0       -0.108538    0.360898   -1.734866
      2         11           0       -2.240139   -1.881184   -0.172600
      3         11           0        0.762791    2.623663    0.628012
      4         11           0        3.228482    0.284860   -0.459641
      5         11           0        1.077014   -2.280277   -0.171663
      6         11           0        0.136516   -0.699129    2.029046
      7         11           0       -2.856126    1.591169   -0.118287
 ---------------------------------------------------------------------

 SCF Done:  E(UB3LYP) =  -1136.13452238     A.U. after   20 cycles

 The electronic state is 2-A.
 Alpha  occ. eigenvalues --  -38.44072 -38.43903 -38.43799 -38.43539 -38.43453
 Alpha  occ. eigenvalues --  -38.43426 -38.43060  -2.19903  -2.19740  -2.19709
 Alpha  occ. eigenvalues --   -2.19415  -2.19385  -2.19288  -2.19036  -1.13574
 Alpha  occ. eigenvalues --   -1.13561  -1.13546  -1.13501  -1.13389  -1.13372
 Alpha  occ. eigenvalues --   -1.13362  -1.13351  -1.13332  -1.13117  -1.13084
 Alpha  occ. eigenvalues --   -1.13072  -1.13045  -1.13042  -1.12992  -1.12962
 Alpha  occ. eigenvalues --   -1.12944  -1.12905  -1.12726  -1.12691  -1.12624
 Alpha  occ. eigenvalues --   -0.18854  -0.13049  -0.12391  -0.11065
 Alpha virt. eigenvalues --   -0.05703  -0.05120  -0.04283  -0.03247  -0.03146
 Alpha virt. eigenvalues --   -0.02664  -0.01643  -0.00985  -0.00240  -0.00036
 Alpha virt. eigenvalues --    0.00004   0.00348   0.00799   0.00904   0.00931

  Beta  occ. eigenvalues --  -38.44063 -38.43905 -38.43710 -38.43534 -38.43435
  Beta  occ. eigenvalues --  -38.43364 -38.43047  -2.19889  -2.19713  -2.19575
  Beta  occ. eigenvalues --   -2.19408  -2.19273  -2.19257  -2.19018  -1.13560
  Beta  occ. eigenvalues --   -1.13546  -1.13532  -1.13396  -1.13382  -1.13374
  Beta  occ. eigenvalues --   -1.13351  -1.13251  -1.13216  -1.13098  -1.13065
  Beta  occ. eigenvalues --   -1.13032  -1.13010  -1.12980  -1.12926  -1.12912
  Beta  occ. eigenvalues --   -1.12898  -1.12889  -1.12706  -1.12646  -1.12609
  Beta  occ. eigenvalues --   -0.18104  -0.12808  -0.12156
  Beta virt. eigenvalues --   -0.07131  -0.05629  -0.05113  -0.04181  -0.02521
  Beta virt. eigenvalues --   -0.02400  -0.01634  -0.01527  -0.00946  -0.00198
  Beta virt. eigenvalues --   -0.00044   0.00101   0.00375   0.00864   0.00896

 Mulliken charges and spin densities:
               1          2
     1  Na  -0.353183   0.481800
     2  Na   0.152818  -0.099417
     3  Na  -0.022486   0.060787
     4  Na   0.132078  -0.019914
     5  Na   0.584051   0.057919
     6  Na  -0.532440   0.595800
     7  Na   0.039161  -0.076974
 Sum of Mulliken charges =  -0.00000   1.00000

 Dipole moment (field-independent basis, Debye):
    X=             -0.0562    Y=              0.2172    Z=              0.0526  Tot=              0.2305
 Quadrupole moment (field-independent basis, Debye-Ang):
   XX=            -55.3480   YY=            -66.6361   ZZ=            -72.0955
   XY=              0.4485   XZ=             -0.9001   YZ=              1.9514

 Normal termination of Gaussian 16 at Mon Dec  4 05:02:03 2023.
