 Gaussian 16, Revision B.01,
 Gaussian 16:  ES64L-G16RevB.01 20-Dec-2017

 -------------------------
 #P B3LYP/6-311+g(d) force
 -------------------------

 -----
 DPGEN
 -----
 Symbolic Z-matrix:
 Charge =  0 Multiplicity = 2

                         Standard orientation:
 ---------------------------------------------------------------------
 Center     Atomic      Atomic             Coordinates (Angstroms)
 Number     Number       Type             X           Y           Z
 ---------------------------------------------------------------------
      1         11           0        2.085713    1.360467    0.742831
      2         11           0       -3.773460   -1.446436   -0.463880
      3         11           0        0.660601   -1.766094    1.188666
      4         11           0       -1.969601    0.746506    1.288094
      5         11           0        0.067706   -0.612783   -1.494447
      6         11           0       -0.616497    2.813422   -0.726826
      7         11           0        3.545537   -1.095082   -0.534438
 ---------------------------------------------------------------------

 SCF Done:  E(UB3LYP) =  -1136.12262149     A.U. after   22 cycles

 The electronic state is 2-A.
 Alpha  occ. eigenvalues --  -38.44709 -38.44676 -38.44050 -38.43967 -38.43834
 Alpha  occ. eigenvalues --  -38.43529 -38.42616  -2.20530  -2.20470  -2.19973
 Alpha  occ. eigenvalues --   -2.19881  -2.19738  -2.19425  -2.18481  -1.14231
 Alpha  occ. eigenvalues --   -1.14175  -1.14159  -1.14154  -1.14131  -1.14097
 Alpha  occ. eigenvalues --   -1.13822  -1.13615  -1.13559  -1.13541  -1.13513
 Alpha  occ. eigenvalues --   -1.13455  -1.13409  -1.13406  -1.13361  -1.13107
 Alpha  occ. eigenvalues --   -1.13104  -1.13043  -1.12154  -1.12138  -1.12116
 Alpha  occ. eigenvalues --   -0.18618  -0.13758  -0.11691  -0.10327
 Alpha virt. eigenvalues --   -0.07039  -0.05280  -0.04165  -0.03305  -0.02663
 Alpha virt. eigenvalues --   -0.02452  -0.01949  -0.01409  -0.00511  -0.00185
 Alpha virt. eigenvalues --    0.00133   0.00170   0.00433   0.00667   0.00743

  Beta  occ. eigenvalues --  -38.44708 -38.44667 -38.43994 -38.43918 -38.43817
  Beta  occ. eigenvalues --  -38.43503 -38.42608  -2.20515  -2.20470  -2.19873
  Beta  occ. eigenvalues --   -2.19795  -2.19712  -2.19379  -2.18468  -1.14223
  Beta  occ. eigenvalues --   -1.14154  -1.14152  -1.14146  -1.14125  -1.14097
  Beta  occ. eigenvalues --   -1.13749  -1.13545  -1.13488  -1.13474  -1.13432
  Beta  occ. eigenvalues --   -1.13398  -1.13386  -1.13365  -1.13337  -1.13078
  Beta  occ. eigenvalues --   -1.13052  -1.13011  -1.12147  -1.12122  -1.12099
  Beta  occ. eigenvalues --   -0.17875  -0.13597  -0.11523
  Beta virt. eigenvalues --   -0.06914  -0.06478  -0.05163  -0.03892  -0.02876
  Beta virt. eigenvalues --   -0.02505  -0.01930  -0.01312  -0.01022  -0.00348
  Beta virt. eigenvalues --   -0.00087   0.00157   0.00235   0.00582   0.00716

 Mulliken charges and spin densities:
               1          2
     1  Na  -0.390522   0.185904
     2  Na  -0.100010  -0.112045
     3  Na  -0.239896   0.218737
     4  Na   0.268630   0.228092
     5  Na  -0.620855   0.630717
     6  Na   0.141718  -0.149404
     7  Na   0.940935  -0.002001
 Sum of Mulliken charges =  -0.00000   1.00000

 Dipole moment (field-independent basis, Debye):
    X=              0.4530    Y=             -0.4838    Z=             -0.0654  Tot=              0.6660
 Quadrupole moment (field-independent basis, Debye-Ang):
   XX=            -47.7425   YY=            -70.1346   ZZ=            -73.5952
   XY=             -0.5541   XZ=              0.1878   YZ=              0.6742

 Normal termination of Gaussian 16 at Thu Dec  7 02:12:16 2023.
