 Gaussian 16, Revision B.01,
 Gaussian 16:  ES64L-G16RevB.01 20-Dec-2017

 -------------------------
 #P B3LYP/6-311+g(d) force
 -------------------------

 -----
 DPGEN
 -----
 Symbolic Z-matrix:
 Charge =  0 Multiplicity = 2

                         Standard orientation:
 ---------------------------------------------------------------------
 Center     Atomic      Atomic             Coordinates (Angstroms)
 Number     Number       Type             X           Y           Z
 ---------------------------------------------------------------------
      1         11           0        4.152954   -0.945366   -0.713874
      2         11           0       -2.106926    2.661755   -1.014604
      3         11           0        2.943588    2.405197    0.281721
      4         11           0       -0.319182    1.676574    1.425970
      5         11           0        1.703156   -2.846693   -0.211711
      6         11           0       -4.154174   -0.665320   -0.687140
      7         11           0       -2.219416   -2.286148    0.919637
 ---------------------------------------------------------------------

 SCF Done:  E(UB3LYP) =  -1136.10544444     A.U. after   27 cycles

 The electronic state is 2-A.
 Alpha  occ. eigenvalues --  -38.45613 -38.44728 -38.44464 -38.44393 -38.44342
 Alpha  occ. eigenvalues --  -38.43801 -38.43759  -2.21407  -2.20516  -2.20252
 Alpha  occ. eigenvalues --   -2.20180  -2.20146  -2.19627  -2.19591  -1.15115
 Alpha  occ. eigenvalues --   -1.15073  -1.15032  -1.14216  -1.14193  -1.14150
 Alpha  occ. eigenvalues --   -1.13959  -1.13916  -1.13901  -1.13839  -1.13823
 Alpha  occ. eigenvalues --   -1.13807  -1.13807  -1.13777  -1.13764  -1.13279
 Alpha  occ. eigenvalues --   -1.13271  -1.13267  -1.13243  -1.13230  -1.13221
 Alpha  occ. eigenvalues --   -0.16168  -0.14016  -0.12779  -0.10248
 Alpha virt. eigenvalues --   -0.07738  -0.05116  -0.04312  -0.03784  -0.03439
 Alpha virt. eigenvalues --   -0.02415  -0.02057  -0.01525  -0.01210  -0.00851
 Alpha virt. eigenvalues --   -0.00492   0.00014   0.00232   0.00342   0.00515

  Beta  occ. eigenvalues --  -38.45613 -38.44743 -38.44431 -38.44332 -38.44327
  Beta  occ. eigenvalues --  -38.43727 -38.43720  -2.21411  -2.20546  -2.20196
  Beta  occ. eigenvalues --   -2.20123  -2.20066  -2.19517  -2.19489  -1.15105
  Beta  occ. eigenvalues --   -1.15081  -1.15015  -1.14230  -1.14215  -1.14156
  Beta  occ. eigenvalues --   -1.13917  -1.13879  -1.13856  -1.13795  -1.13774
  Beta  occ. eigenvalues --   -1.13758  -1.13740  -1.13734  -1.13716  -1.13220
  Beta  occ. eigenvalues --   -1.13193  -1.13180  -1.13176  -1.13169  -1.13145
  Beta  occ. eigenvalues --   -0.15773  -0.13401  -0.12142
  Beta virt. eigenvalues --   -0.07731  -0.07045  -0.04847  -0.03935  -0.03555
  Beta virt. eigenvalues --   -0.02975  -0.02071  -0.01955  -0.01355  -0.00899
  Beta virt. eigenvalues --   -0.00650  -0.00236   0.00210   0.00280   0.00492

 Mulliken charges and spin densities:
               1          2
     1  Na   0.234397   0.022850
     2  Na  -0.068437   0.351735
     3  Na  -0.075162   0.299987
     4  Na  -0.011114  -0.041540
     5  Na  -0.099762   0.157817
     6  Na   0.282551   0.011063
     7  Na  -0.262473   0.198088
 Sum of Mulliken charges =  -0.00000   1.00000

 Dipole moment (field-independent basis, Debye):
    X=             -0.2973    Y=              0.2011    Z=             -0.3974  Tot=              0.5355
 Quadrupole moment (field-independent basis, Debye-Ang):
   XX=            -57.5081   YY=            -75.6528   ZZ=            -69.0374
   XY=              4.1665   XZ=              1.1364   YZ=             -2.3946

 Normal termination of Gaussian 16 at Sun Dec  3 22:17:27 2023.
