 Gaussian 16, Revision B.01,
 Gaussian 16:  ES64L-G16RevB.01 20-Dec-2017

 -------------------------
 #P B3LYP/6-311+g(d) force
 -------------------------

 -----
 DPGEN
 -----
 Symbolic Z-matrix:
 Charge =  0 Multiplicity = 2

                         Standard orientation:
 ---------------------------------------------------------------------
 Center     Atomic      Atomic             Coordinates (Angstroms)
 Number     Number       Type             X           Y           Z
 ---------------------------------------------------------------------
      1         11           0        2.225408    2.181519    0.141196
      2         11           0       -1.272184    2.506948   -0.329828
      3         11           0       -3.375963   -0.523108   -0.269698
      4         11           0       -0.714339   -0.049111    2.100971
      5         11           0        3.053944   -1.350782    0.143319
      6         11           0        0.372092   -0.212449   -1.659876
      7         11           0       -0.288958   -2.553017   -0.126084
 ---------------------------------------------------------------------

 SCF Done:  E(UB3LYP) =  -1136.13330411     A.U. after   19 cycles

 The electronic state is 2-A.
 Alpha  occ. eigenvalues --  -38.44610 -38.44236 -38.43690 -38.43651 -38.43398
 Alpha  occ. eigenvalues --  -38.43297 -38.43230  -2.20402  -2.20045  -2.19564
 Alpha  occ. eigenvalues --   -2.19461  -2.19384  -2.19148  -2.19140  -1.14073
 Alpha  occ. eigenvalues --   -1.14058  -1.14044  -1.13718  -1.13703  -1.13689
 Alpha  occ. eigenvalues --   -1.13240  -1.13213  -1.13200  -1.13176  -1.13140
 Alpha  occ. eigenvalues --   -1.13127  -1.13102  -1.13029  -1.12979  -1.12823
 Alpha  occ. eigenvalues --   -1.12810  -1.12805  -1.12791  -1.12759  -1.12720
 Alpha  occ. eigenvalues --   -0.18477  -0.13085  -0.12268  -0.10651
 Alpha virt. eigenvalues --   -0.06126  -0.05261  -0.04308  -0.03291  -0.02817
 Alpha virt. eigenvalues --   -0.02509  -0.01957  -0.01102  -0.00337  -0.00229
 Alpha virt. eigenvalues --   -0.00070   0.00316   0.00722   0.00851   0.00857

  Beta  occ. eigenvalues --  -38.44608 -38.44236 -38.43650 -38.43598 -38.43335
  Beta  occ. eigenvalues --  -38.43288 -38.43217  -2.20401  -2.20046  -2.19462
  Beta  occ. eigenvalues --   -2.19394  -2.19269  -2.19129  -2.19126  -1.14060
  Beta  occ. eigenvalues --   -1.14051  -1.14045  -1.13711  -1.13699  -1.13692
  Beta  occ. eigenvalues --   -1.13160  -1.13135  -1.13117  -1.13115  -1.13105
  Beta  occ. eigenvalues --   -1.13078  -1.13055  -1.12950  -1.12894  -1.12809
  Beta  occ. eigenvalues --   -1.12782  -1.12777  -1.12755  -1.12734  -1.12712
  Beta  occ. eigenvalues --   -0.17752  -0.12905  -0.12031
  Beta virt. eigenvalues --   -0.06757  -0.06020  -0.05264  -0.04263  -0.02572
  Beta virt. eigenvalues --   -0.02046  -0.01854  -0.01471  -0.01057  -0.00374
  Beta virt. eigenvalues --   -0.00255   0.00101   0.00346   0.00794   0.00844

 Mulliken charges and spin densities:
               1          2
     1  Na  -0.029371  -0.061184
     2  Na   0.033626  -0.064757
     3  Na   0.266367  -0.043169
     4  Na  -0.579028   0.774033
     5  Na   0.078468  -0.030537
     6  Na  -0.091180   0.491789
     7  Na   0.321119  -0.066176
 Sum of Mulliken charges =  -0.00000   1.00000

 Dipole moment (field-independent basis, Debye):
    X=             -0.1086    Y=             -0.0855    Z=              0.1617  Tot=              0.2127
 Quadrupole moment (field-independent basis, Debye-Ang):
   XX=            -51.4989   YY=            -66.8858   ZZ=            -74.3926
   XY=             -0.1494   XZ=              2.5549   YZ=             -0.2588

 Normal termination of Gaussian 16 at Tue Dec  5 23:39:22 2023.
