 Gaussian 16, Revision B.01,
 Gaussian 16:  ES64L-G16RevB.01 20-Dec-2017

 -------------------------
 #P B3LYP/6-311+g(d) force
 -------------------------

 -----
 DPGEN
 -----
 Symbolic Z-matrix:
 Charge =  0 Multiplicity = 2

                         Standard orientation:
 ---------------------------------------------------------------------
 Center     Atomic      Atomic             Coordinates (Angstroms)
 Number     Number       Type             X           Y           Z
 ---------------------------------------------------------------------
      1         11           0        2.825290    1.639749   -1.114052
      2         11           0        0.480142    2.930828    0.909875
      3         11           0       -3.041074    2.216945   -0.346249
      4         11           0       -3.910681   -1.268341   -0.652386
      5         11           0       -1.338032   -2.790955    0.251388
      6         11           0        1.231695   -0.890752    1.637308
      7         11           0        3.752660   -1.837473   -0.685884
 ---------------------------------------------------------------------

 SCF Done:  E(UB3LYP) =  -1136.11415234     A.U. after   23 cycles

 The electronic state is 2-A.
 Alpha  occ. eigenvalues --  -38.45353 -38.45010 -38.44388 -38.44334 -38.44088
 Alpha  occ. eigenvalues --  -38.44074 -38.43436  -2.21138  -2.20749  -2.20182
 Alpha  occ. eigenvalues --   -2.20144  -2.19897  -2.19881  -2.19240  -1.14822
 Alpha  occ. eigenvalues --   -1.14797  -1.14763  -1.14434  -1.14413  -1.14376
 Alpha  occ. eigenvalues --   -1.13847  -1.13831  -1.13825  -1.13817  -1.13783
 Alpha  occ. eigenvalues --   -1.13769  -1.13649  -1.13564  -1.13545  -1.13538
 Alpha  occ. eigenvalues --   -1.13525  -1.13462  -1.12912  -1.12896  -1.12875
 Alpha  occ. eigenvalues --   -0.16453  -0.13855  -0.12423  -0.10643
 Alpha virt. eigenvalues --   -0.07349  -0.05302  -0.04591  -0.03535  -0.03357
 Alpha virt. eigenvalues --   -0.02007  -0.01799  -0.01655  -0.01409  -0.00849
 Alpha virt. eigenvalues --   -0.00289  -0.00022   0.00118   0.00457   0.00576

  Beta  occ. eigenvalues --  -38.45326 -38.44993 -38.44334 -38.44289 -38.44073
  Beta  occ. eigenvalues --  -38.44061 -38.43412  -2.21092  -2.20719  -2.20084
  Beta  occ. eigenvalues --   -2.20063  -2.19870  -2.19858  -2.19195  -1.14794
  Beta  occ. eigenvalues --   -1.14764  -1.14708  -1.14415  -1.14394  -1.14342
  Beta  occ. eigenvalues --   -1.13782  -1.13774  -1.13765  -1.13738  -1.13720
  Beta  occ. eigenvalues --   -1.13704  -1.13635  -1.13546  -1.13524  -1.13517
  Beta  occ. eigenvalues --   -1.13504  -1.13442  -1.12882  -1.12862  -1.12847
  Beta  occ. eigenvalues --   -0.15873  -0.13368  -0.12126
  Beta virt. eigenvalues --   -0.07361  -0.07173  -0.04930  -0.04146  -0.03178
  Beta virt. eigenvalues --   -0.02907  -0.01831  -0.01606  -0.01391  -0.01172
  Beta virt. eigenvalues --   -0.00736  -0.00126   0.00207   0.00330   0.00561

 Mulliken charges and spin densities:
               1          2
     1  Na   0.069133   0.154634
     2  Na  -0.347238   0.124234
     3  Na  -0.056249   0.105853
     4  Na   0.314370   0.134714
     5  Na  -0.187812  -0.008340
     6  Na   0.031927   0.210138
     7  Na   0.175870   0.278768
 Sum of Mulliken charges =  -0.00000   1.00000

 Dipole moment (field-independent basis, Debye):
    X=              0.3787    Y=              0.0351    Z=             -0.3758  Tot=              0.5347
 Quadrupole moment (field-independent basis, Debye-Ang):
   XX=            -65.3131   YY=            -64.6303   ZZ=            -70.1954
   XY=             -0.0455   XZ=              0.3621   YZ=              0.2241

 Normal termination of Gaussian 16 at Mon Dec  4 00:42:54 2023.
