 Gaussian 16, Revision B.01,
 Gaussian 16:  ES64L-G16RevB.01 20-Dec-2017

 -------------------------
 #P B3LYP/6-311+g(d) force
 -------------------------

 -----
 DPGEN
 -----
 Symbolic Z-matrix:
 Charge =  0 Multiplicity = 2

                         Standard orientation:
 ---------------------------------------------------------------------
 Center     Atomic      Atomic             Coordinates (Angstroms)
 Number     Number       Type             X           Y           Z
 ---------------------------------------------------------------------
      1         11           0        1.998270    0.238981    1.300002
      2         11           0        4.177308   -1.040755   -0.448324
      3         11           0       -2.752554    0.916989   -0.718664
      4         11           0        0.201442    2.483628   -0.503092
      5         11           0        0.236750   -0.773358   -1.574862
      6         11           0       -0.856635    0.275630    1.682907
      7         11           0       -3.004580   -2.101115    0.262033
 ---------------------------------------------------------------------

 SCF Done:  E(UB3LYP) =  -1136.11831732     A.U. after   23 cycles

 The electronic state is 2-A.
 Alpha  occ. eigenvalues --  -38.44954 -38.44490 -38.44393 -38.43629 -38.43544
 Alpha  occ. eigenvalues --  -38.43252 -38.42656  -2.20812  -2.20433  -2.20187
 Alpha  occ. eigenvalues --   -2.19678  -2.19535  -2.19096  -2.18582  -1.14518
 Alpha  occ. eigenvalues --   -1.14469  -1.14408  -1.14148  -1.14096  -1.14040
 Alpha  occ. eigenvalues --   -1.13898  -1.13841  -1.13818  -1.13542  -1.13316
 Alpha  occ. eigenvalues --   -1.13260  -1.13171  -1.13159  -1.13095  -1.12767
 Alpha  occ. eigenvalues --   -1.12752  -1.12737  -1.12254  -1.12239  -1.12224
 Alpha  occ. eigenvalues --   -0.19081  -0.13938  -0.11500  -0.11372
 Alpha virt. eigenvalues --   -0.06929  -0.04838  -0.04291  -0.03172  -0.02773
 Alpha virt. eigenvalues --   -0.02530  -0.02289  -0.01109  -0.00672  -0.00199
 Alpha virt. eigenvalues --    0.00104   0.00305   0.00348   0.00726   0.00791

  Beta  occ. eigenvalues --  -38.44898 -38.44470 -38.44397 -38.43550 -38.43503
  Beta  occ. eigenvalues --  -38.43249 -38.42642  -2.20712  -2.20400  -2.20196
  Beta  occ. eigenvalues --   -2.19537  -2.19463  -2.19092  -2.18561  -1.14451
  Beta  occ. eigenvalues --   -1.14386  -1.14335  -1.14123  -1.14059  -1.14013
  Beta  occ. eigenvalues --   -1.13904  -1.13846  -1.13819  -1.13443  -1.13215
  Beta  occ. eigenvalues --   -1.13165  -1.13116  -1.13102  -1.13020  -1.12767
  Beta  occ. eigenvalues --   -1.12741  -1.12732  -1.12243  -1.12226  -1.12177
  Beta  occ. eigenvalues --   -0.18302  -0.13794  -0.11273
  Beta virt. eigenvalues --   -0.07318  -0.06746  -0.04797  -0.03735  -0.02868
  Beta virt. eigenvalues --   -0.02490  -0.01991  -0.01552  -0.00938  -0.00371
  Beta virt. eigenvalues --   -0.00196   0.00133   0.00368   0.00476   0.00789

 Mulliken charges and spin densities:
               1          2
     1  Na   0.176992   0.036301
     2  Na   0.244471   0.005931
     3  Na   0.747972   0.186565
     4  Na  -0.047583   0.114468
     5  Na  -0.883459   0.417650
     6  Na  -0.514410   0.349663
     7  Na   0.276018  -0.110577
 Sum of Mulliken charges =  -0.00000   1.00000

 Dipole moment (field-independent basis, Debye):
    X=             -0.0114    Y=              0.2615    Z=             -0.7070  Tot=              0.7539
 Quadrupole moment (field-independent basis, Debye-Ang):
   XX=            -55.7216   YY=            -69.2328   ZZ=            -70.9147
   XY=             -1.2091   XZ=             -0.5743   YZ=             -0.5088

 Normal termination of Gaussian 16 at Tue Dec  5 23:53:39 2023.
