 Gaussian 16, Revision B.01,
 Gaussian 16:  ES64L-G16RevB.01 20-Dec-2017

 -------------------------
 #P B3LYP/6-311+g(d) force
 -------------------------

 -----
 DPGEN
 -----
 Symbolic Z-matrix:
 Charge =  0 Multiplicity = 2

                         Standard orientation:
 ---------------------------------------------------------------------
 Center     Atomic      Atomic             Coordinates (Angstroms)
 Number     Number       Type             X           Y           Z
 ---------------------------------------------------------------------
      1         11           0        3.208309    0.785732   -0.124979
      2         11           0       -0.000209    0.277670   -1.640454
      3         11           0       -1.619235   -2.516989    0.215728
      4         11           0       -2.903706    0.425103   -0.287796
      5         11           0        1.613323   -2.315060   -0.303400
      6         11           0       -0.514223    3.217193    0.079635
      7         11           0        0.215742    0.126351    2.061266
 ---------------------------------------------------------------------

 SCF Done:  E(UB3LYP) =  -1136.13729097     A.U. after   18 cycles

 The electronic state is 2-A.
 Alpha  occ. eigenvalues --  -38.44156 -38.43962 -38.43778 -38.43617 -38.43515
 Alpha  occ. eigenvalues --  -38.43252 -38.43191  -2.19953  -2.19757  -2.19645
 Alpha  occ. eigenvalues --   -2.19489  -2.19393  -2.19158  -2.19124  -1.13626
 Alpha  occ. eigenvalues --   -1.13608  -1.13599  -1.13435  -1.13419  -1.13399
 Alpha  occ. eigenvalues --   -1.13355  -1.13307  -1.13267  -1.13161  -1.13116
 Alpha  occ. eigenvalues --   -1.13109  -1.13095  -1.13053  -1.13027  -1.12840
 Alpha  occ. eigenvalues --   -1.12790  -1.12787  -1.12784  -1.12775  -1.12767
 Alpha  occ. eigenvalues --   -0.18565  -0.12877  -0.12530  -0.10707
 Alpha virt. eigenvalues --   -0.05812  -0.05133  -0.04687  -0.03094  -0.02972
 Alpha virt. eigenvalues --   -0.02568  -0.01504  -0.01331  -0.00419  -0.00282
 Alpha virt. eigenvalues --   -0.00001   0.00356   0.00807   0.00836   0.00904

  Beta  occ. eigenvalues --  -38.44154 -38.43960 -38.43770 -38.43521 -38.43506
  Beta  occ. eigenvalues --  -38.43248 -38.43128  -2.19953  -2.19758  -2.19633
  Beta  occ. eigenvalues --   -2.19380  -2.19312  -2.19120  -2.19044  -1.13611
  Beta  occ. eigenvalues --   -1.13610  -1.13596  -1.13427  -1.13414  -1.13398
  Beta  occ. eigenvalues --   -1.13342  -1.13282  -1.13262  -1.13090  -1.13042
  Beta  occ. eigenvalues --   -1.13024  -1.13021  -1.12987  -1.12977  -1.12786
  Beta  occ. eigenvalues --   -1.12780  -1.12758  -1.12744  -1.12703  -1.12698
  Beta  occ. eigenvalues --   -0.17832  -0.12637  -0.12320
  Beta virt. eigenvalues --   -0.06788  -0.05828  -0.05027  -0.04689  -0.02321
  Beta virt. eigenvalues --   -0.02206  -0.01535  -0.01414  -0.01235  -0.00463
  Beta virt. eigenvalues --   -0.00320   0.00134   0.00381   0.00801   0.00869

 Mulliken charges and spin densities:
               1          2
     1  Na   0.072447  -0.104578
     2  Na  -0.149506   0.345053
     3  Na   0.093613   0.038805
     4  Na   0.269902   0.016411
     5  Na   0.220273   0.043054
     6  Na   0.012338  -0.110029
     7  Na  -0.519066   0.771285
 Sum of Mulliken charges =  -0.00000   1.00000

 Dipole moment (field-independent basis, Debye):
    X=              0.2698    Y=              0.4514    Z=              0.1225  Tot=              0.5400
 Quadrupole moment (field-independent basis, Debye-Ang):
   XX=            -58.4635   YY=            -60.0161   ZZ=            -74.7488
   XY=              0.8054   XZ=             -0.3993   YZ=              0.3088

 Normal termination of Gaussian 16 at Thu Dec  7 18:38:28 2023.
