 Gaussian 16, Revision B.01,
 Gaussian 16:  ES64L-G16RevB.01 20-Dec-2017

 -------------------------
 #P B3LYP/6-311+g(d) force
 -------------------------

 -----
 DPGEN
 -----
 Symbolic Z-matrix:
 Charge =  0 Multiplicity = 2

                         Standard orientation:
 ---------------------------------------------------------------------
 Center     Atomic      Atomic             Coordinates (Angstroms)
 Number     Number       Type             X           Y           Z
 ---------------------------------------------------------------------
      1         11           0        3.218953   -0.110331   -0.155906
      2         11           0        2.892929   -3.310170   -0.133214
      3         11           0       -4.154435   -1.225588   -0.156102
      4         11           0        3.399453    3.518480    0.240028
      5         11           0       -5.903212    1.408962    0.058270
      6         11           0       -0.061318   -2.043608    0.482159
      7         11           0        0.607630    1.762254   -0.335235
 ---------------------------------------------------------------------

 SCF Done:  E(UB3LYP) =  -1136.11799830     A.U. after   21 cycles

 The electronic state is 2-A.
 Alpha  occ. eigenvalues --  -38.44944 -38.44801 -38.44362 -38.43889 -38.43716
 Alpha  occ. eigenvalues --  -38.43694 -38.43681  -2.20778  -2.20594  -2.20246
 Alpha  occ. eigenvalues --   -2.19714  -2.19549  -2.19517  -2.19451  -1.14488
 Alpha  occ. eigenvalues --   -1.14451  -1.14378  -1.14261  -1.14259  -1.14205
 Alpha  occ. eigenvalues --   -1.13953  -1.13935  -1.13839  -1.13396  -1.13381
 Alpha  occ. eigenvalues --   -1.13348  -1.13220  -1.13209  -1.13194  -1.13164
 Alpha  occ. eigenvalues --   -1.13163  -1.13161  -1.13127  -1.13108  -1.13055
 Alpha  occ. eigenvalues --   -0.16877  -0.13397  -0.12931  -0.10518
 Alpha virt. eigenvalues --   -0.06575  -0.05486  -0.04610  -0.03774  -0.02884
 Alpha virt. eigenvalues --   -0.02376  -0.01991  -0.01803  -0.01243  -0.00927
 Alpha virt. eigenvalues --   -0.00251  -0.00060   0.00313   0.00453   0.00540

  Beta  occ. eigenvalues --  -38.44911 -38.44795 -38.44331 -38.43844 -38.43693
  Beta  occ. eigenvalues --  -38.43662 -38.43661  -2.20718  -2.20583  -2.20192
  Beta  occ. eigenvalues --   -2.19632  -2.19489  -2.19479  -2.19416  -1.14450
  Beta  occ. eigenvalues --   -1.14412  -1.14327  -1.14252  -1.14246  -1.14194
  Beta  occ. eigenvalues --   -1.13910  -1.13888  -1.13796  -1.13342  -1.13319
  Beta  occ. eigenvalues --   -1.13290  -1.13190  -1.13156  -1.13155  -1.13152
  Beta  occ. eigenvalues --   -1.13125  -1.13121  -1.13090  -1.13088  -1.13020
  Beta  occ. eigenvalues --   -0.16305  -0.13139  -0.12471
  Beta virt. eigenvalues --   -0.07142  -0.06227  -0.05167  -0.04269  -0.03397
  Beta virt. eigenvalues --   -0.02521  -0.02225  -0.01850  -0.01715  -0.00960
  Beta virt. eigenvalues --   -0.00550   0.00023   0.00226   0.00391   0.00569

 Mulliken charges and spin densities:
               1          2
     1  Na  -1.067898   0.425317
     2  Na   1.374250   0.150318
     3  Na  -0.423557  -0.074146
     4  Na   1.317382   0.075891
     5  Na   0.182674   0.253611
     6  Na  -0.728680   0.104915
     7  Na  -0.654172   0.064094
 Sum of Mulliken charges =  -0.00000   1.00000

 Dipole moment (field-independent basis, Debye):
    X=              1.9739    Y=              1.3450    Z=              0.0944  Tot=              2.3904
 Quadrupole moment (field-independent basis, Debye-Ang):
   XX=            -72.0230   YY=            -52.8361   ZZ=            -73.5768
   XY=              2.6549   XZ=              0.6059   YZ=              1.1076

 Normal termination of Gaussian 16 at Wed Nov 29 03:20:16 2023.
