 Gaussian 16, Revision B.01,
 Gaussian 16:  ES64L-G16RevB.01 20-Dec-2017

 -------------------------
 #P B3LYP/6-311+g(d) force
 -------------------------

 -----
 DPGEN
 -----
 Symbolic Z-matrix:
 Charge =  0 Multiplicity = 2

                         Standard orientation:
 ---------------------------------------------------------------------
 Center     Atomic      Atomic             Coordinates (Angstroms)
 Number     Number       Type             X           Y           Z
 ---------------------------------------------------------------------
      1         11           0       -2.923027   -2.109756   -0.472738
      2         11           0        3.445103   -1.839010   -0.783275
      3         11           0       -0.769171   -0.452253    2.337581
      4         11           0        0.875007    3.239587   -0.827140
      5         11           0       -2.764429    1.408532   -0.691042
      6         11           0        0.468775   -1.077654   -1.000772
      7         11           0        1.667742    0.830554    1.437386
 ---------------------------------------------------------------------

 SCF Done:  E(UB3LYP) =  -1136.11942013     A.U. after   22 cycles

 The electronic state is 2-A.
 Alpha  occ. eigenvalues --  -38.44901 -38.44892 -38.44077 -38.43860 -38.43712
 Alpha  occ. eigenvalues --  -38.43543 -38.43384  -2.20799  -2.20658  -2.19875
 Alpha  occ. eigenvalues --   -2.19673  -2.19641  -2.19321  -2.19296  -1.14540
 Alpha  occ. eigenvalues --   -1.14404  -1.14379  -1.14350  -1.14316  -1.14269
 Alpha  occ. eigenvalues --   -1.13548  -1.13535  -1.13509  -1.13382  -1.13377
 Alpha  occ. eigenvalues --   -1.13316  -1.13308  -1.13291  -1.13219  -1.12998
 Alpha  occ. eigenvalues --   -1.12987  -1.12977  -1.12952  -1.12949  -1.12905
 Alpha  occ. eigenvalues --   -0.17893  -0.13133  -0.11779  -0.11595
 Alpha virt. eigenvalues --   -0.06071  -0.05378  -0.04631  -0.03461  -0.02912
 Alpha virt. eigenvalues --   -0.02562  -0.01861  -0.01380  -0.00629  -0.00267
 Alpha virt. eigenvalues --   -0.00059   0.00211   0.00500   0.00561   0.00749

  Beta  occ. eigenvalues --  -38.44872 -38.44785 -38.44075 -38.43841 -38.43674
  Beta  occ. eigenvalues --  -38.43525 -38.43369  -2.20623  -2.20588  -2.19872
  Beta  occ. eigenvalues --   -2.19638  -2.19580  -2.19287  -2.19271  -1.14386
  Beta  occ. eigenvalues --   -1.14319  -1.14296  -1.14264  -1.14243  -1.14225
  Beta  occ. eigenvalues --   -1.13544  -1.13528  -1.13509  -1.13349  -1.13322
  Beta  occ. eigenvalues --   -1.13292  -1.13284  -1.13221  -1.13191  -1.12968
  Beta  occ. eigenvalues --   -1.12960  -1.12955  -1.12932  -1.12929  -1.12886
  Beta  occ. eigenvalues --   -0.17178  -0.12921  -0.11430
  Beta virt. eigenvalues --   -0.07759  -0.05893  -0.05273  -0.04145  -0.02929
  Beta virt. eigenvalues --   -0.02432  -0.01915  -0.01718  -0.01265  -0.00391
  Beta virt. eigenvalues --   -0.00133   0.00033   0.00267   0.00560   0.00676

 Mulliken charges and spin densities:
               1          2
     1  Na   0.836639   0.020163
     2  Na   0.295454   0.004542
     3  Na  -0.240358   0.307634
     4  Na  -0.230378   0.064327
     5  Na   0.121386   0.160210
     6  Na  -1.388475   0.334155
     7  Na   0.605732   0.108970
 Sum of Mulliken charges =  -0.00000   1.00000

 Dipole moment (field-independent basis, Debye):
    X=             -0.7131    Y=             -0.3449    Z=              0.0710  Tot=              0.7953
 Quadrupole moment (field-independent basis, Debye-Ang):
   XX=            -56.1049   YY=            -68.7847   ZZ=            -69.9482
   XY=              1.2697   XZ=              0.0553   YZ=             -1.7627

 Normal termination of Gaussian 16 at Sun Dec  3 21:37:16 2023.
