 Gaussian 16, Revision B.01,
 Gaussian 16:  ES64L-G16RevB.01 20-Dec-2017

 -------------------------
 #P B3LYP/6-311+g(d) force
 -------------------------

 -----
 DPGEN
 -----
 Symbolic Z-matrix:
 Charge =  0 Multiplicity = 2

                         Standard orientation:
 ---------------------------------------------------------------------
 Center     Atomic      Atomic             Coordinates (Angstroms)
 Number     Number       Type             X           Y           Z
 ---------------------------------------------------------------------
      1         11           0       -1.288684    2.721803    0.002911
      2         11           0        0.413319   -0.122176    1.900368
      3         11           0       -0.860932   -2.841649    0.095792
      4         11           0        2.943493   -1.195860   -0.147565
      5         11           0        1.955056    2.008155   -0.143710
      6         11           0       -3.052275   -0.218472    0.058368
      7         11           0       -0.109977   -0.351802   -1.766165
 ---------------------------------------------------------------------

 SCF Done:  E(UB3LYP) =  -1136.13948224     A.U. after   19 cycles

 The electronic state is 2-A.
 Alpha  occ. eigenvalues --  -38.43997 -38.43969 -38.43571 -38.43469 -38.43373
 Alpha  occ. eigenvalues --  -38.43251 -38.43223  -2.19837  -2.19811  -2.19433
 Alpha  occ. eigenvalues --   -2.19364  -2.19298  -2.19205  -2.19067  -1.13508
 Alpha  occ. eigenvalues --   -1.13505  -1.13489  -1.13479  -1.13475  -1.13456
 Alpha  occ. eigenvalues --   -1.13143  -1.13103  -1.13073  -1.13055  -1.13035
 Alpha  occ. eigenvalues --   -1.13001  -1.12961  -1.12916  -1.12913  -1.12875
 Alpha  occ. eigenvalues --   -1.12832  -1.12820  -1.12728  -1.12725  -1.12718
 Alpha  occ. eigenvalues --   -0.18792  -0.13147  -0.12518  -0.10682
 Alpha virt. eigenvalues --   -0.05675  -0.05061  -0.04797  -0.03247  -0.02849
 Alpha virt. eigenvalues --   -0.02475  -0.01517  -0.01090  -0.00395  -0.00243
 Alpha virt. eigenvalues --   -0.00005   0.00369   0.00833   0.00869   0.00907

  Beta  occ. eigenvalues --  -38.43992 -38.43967 -38.43565 -38.43462 -38.43288
  Beta  occ. eigenvalues --  -38.43222 -38.43177  -2.19831  -2.19810  -2.19425
  Beta  occ. eigenvalues --   -2.19354  -2.19143  -2.19071  -2.19066  -1.13508
  Beta  occ. eigenvalues --   -1.13484  -1.13479  -1.13472  -1.13460  -1.13457
  Beta  occ. eigenvalues --   -1.13131  -1.13070  -1.13058  -1.13054  -1.13002
  Beta  occ. eigenvalues --   -1.12993  -1.12864  -1.12809  -1.12804  -1.12786
  Beta  occ. eigenvalues --   -1.12743  -1.12727  -1.12725  -1.12717  -1.12704
  Beta  occ. eigenvalues --   -0.18054  -0.12914  -0.12285
  Beta virt. eigenvalues --   -0.06771  -0.05659  -0.05040  -0.04756  -0.02427
  Beta virt. eigenvalues --   -0.02089  -0.01440  -0.01418  -0.01020  -0.00460
  Beta virt. eigenvalues --   -0.00290   0.00137   0.00391   0.00857   0.00877

 Mulliken charges and spin densities:
               1          2
     1  Na  -0.069746  -0.085096
     2  Na  -0.400893   0.735312
     3  Na   0.212850  -0.142485
     4  Na   0.305280  -0.106532
     5  Na   0.157500   0.001449
     6  Na   0.076024  -0.041918
     7  Na  -0.281015   0.639271
 Sum of Mulliken charges =  -0.00000   1.00000

 Dipole moment (field-independent basis, Debye):
    X=              0.0713    Y=             -0.3205    Z=              0.0414  Tot=              0.3309
 Quadrupole moment (field-independent basis, Debye-Ang):
   XX=            -56.7634   YY=            -62.2167   ZZ=            -74.6055
   XY=             -0.6747   XZ=             -1.1588   YZ=             -0.4521

 Normal termination of Gaussian 16 at Thu Dec  7 12:57:34 2023.
