 Gaussian 16, Revision B.01,
 Gaussian 16:  ES64L-G16RevB.01 20-Dec-2017

 -------------------------
 #P B3LYP/6-311+g(d) force
 -------------------------

 -----
 DPGEN
 -----
 Symbolic Z-matrix:
 Charge =  0 Multiplicity = 2

                         Standard orientation:
 ---------------------------------------------------------------------
 Center     Atomic      Atomic             Coordinates (Angstroms)
 Number     Number       Type             X           Y           Z
 ---------------------------------------------------------------------
      1         11           0       -0.996983   -2.556768   -0.734254
      2         11           0       -3.503558    1.468779    0.531803
      3         11           0       -4.468391   -1.348125   -0.386049
      4         11           0        2.604037    2.385751   -0.433709
      5         11           0        1.867608   -2.796999    1.137828
      6         11           0        4.693684   -0.788684   -0.329684
      7         11           0       -0.196396    3.636046    0.214065
 ---------------------------------------------------------------------

 SCF Done:  E(UB3LYP) =  -1136.10950353     A.U. after   22 cycles

 The electronic state is 2-A.
 Alpha  occ. eigenvalues --  -38.45385 -38.44723 -38.44691 -38.44565 -38.44492
 Alpha  occ. eigenvalues --  -38.44237 -38.43339  -2.21168  -2.20504  -2.20468
 Alpha  occ. eigenvalues --   -2.20325  -2.20311  -2.20024  -2.19149  -1.14841
 Alpha  occ. eigenvalues --   -1.14832  -1.14813  -1.14172  -1.14171  -1.14152
 Alpha  occ. eigenvalues --   -1.14148  -1.14122  -1.14111  -1.14006  -1.13988
 Alpha  occ. eigenvalues --   -1.13976  -1.13963  -1.13962  -1.13944  -1.13677
 Alpha  occ. eigenvalues --   -1.13660  -1.13643  -1.12813  -1.12799  -1.12786
 Alpha  occ. eigenvalues --   -0.15648  -0.14007  -0.13086  -0.10845
 Alpha virt. eigenvalues --   -0.07454  -0.05048  -0.04475  -0.03551  -0.03362
 Alpha virt. eigenvalues --   -0.02372  -0.02303  -0.01729  -0.01162  -0.00885
 Alpha virt. eigenvalues --   -0.00624  -0.00375   0.00249   0.00441   0.00585

  Beta  occ. eigenvalues --  -38.45363 -38.44685 -38.44671 -38.44560 -38.44471
  Beta  occ. eigenvalues --  -38.44153 -38.43308  -2.21130  -2.20464  -2.20409
  Beta  occ. eigenvalues --   -2.20321  -2.20274  -2.19869  -2.19091  -1.14817
  Beta  occ. eigenvalues --   -1.14809  -1.14768  -1.14152  -1.14144  -1.14109
  Beta  occ. eigenvalues --   -1.14106  -1.14078  -1.14054  -1.14007  -1.13985
  Beta  occ. eigenvalues --   -1.13942  -1.13939  -1.13928  -1.13915  -1.13571
  Beta  occ. eigenvalues --   -1.13551  -1.13544  -1.12775  -1.12759  -1.12747
  Beta  occ. eigenvalues --   -0.15153  -0.13284  -0.12475
  Beta virt. eigenvalues --   -0.07620  -0.07537  -0.04598  -0.04086  -0.03285
  Beta virt. eigenvalues --   -0.03013  -0.02199  -0.02094  -0.01485  -0.01026
  Beta virt. eigenvalues --   -0.00509  -0.00321  -0.00226   0.00323   0.00494

 Mulliken charges and spin densities:
               1          2
     1  Na  -0.640765   0.222340
     2  Na  -0.153542   0.154785
     3  Na   0.716748   0.071824
     4  Na  -0.542724   0.078956
     5  Na   0.109669  -0.013848
     6  Na   0.050620   0.350242
     7  Na   0.459994   0.135702
 Sum of Mulliken charges =  -0.00000   1.00000

 Dipole moment (field-independent basis, Debye):
    X=             -1.1146    Y=             -0.7148    Z=              0.0492  Tot=              1.3250
 Quadrupole moment (field-independent basis, Debye-Ang):
   XX=            -61.3576   YY=            -69.3357   ZZ=            -69.8563
   XY=             -0.2827   XZ=              0.3077   YZ=              0.9102

 Normal termination of Gaussian 16 at Sun Dec  3 20:32:12 2023.
