 Gaussian 16, Revision B.01,
 Gaussian 16:  ES64L-G16RevB.01 20-Dec-2017

 -------------------------
 #P B3LYP/6-311+g(d) force
 -------------------------

 -----
 DPGEN
 -----
 Symbolic Z-matrix:
 Charge =  0 Multiplicity = 2

                         Standard orientation:
 ---------------------------------------------------------------------
 Center     Atomic      Atomic             Coordinates (Angstroms)
 Number     Number       Type             X           Y           Z
 ---------------------------------------------------------------------
      1         11           0       -3.027606   -0.830950   -0.173152
      2         11           0        2.138323    2.155103   -0.210138
      3         11           0        2.696867   -1.364819   -0.323235
      4         11           0       -0.397771    0.194658   -1.778088
      5         11           0        0.365486    0.159955    1.836656
      6         11           0       -0.142919   -2.643153    0.319579
      7         11           0       -1.632380    2.329206    0.328379
 ---------------------------------------------------------------------

 SCF Done:  E(UB3LYP) =  -1136.13872171     A.U. after   18 cycles

 The electronic state is 2-A.
 Alpha  occ. eigenvalues --  -38.43842 -38.43750 -38.43659 -38.43591 -38.43333
 Alpha  occ. eigenvalues --  -38.43268 -38.42988  -2.19698  -2.19613  -2.19500
 Alpha  occ. eigenvalues --   -2.19468  -2.19299  -2.19238  -2.18902  -1.13392
 Alpha  occ. eigenvalues --   -1.13350  -1.13344  -1.13299  -1.13274  -1.13262
 Alpha  occ. eigenvalues --   -1.13187  -1.13178  -1.13162  -1.13155  -1.13128
 Alpha  occ. eigenvalues --   -1.13075  -1.12974  -1.12925  -1.12916  -1.12911
 Alpha  occ. eigenvalues --   -1.12870  -1.12853  -1.12582  -1.12559  -1.12527
 Alpha  occ. eigenvalues --   -0.19003  -0.13135  -0.12547  -0.10850
 Alpha virt. eigenvalues --   -0.05448  -0.05289  -0.04442  -0.03273  -0.02966
 Alpha virt. eigenvalues --   -0.02492  -0.01464  -0.01099  -0.00227  -0.00106
 Alpha virt. eigenvalues --    0.00030   0.00366   0.00825   0.00890   0.00939

  Beta  occ. eigenvalues --  -38.43839 -38.43744 -38.43654 -38.43580 -38.43262
  Beta  occ. eigenvalues --  -38.43185 -38.42978  -2.19694  -2.19605  -2.19493
  Beta  occ. eigenvalues --   -2.19452  -2.19169  -2.19087  -2.18888  -1.13380
  Beta  occ. eigenvalues --   -1.13346  -1.13333  -1.13296  -1.13263  -1.13241
  Beta  occ. eigenvalues --   -1.13178  -1.13160  -1.13147  -1.13122  -1.13110
  Beta  occ. eigenvalues --   -1.13068  -1.12890  -1.12836  -1.12818  -1.12813
  Beta  occ. eigenvalues --   -1.12763  -1.12746  -1.12568  -1.12533  -1.12509
  Beta  occ. eigenvalues --   -0.18267  -0.12891  -0.12284
  Beta virt. eigenvalues --   -0.06934  -0.05424  -0.05241  -0.04426  -0.02490
  Beta virt. eigenvalues --   -0.02171  -0.01453  -0.01368  -0.01040  -0.00263
  Beta virt. eigenvalues --   -0.00117   0.00132   0.00391   0.00870   0.00903

 Mulliken charges and spin densities:
               1          2
     1  Na   0.183811  -0.039376
     2  Na   0.073685  -0.086452
     3  Na  -0.008803  -0.012852
     4  Na  -0.400045   0.661204
     5  Na  -0.236289   0.607267
     6  Na   0.209472  -0.019402
     7  Na   0.178169  -0.110389
 Sum of Mulliken charges =  -0.00000   1.00000

 Dipole moment (field-independent basis, Debye):
    X=             -0.0159    Y=              0.2279    Z=             -0.0695  Tot=              0.2388
 Quadrupole moment (field-independent basis, Debye-Ang):
   XX=            -56.1598   YY=            -63.7737   ZZ=            -73.6107
   XY=              0.3933   XZ=             -1.6691   YZ=              0.2052

 Normal termination of Gaussian 16 at Fri Dec  8 04:11:27 2023.
