 Gaussian 16, Revision B.01,
 Gaussian 16:  ES64L-G16RevB.01 20-Dec-2017

 -------------------------
 #P B3LYP/6-311+g(d) force
 -------------------------

 -----
 DPGEN
 -----
 Symbolic Z-matrix:
 Charge =  0 Multiplicity = 2

                         Standard orientation:
 ---------------------------------------------------------------------
 Center     Atomic      Atomic             Coordinates (Angstroms)
 Number     Number       Type             X           Y           Z
 ---------------------------------------------------------------------
      1         11           0       -1.985988   -1.855815   -1.436823
      2         11           0       -2.580093    1.532486   -1.093253
      3         11           0        3.700994   -1.460286   -0.266464
      4         11           0       -2.887884    0.353987    1.828369
      5         11           0        2.877066    2.394660    0.144290
      6         11           0        0.540995    0.624591   -0.480207
      7         11           0        0.334909   -1.589623    1.304087
 ---------------------------------------------------------------------

 SCF Done:  E(UB3LYP) =  -1136.10987550     A.U. after   28 cycles

 The electronic state is 2-A.
 Alpha  occ. eigenvalues --  -38.45896 -38.44312 -38.44184 -38.44011 -38.43791
 Alpha  occ. eigenvalues --  -38.43572 -38.43441  -2.21628  -2.20163  -2.20027
 Alpha  occ. eigenvalues --   -2.19891  -2.19598  -2.19579  -2.19329  -1.15323
 Alpha  occ. eigenvalues --   -1.15275  -1.15262  -1.13842  -1.13808  -1.13775
 Alpha  occ. eigenvalues --   -1.13693  -1.13665  -1.13656  -1.13567  -1.13536
 Alpha  occ. eigenvalues --   -1.13509  -1.13471  -1.13389  -1.13252  -1.13221
 Alpha  occ. eigenvalues --   -1.13205  -1.13134  -1.12994  -1.12949  -1.12894
 Alpha  occ. eigenvalues --   -0.18170  -0.14007  -0.11031  -0.10869
 Alpha virt. eigenvalues --   -0.07056  -0.05952  -0.03946  -0.03077  -0.02825
 Alpha virt. eigenvalues --   -0.02407  -0.02305  -0.01320  -0.00925  -0.00425
 Alpha virt. eigenvalues --   -0.00007   0.00141   0.00299   0.00505   0.00587

  Beta  occ. eigenvalues --  -38.45918 -38.44224 -38.44113 -38.43974 -38.43815
  Beta  occ. eigenvalues --  -38.43565 -38.43409  -2.21670  -2.20001  -2.19898
  Beta  occ. eigenvalues --   -2.19827  -2.19637  -2.19574  -2.19273  -1.15351
  Beta  occ. eigenvalues --   -1.15307  -1.15290  -1.13732  -1.13695  -1.13660
  Beta  occ. eigenvalues --   -1.13599  -1.13583  -1.13554  -1.13527  -1.13479
  Beta  occ. eigenvalues --   -1.13467  -1.13439  -1.13384  -1.13279  -1.13247
  Beta  occ. eigenvalues --   -1.13198  -1.13135  -1.12966  -1.12897  -1.12852
  Beta  occ. eigenvalues --   -0.17456  -0.13810  -0.10943
  Beta virt. eigenvalues --   -0.06987  -0.06782  -0.05711  -0.03599  -0.02920
  Beta virt. eigenvalues --   -0.02667  -0.01838  -0.01530  -0.01070  -0.00600
  Beta virt. eigenvalues --   -0.00226   0.00083   0.00173   0.00311   0.00605

 Mulliken charges and spin densities:
               1          2
     1  Na   0.641126   0.039519
     2  Na   0.802860   0.451529
     3  Na   0.492970  -0.129813
     4  Na  -0.089266   0.353273
     5  Na   0.519304  -0.171256
     6  Na  -2.822273   0.326137
     7  Na   0.455279   0.130610
 Sum of Mulliken charges =  -0.00000   1.00000

 Dipole moment (field-independent basis, Debye):
    X=              0.9611    Y=             -0.9231    Z=             -0.2717  Tot=              1.3600
 Quadrupole moment (field-independent basis, Debye-Ang):
   XX=            -47.5076   YY=            -71.6903   ZZ=            -72.0062
   XY=             -2.9718   XZ=              0.2803   YZ=              2.7302

 Normal termination of Gaussian 16 at Tue Dec  5 14:42:31 2023.
