 Gaussian 16, Revision B.01,
 Gaussian 16:  ES64L-G16RevB.01 20-Dec-2017

 -------------------------
 #P B3LYP/6-311+g(d) force
 -------------------------

 -----
 DPGEN
 -----
 Symbolic Z-matrix:
 Charge =  0 Multiplicity = 2

                         Standard orientation:
 ---------------------------------------------------------------------
 Center     Atomic      Atomic             Coordinates (Angstroms)
 Number     Number       Type             X           Y           Z
 ---------------------------------------------------------------------
      1         11           0       -0.097186   -1.931871    0.425757
      2         11           0       -2.900598   -3.110004   -0.269449
      3         11           0       -3.066736    0.045020   -0.622103
      4         11           0       -2.845602    3.373709   -0.281746
      5         11           0       -0.399902    1.785699    1.009204
      6         11           0        3.197150   -0.767372    0.496155
      7         11           0        6.112874    0.604819   -0.757818
 ---------------------------------------------------------------------

 SCF Done:  E(UB3LYP) =  -1136.12432881     A.U. after   22 cycles

 The electronic state is 2-A.
 Alpha  occ. eigenvalues --  -38.44796 -38.44351 -38.44248 -38.44196 -38.43660
 Alpha  occ. eigenvalues --  -38.43646 -38.43268  -2.20622  -2.20146  -2.20134
 Alpha  occ. eigenvalues --   -2.20035  -2.19542  -2.19516  -2.19050  -1.14311
 Alpha  occ. eigenvalues --   -1.14303  -1.14233  -1.13826  -1.13822  -1.13781
 Alpha  occ. eigenvalues --   -1.13780  -1.13775  -1.13759  -1.13692  -1.13685
 Alpha  occ. eigenvalues --   -1.13654  -1.13264  -1.13222  -1.13220  -1.13167
 Alpha  occ. eigenvalues --   -1.13152  -1.13077  -1.12744  -1.12734  -1.12695
 Alpha  occ. eigenvalues --   -0.17125  -0.13616  -0.13055  -0.11126
 Alpha virt. eigenvalues --   -0.05891  -0.05585  -0.04495  -0.04105  -0.02557
 Alpha virt. eigenvalues --   -0.02078  -0.01893  -0.01785  -0.01403  -0.00801
 Alpha virt. eigenvalues --   -0.00523   0.00099   0.00287   0.00369   0.00656

  Beta  occ. eigenvalues --  -38.44770 -38.44244 -38.44222 -38.44189 -38.43632
  Beta  occ. eigenvalues --  -38.43627 -38.43277  -2.20574  -2.20087  -2.20024
  Beta  occ. eigenvalues --   -2.19947  -2.19492  -2.19482  -2.19074  -1.14279
  Beta  occ. eigenvalues --   -1.14272  -1.14189  -1.13795  -1.13785  -1.13742
  Beta  occ. eigenvalues --   -1.13679  -1.13678  -1.13645  -1.13644  -1.13640
  Beta  occ. eigenvalues --   -1.13628  -1.13235  -1.13185  -1.13183  -1.13139
  Beta  occ. eigenvalues --   -1.13134  -1.13040  -1.12768  -1.12757  -1.12654
  Beta  occ. eigenvalues --   -0.16665  -0.13183  -0.12453
  Beta virt. eigenvalues --   -0.07686  -0.05557  -0.05321  -0.04012  -0.03929
  Beta virt. eigenvalues --   -0.02269  -0.01869  -0.01739  -0.01475  -0.01080
  Beta virt. eigenvalues --   -0.00436  -0.00180   0.00252   0.00436   0.00508

 Mulliken charges and spin densities:
               1          2
     1  Na  -1.830404  -0.059156
     2  Na   1.949646   0.360778
     3  Na  -0.954439   0.286937
     4  Na   1.160771   0.034751
     5  Na  -0.524873   0.082411
     6  Na  -0.426973  -0.230816
     7  Na   0.626273   0.525095
 Sum of Mulliken charges =  -0.00000   1.00000

 Dipole moment (field-independent basis, Debye):
    X=             -1.6772    Y=              0.9529    Z=             -0.1352  Tot=              1.9338
 Quadrupole moment (field-independent basis, Debye-Ang):
   XX=            -65.9173   YY=            -58.6249   ZZ=            -71.2741
   XY=              0.1846   XZ=             -0.0219   YZ=             -1.0368

 Normal termination of Gaussian 16 at Tue Nov 28 22:10:34 2023.
