 Gaussian 16, Revision B.01,
 Gaussian 16:  ES64L-G16RevB.01 20-Dec-2017

 -------------------------
 #P B3LYP/6-311+g(d) force
 -------------------------

 -----
 DPGEN
 -----
 Symbolic Z-matrix:
 Charge =  0 Multiplicity = 2

                         Standard orientation:
 ---------------------------------------------------------------------
 Center     Atomic      Atomic             Coordinates (Angstroms)
 Number     Number       Type             X           Y           Z
 ---------------------------------------------------------------------
      1         11           0       -1.264183   -2.609971    0.039591
      2         11           0        2.208445   -1.972284   -0.113177
      3         11           0       -3.362224    0.439209   -0.077596
      4         11           0       -0.306059    3.042392    0.086722
      5         11           0        2.826595    1.225619   -0.027922
      6         11           0       -0.011189   -0.145643    1.907974
      7         11           0       -0.091384    0.020678   -1.815592
 ---------------------------------------------------------------------

 SCF Done:  E(UB3LYP) =  -1136.13928223     A.U. after   19 cycles

 The electronic state is 2-A.
 Alpha  occ. eigenvalues --  -38.44464 -38.43784 -38.43581 -38.43440 -38.43422
 Alpha  occ. eigenvalues --  -38.43392 -38.43347  -2.20235  -2.19629  -2.19385
 Alpha  occ. eigenvalues --   -2.19305  -2.19302  -2.19299  -2.19269  -1.13913
 Alpha  occ. eigenvalues --   -1.13884  -1.13881  -1.13314  -1.13295  -1.13274
 Alpha  occ. eigenvalues --   -1.13065  -1.13059  -1.13043  -1.13016  -1.12998
 Alpha  occ. eigenvalues --   -1.12978  -1.12969  -1.12959  -1.12950  -1.12936
 Alpha  occ. eigenvalues --   -1.12911  -1.12909  -1.12906  -1.12888  -1.12879
 Alpha  occ. eigenvalues --   -0.18542  -0.12901  -0.12431  -0.10624
 Alpha virt. eigenvalues --   -0.05909  -0.04983  -0.04853  -0.03102  -0.02876
 Alpha virt. eigenvalues --   -0.02499  -0.01678  -0.01123  -0.00506  -0.00382
 Alpha virt. eigenvalues --   -0.00014   0.00361   0.00780   0.00867   0.00890

  Beta  occ. eigenvalues --  -38.44465 -38.43780 -38.43579 -38.43433 -38.43415
  Beta  occ. eigenvalues --  -38.43306 -38.43271  -2.20238  -2.19626  -2.19383
  Beta  occ. eigenvalues --   -2.19293  -2.19291  -2.19147  -2.19130  -1.13899
  Beta  occ. eigenvalues --   -1.13888  -1.13885  -1.13314  -1.13276  -1.13266
  Beta  occ. eigenvalues --   -1.13058  -1.13042  -1.13019  -1.13015  -1.12969
  Beta  occ. eigenvalues --   -1.12954  -1.12945  -1.12926  -1.12905  -1.12871
  Beta  occ. eigenvalues --   -1.12845  -1.12807  -1.12805  -1.12794  -1.12780
  Beta  occ. eigenvalues --   -0.17794  -0.12685  -0.12195
  Beta virt. eigenvalues --   -0.06719  -0.05897  -0.05002  -0.04780  -0.02330
  Beta virt. eigenvalues --   -0.02090  -0.01604  -0.01438  -0.01045  -0.00564
  Beta virt. eigenvalues --   -0.00448   0.00121   0.00376   0.00804   0.00870

 Mulliken charges and spin densities:
               1          2
     1  Na   0.236708  -0.092870
     2  Na   0.282160  -0.020548
     3  Na  -0.014286  -0.147924
     4  Na  -0.051027  -0.160041
     5  Na   0.106363  -0.065176
     6  Na  -0.310838   0.770852
     7  Na  -0.249080   0.715706
 Sum of Mulliken charges =  -0.00000   1.00000

 Dipole moment (field-independent basis, Debye):
    X=             -0.3469    Y=              0.1256    Z=              0.0135  Tot=              0.3692
 Quadrupole moment (field-independent basis, Debye-Ang):
   XX=            -55.4764   YY=            -62.3476   ZZ=            -75.0364
   XY=             -0.2917   XZ=             -0.1625   YZ=              0.4085

 Normal termination of Gaussian 16 at Thu Dec  7 19:08:44 2023.
