 Gaussian 16, Revision B.01,
 Gaussian 16:  ES64L-G16RevB.01 20-Dec-2017

 -------------------------
 #P B3LYP/6-311+g(d) force
 -------------------------

 -----
 DPGEN
 -----
 Symbolic Z-matrix:
 Charge =  0 Multiplicity = 2

                         Standard orientation:
 ---------------------------------------------------------------------
 Center     Atomic      Atomic             Coordinates (Angstroms)
 Number     Number       Type             X           Y           Z
 ---------------------------------------------------------------------
      1         11           0        1.213418    0.916591    2.036396
      2         11           0       -3.735777   -1.495419   -1.145650
      3         11           0        2.946475    0.451439   -1.627242
      4         11           0        0.508672    2.993809   -0.855008
      5         11           0        2.890210   -2.576330    0.405882
      6         11           0       -1.129943   -1.846872    0.318923
      7         11           0       -2.693056    1.556783    0.866698
 ---------------------------------------------------------------------

 SCF Done:  E(UB3LYP) =  -1136.12130325     A.U. after   21 cycles

 The electronic state is 2-A.
 Alpha  occ. eigenvalues --  -38.45054 -38.44626 -38.44215 -38.44125 -38.43980
 Alpha  occ. eigenvalues --  -38.43953 -38.43606  -2.20810  -2.20412  -2.20012
 Alpha  occ. eigenvalues --   -2.19951  -2.19789  -2.19735  -2.19394  -1.14505
 Alpha  occ. eigenvalues --   -1.14482  -1.14420  -1.14091  -1.14068  -1.14018
 Alpha  occ. eigenvalues --   -1.13700  -1.13686  -1.13658  -1.13628  -1.13625
 Alpha  occ. eigenvalues --   -1.13607  -1.13430  -1.13420  -1.13408  -1.13397
 Alpha  occ. eigenvalues --   -1.13384  -1.13374  -1.13076  -1.13060  -1.13023
 Alpha  occ. eigenvalues --   -0.16803  -0.13642  -0.11932  -0.10667
 Alpha virt. eigenvalues --   -0.06404  -0.05490  -0.04996  -0.03516  -0.03046
 Alpha virt. eigenvalues --   -0.02304  -0.01857  -0.01437  -0.00900  -0.00572
 Alpha virt. eigenvalues --   -0.00413  -0.00007   0.00279   0.00389   0.00658

  Beta  occ. eigenvalues --  -38.45047 -38.44571 -38.44150 -38.44118 -38.43979
  Beta  occ. eigenvalues --  -38.43924 -38.43591  -2.20798  -2.20312  -2.19942
  Beta  occ. eigenvalues --   -2.19890  -2.19735  -2.19732  -2.19368  -1.14491
  Beta  occ. eigenvalues --   -1.14474  -1.14408  -1.14019  -1.13994  -1.13946
  Beta  occ. eigenvalues --   -1.13666  -1.13624  -1.13604  -1.13602  -1.13579
  Beta  occ. eigenvalues --   -1.13532  -1.13408  -1.13391  -1.13390  -1.13382
  Beta  occ. eigenvalues --   -1.13373  -1.13352  -1.13060  -1.13046  -1.12984
  Beta  occ. eigenvalues --   -0.16225  -0.13205  -0.11774
  Beta virt. eigenvalues --   -0.07142  -0.06260  -0.05226  -0.04538  -0.03265
  Beta virt. eigenvalues --   -0.02546  -0.01893  -0.01586  -0.01233  -0.00758
  Beta virt. eigenvalues --   -0.00457  -0.00053   0.00163   0.00355   0.00484

 Mulliken charges and spin densities:
               1          2
     1  Na  -0.094509   0.420264
     2  Na   0.929903   0.109357
     3  Na   0.027079   0.316128
     4  Na  -0.058208   0.092398
     5  Na   0.236146  -0.020872
     6  Na  -1.282586   0.068222
     7  Na   0.242174   0.014502
 Sum of Mulliken charges =  -0.00000   1.00000

 Dipole moment (field-independent basis, Debye):
    X=             -0.7573    Y=              0.1872    Z=              0.1872  Tot=              0.8022
 Quadrupole moment (field-independent basis, Debye-Ang):
   XX=            -58.8152   YY=            -68.8848   ZZ=            -69.3358
   XY=             -5.1364   XZ=              2.6466   YZ=              0.9915

 Normal termination of Gaussian 16 at Sun Dec  3 15:52:30 2023.
