 Gaussian 16, Revision B.01,
 Gaussian 16:  ES64L-G16RevB.01 20-Dec-2017

 -------------------------
 #P B3LYP/6-311+g(d) force
 -------------------------

 -----
 DPGEN
 -----
 Symbolic Z-matrix:
 Charge =  0 Multiplicity = 2

                         Standard orientation:
 ---------------------------------------------------------------------
 Center     Atomic      Atomic             Coordinates (Angstroms)
 Number     Number       Type             X           Y           Z
 ---------------------------------------------------------------------
      1         11           0        1.401181   -2.805918    1.155382
      2         11           0       -2.275532   -3.251433   -0.154053
      3         11           0        3.800326   -1.430242   -0.506331
      4         11           0        3.188374    2.333347   -0.821853
      5         11           0        0.615760    2.646129    0.810169
      6         11           0       -3.719586   -0.634676   -0.876155
      7         11           0       -3.010523    3.142794    0.392841
 ---------------------------------------------------------------------

 SCF Done:  E(UB3LYP) =  -1136.10712143     A.U. after   20 cycles

 The electronic state is 2-A.
 Alpha  occ. eigenvalues --  -38.44941 -38.44844 -38.44616 -38.44536 -38.44152
 Alpha  occ. eigenvalues --  -38.44145 -38.44121  -2.20719  -2.20628  -2.20405
 Alpha  occ. eigenvalues --   -2.20321  -2.19979  -2.19934  -2.19932  -1.14400
 Alpha  occ. eigenvalues --   -1.14389  -1.14355  -1.14325  -1.14297  -1.14265
 Alpha  occ. eigenvalues --   -1.14121  -1.14075  -1.14056  -1.13984  -1.13977
 Alpha  occ. eigenvalues --   -1.13949  -1.13630  -1.13615  -1.13596  -1.13591
 Alpha  occ. eigenvalues --   -1.13584  -1.13584  -1.13565  -1.13562  -1.13561
 Alpha  occ. eigenvalues --   -0.15631  -0.13856  -0.13338  -0.10916
 Alpha virt. eigenvalues --   -0.07335  -0.04827  -0.04366  -0.03707  -0.03531
 Alpha virt. eigenvalues --   -0.02384  -0.01808  -0.01763  -0.01445  -0.01106
 Alpha virt. eigenvalues --   -0.00658  -0.00161   0.00123   0.00397   0.00710

  Beta  occ. eigenvalues --  -38.44927 -38.44828 -38.44614 -38.44503 -38.44087
  Beta  occ. eigenvalues --  -38.44083 -38.44072  -2.20699  -2.20605  -2.20409
  Beta  occ. eigenvalues --   -2.20263  -2.19873  -2.19863  -2.19784  -1.14379
  Beta  occ. eigenvalues --   -1.14377  -1.14328  -1.14298  -1.14286  -1.14229
  Beta  occ. eigenvalues --   -1.14107  -1.14084  -1.14034  -1.13946  -1.13939
  Beta  occ. eigenvalues --   -1.13900  -1.13554  -1.13552  -1.13544  -1.13536
  Beta  occ. eigenvalues --   -1.13516  -1.13516  -1.13483  -1.13465  -1.13463
  Beta  occ. eigenvalues --   -0.15140  -0.13116  -0.12472
  Beta virt. eigenvalues --   -0.07827  -0.07504  -0.04421  -0.03906  -0.03528
  Beta virt. eigenvalues --   -0.03233  -0.02099  -0.01608  -0.01519  -0.01120
  Beta virt. eigenvalues --   -0.00852  -0.00461   0.00067   0.00227   0.00386

 Mulliken charges and spin densities:
               1          2
     1  Na  -0.014276   0.171110
     2  Na  -0.001504   0.100843
     3  Na  -0.143876   0.012742
     4  Na   0.865568   0.270742
     5  Na  -1.039209  -0.017729
     6  Na   0.076846   0.066926
     7  Na   0.256452   0.395366
 Sum of Mulliken charges =  -0.00000   1.00000

 Dipole moment (field-independent basis, Debye):
    X=              0.5576    Y=             -0.3472    Z=             -0.2951  Tot=              0.7201
 Quadrupole moment (field-independent basis, Debye-Ang):
   XX=            -61.0228   YY=            -71.0779   ZZ=            -69.0474
   XY=             -0.9983   XZ=             -2.4397   YZ=             -1.4373

 Normal termination of Gaussian 16 at Sun Dec  3 13:54:11 2023.
