 Gaussian 16, Revision B.01,
 Gaussian 16:  ES64L-G16RevB.01 20-Dec-2017

 -------------------------
 #P B3LYP/6-311+g(d) force
 -------------------------

 -----
 DPGEN
 -----
 Symbolic Z-matrix:
 Charge =  0 Multiplicity = 2

                         Standard orientation:
 ---------------------------------------------------------------------
 Center     Atomic      Atomic             Coordinates (Angstroms)
 Number     Number       Type             X           Y           Z
 ---------------------------------------------------------------------
      1         11           0       -1.317657   -1.609226   -1.643495
      2         11           0        1.416583   -1.786076    1.280915
      3         11           0       -3.243872    1.088190   -0.483255
      4         11           0       -1.609868   -0.452136    2.176281
      5         11           0        3.624254    0.940215   -0.164387
      6         11           0        1.016928   -0.445581   -1.456772
      7         11           0        0.113632    2.264613    0.290713
 ---------------------------------------------------------------------

 SCF Done:  E(UB3LYP) =  -1136.11703365     A.U. after   24 cycles

 The electronic state is 2-A.
 Alpha  occ. eigenvalues --  -38.44668 -38.44310 -38.44262 -38.44086 -38.43685
 Alpha  occ. eigenvalues --  -38.43576 -38.43455  -2.20518  -2.20125  -2.20075
 Alpha  occ. eigenvalues --   -2.19961  -2.19771  -2.19507  -2.19274  -1.14199
 Alpha  occ. eigenvalues --   -1.14150  -1.14130  -1.13864  -1.13796  -1.13782
 Alpha  occ. eigenvalues --   -1.13758  -1.13749  -1.13725  -1.13702  -1.13677
 Alpha  occ. eigenvalues --   -1.13625  -1.13561  -1.13390  -1.13355  -1.13083
 Alpha  occ. eigenvalues --   -1.13080  -1.13001  -1.12986  -1.12965  -1.12854
 Alpha  occ. eigenvalues --   -0.18618  -0.13523  -0.12098  -0.11343
 Alpha virt. eigenvalues --   -0.06349  -0.04982  -0.04171  -0.03559  -0.03039
 Alpha virt. eigenvalues --   -0.02770  -0.02083  -0.00934  -0.00498   0.00050
 Alpha virt. eigenvalues --    0.00199   0.00294   0.00406   0.00738   0.00874

  Beta  occ. eigenvalues --  -38.44587 -38.44304 -38.44263 -38.44037 -38.43649
  Beta  occ. eigenvalues --  -38.43531 -38.43450  -2.20371  -2.20114  -2.20076
  Beta  occ. eigenvalues --   -2.19874  -2.19707  -2.19429  -2.19267  -1.14092
  Beta  occ. eigenvalues --   -1.14057  -1.14017  -1.13818  -1.13785  -1.13769
  Beta  occ. eigenvalues --   -1.13749  -1.13738  -1.13721  -1.13699  -1.13628
  Beta  occ. eigenvalues --   -1.13541  -1.13505  -1.13345  -1.13304  -1.13033
  Beta  occ. eigenvalues --   -1.13009  -1.12986  -1.12949  -1.12946  -1.12852
  Beta  occ. eigenvalues --   -0.17898  -0.13373  -0.11124
  Beta virt. eigenvalues --   -0.07939  -0.06223  -0.04626  -0.03788  -0.03207
  Beta virt. eigenvalues --   -0.02303  -0.02130  -0.01998  -0.00714  -0.00241
  Beta virt. eigenvalues --    0.00142   0.00234   0.00320   0.00574   0.00840

 Mulliken charges and spin densities:
               1          2
     1  Na  -0.076380   0.179217
     2  Na  -0.326441   0.176595
     3  Na   0.159583   0.004009
     4  Na   0.008796   0.379423
     5  Na   1.148629  -0.069979
     6  Na  -0.412643   0.273198
     7  Na  -0.501544   0.057538
 Sum of Mulliken charges =  -0.00000   1.00000

 Dipole moment (field-independent basis, Debye):
    X=             -0.0036    Y=              0.0251    Z=              0.5979  Tot=              0.5984
 Quadrupole moment (field-independent basis, Debye-Ang):
   XX=            -51.2666   YY=            -75.6819   ZZ=            -68.1084
   XY=             -0.1167   XZ=              2.0336   YZ=             -3.5813

 Normal termination of Gaussian 16 at Thu Dec  7 22:07:38 2023.
