 Gaussian 16, Revision B.01,
 Gaussian 16:  ES64L-G16RevB.01 20-Dec-2017

 -------------------------
 #P B3LYP/6-311+g(d) force
 -------------------------

 -----
 DPGEN
 -----
 Symbolic Z-matrix:
 Charge =  0 Multiplicity = 2

                         Standard orientation:
 ---------------------------------------------------------------------
 Center     Atomic      Atomic             Coordinates (Angstroms)
 Number     Number       Type             X           Y           Z
 ---------------------------------------------------------------------
      1         11           0        2.635201    2.255209   -0.326004
      2         11           0        0.296296    0.059414    2.059107
      3         11           0       -3.274962   -0.901686    0.380619
      4         11           0       -0.261371   -2.668022   -0.811134
      5         11           0       -0.129893    0.329798   -1.574971
      6         11           0        2.807133   -1.567867    0.336794
      7         11           0       -2.072403    2.493153   -0.064410
 ---------------------------------------------------------------------

 SCF Done:  E(UB3LYP) =  -1136.12971537     A.U. after   19 cycles

 The electronic state is 2-A.
 Alpha  occ. eigenvalues --  -38.44568 -38.44273 -38.44189 -38.44105 -38.44030
 Alpha  occ. eigenvalues --  -38.43233 -38.42898  -2.20346  -2.20034  -2.20002
 Alpha  occ. eigenvalues --   -2.19902  -2.19873  -2.19184  -2.18770  -1.14022
 Alpha  occ. eigenvalues --   -1.13998  -1.13990  -1.13714  -1.13691  -1.13683
 Alpha  occ. eigenvalues --   -1.13680  -1.13659  -1.13636  -1.13601  -1.13563
 Alpha  occ. eigenvalues --   -1.13543  -1.13528  -1.13501  -1.13486  -1.12888
 Alpha  occ. eigenvalues --   -1.12851  -1.12792  -1.12465  -1.12407  -1.12388
 Alpha  occ. eigenvalues --   -0.18047  -0.13025  -0.11971  -0.10656
 Alpha virt. eigenvalues --   -0.06143  -0.05739  -0.04224  -0.03325  -0.02779
 Alpha virt. eigenvalues --   -0.02512  -0.01889  -0.01455  -0.00617  -0.00349
 Alpha virt. eigenvalues --   -0.00015   0.00317   0.00665   0.00709   0.00789

  Beta  occ. eigenvalues --  -38.44562 -38.44270 -38.44183 -38.44104 -38.43945
  Beta  occ. eigenvalues --  -38.43168 -38.42876  -2.20338  -2.20029  -2.19993
  Beta  occ. eigenvalues --   -2.19903  -2.19716  -2.19067  -2.18733  -1.14007
  Beta  occ. eigenvalues --   -1.13989  -1.13986  -1.13702  -1.13681  -1.13676
  Beta  occ. eigenvalues --   -1.13670  -1.13642  -1.13635  -1.13594  -1.13557
  Beta  occ. eigenvalues --   -1.13527  -1.13439  -1.13392  -1.13372  -1.12807
  Beta  occ. eigenvalues --   -1.12760  -1.12713  -1.12428  -1.12369  -1.12366
  Beta  occ. eigenvalues --   -0.17344  -0.12821  -0.11721
  Beta virt. eigenvalues --   -0.06836  -0.06124  -0.05582  -0.04172  -0.02610
  Beta virt. eigenvalues --   -0.02115  -0.01791  -0.01513  -0.01345  -0.00669
  Beta virt. eigenvalues --   -0.00297   0.00102   0.00350   0.00692   0.00778

 Mulliken charges and spin densities:
               1          2
     1  Na  -0.116521  -0.070839
     2  Na  -0.244274   0.621474
     3  Na  -0.045948   0.085122
     4  Na   0.063484   0.058957
     5  Na   0.272673   0.289385
     6  Na   0.095573   0.062012
     7  Na  -0.024988  -0.046110
 Sum of Mulliken charges =  -0.00000   1.00000

 Dipole moment (field-independent basis, Debye):
    X=             -0.0685    Y=              0.2836    Z=              0.3582  Tot=              0.4620
 Quadrupole moment (field-independent basis, Debye-Ang):
   XX=            -52.9931   YY=            -64.3315   ZZ=            -75.1656
   XY=              0.1282   XZ=             -1.1937   YZ=             -0.0031

 Normal termination of Gaussian 16 at Fri Dec  8 06:55:32 2023.
