 Gaussian 16, Revision B.01,
 Gaussian 16:  ES64L-G16RevB.01 20-Dec-2017

 -------------------------
 #P B3LYP/6-311+g(d) force
 -------------------------

 -----
 DPGEN
 -----
 Symbolic Z-matrix:
 Charge =  0 Multiplicity = 2

                         Standard orientation:
 ---------------------------------------------------------------------
 Center     Atomic      Atomic             Coordinates (Angstroms)
 Number     Number       Type             X           Y           Z
 ---------------------------------------------------------------------
      1         11           0        3.617662   -1.006165   -1.338112
      2         11           0       -1.013491    1.291481    1.652157
      3         11           0        2.652241   -0.226878    1.907413
      4         11           0       -2.579378    0.988877   -1.241210
      5         11           0       -3.621585   -1.609837    0.219302
      6         11           0        1.056482    1.997660   -0.928809
      7         11           0       -0.111932   -1.435139   -0.270741
 ---------------------------------------------------------------------

 SCF Done:  E(UB3LYP) =  -1136.12547020     A.U. after   22 cycles

 The electronic state is 2-A.
 Alpha  occ. eigenvalues --  -38.44621 -38.44589 -38.44340 -38.44033 -38.43463
 Alpha  occ. eigenvalues --  -38.43370 -38.43104  -2.20436  -2.20432  -2.20235
 Alpha  occ. eigenvalues --   -2.19830  -2.19298  -2.19258  -2.18954  -1.14159
 Alpha  occ. eigenvalues --   -1.14130  -1.14112  -1.14080  -1.14056  -1.14023
 Alpha  occ. eigenvalues --   -1.13928  -1.13904  -1.13839  -1.13496  -1.13485
 Alpha  occ. eigenvalues --   -1.13455  -1.12976  -1.12952  -1.12950  -1.12936
 Alpha  occ. eigenvalues --   -1.12903  -1.12886  -1.12646  -1.12612  -1.12560
 Alpha  occ. eigenvalues --   -0.18193  -0.14153  -0.10998  -0.10908
 Alpha virt. eigenvalues --   -0.06541  -0.05411  -0.05105  -0.02970  -0.02597
 Alpha virt. eigenvalues --   -0.02547  -0.02177  -0.01085  -0.01063  -0.00298
 Alpha virt. eigenvalues --    0.00113   0.00261   0.00334   0.00355   0.00594

  Beta  occ. eigenvalues --  -38.44576 -38.44575 -38.44318 -38.44003 -38.43464
  Beta  occ. eigenvalues --  -38.43342 -38.43074  -2.20414  -2.20353  -2.20194
  Beta  occ. eigenvalues --   -2.19775  -2.19301  -2.19209  -2.18900  -1.14123
  Beta  occ. eigenvalues --   -1.14103  -1.14053  -1.14033  -1.14010  -1.13985
  Beta  occ. eigenvalues --   -1.13895  -1.13878  -1.13810  -1.13458  -1.13438
  Beta  occ. eigenvalues --   -1.13422  -1.12976  -1.12951  -1.12937  -1.12920
  Beta  occ. eigenvalues --   -1.12859  -1.12840  -1.12607  -1.12563  -1.12522
  Beta  occ. eigenvalues --   -0.17571  -0.13905  -0.10833
  Beta virt. eigenvalues --   -0.07188  -0.06383  -0.04983  -0.04686  -0.02778
  Beta virt. eigenvalues --   -0.02483  -0.02022  -0.01552  -0.00945  -0.00540
  Beta virt. eigenvalues --   -0.00191   0.00152   0.00348   0.00430   0.00490

 Mulliken charges and spin densities:
               1          2
     1  Na   0.459357   0.081592
     2  Na  -0.001636   0.252120
     3  Na   0.155755   0.109530
     4  Na   0.457760  -0.012275
     5  Na   0.280409  -0.010464
     6  Na  -0.271908   0.307581
     7  Na  -1.079737   0.271915
 Sum of Mulliken charges =  -0.00000   1.00000

 Dipole moment (field-independent basis, Debye):
    X=              0.1002    Y=              0.3816    Z=              0.2204  Tot=              0.4519
 Quadrupole moment (field-independent basis, Debye-Ang):
   XX=            -54.2026   YY=            -75.5392   ZZ=            -66.5867
   XY=             -0.9382   XZ=             -0.0070   YZ=             -0.9808

 Normal termination of Gaussian 16 at Thu Dec  7 05:37:02 2023.
