 Gaussian 16, Revision B.01,
 Gaussian 16:  ES64L-G16RevB.01 20-Dec-2017

 -------------------------
 #P B3LYP/6-311+g(d) force
 -------------------------

 -----
 DPGEN
 -----
 Symbolic Z-matrix:
 Charge =  0 Multiplicity = 2

                         Standard orientation:
 ---------------------------------------------------------------------
 Center     Atomic      Atomic             Coordinates (Angstroms)
 Number     Number       Type             X           Y           Z
 ---------------------------------------------------------------------
      1         11           0        2.258950    0.379521   -1.644873
      2         11           0        2.000371    2.906800    0.211730
      3         11           0       -1.358001   -2.121402   -1.418316
      4         11           0        2.737062   -2.102333    0.442669
      5         11           0       -0.648035   -1.489860    2.165829
      6         11           0       -1.221865    1.721110    0.971323
      7         11           0       -3.768482    0.706164   -0.728362
 ---------------------------------------------------------------------

 SCF Done:  E(UB3LYP) =  -1136.11865229     A.U. after   21 cycles

 The electronic state is 2-A.
 Alpha  occ. eigenvalues --  -38.44991 -38.44721 -38.44688 -38.44274 -38.43944
 Alpha  occ. eigenvalues --  -38.43535 -38.43442  -2.20747  -2.20511  -2.20455
 Alpha  occ. eigenvalues --   -2.20092  -2.19787  -2.19344  -2.19287  -1.14433
 Alpha  occ. eigenvalues --   -1.14408  -1.14359  -1.14189  -1.14167  -1.14141
 Alpha  occ. eigenvalues --   -1.14137  -1.14124  -1.14087  -1.13759  -1.13727
 Alpha  occ. eigenvalues --   -1.13701  -1.13461  -1.13446  -1.13428  -1.13012
 Alpha  occ. eigenvalues --   -1.13007  -1.12993  -1.12974  -1.12953  -1.12904
 Alpha  occ. eigenvalues --   -0.17101  -0.13297  -0.12015  -0.11074
 Alpha virt. eigenvalues --   -0.06734  -0.05115  -0.04844  -0.03432  -0.03262
 Alpha virt. eigenvalues --   -0.02737  -0.01933  -0.01055  -0.00631  -0.00317
 Alpha virt. eigenvalues --   -0.00160  -0.00003   0.00328   0.00374   0.00605

  Beta  occ. eigenvalues --  -38.44954 -38.44700 -38.44690 -38.44188 -38.43918
  Beta  occ. eigenvalues --  -38.43541 -38.43418  -2.20680  -2.20473  -2.20461
  Beta  occ. eigenvalues --   -2.19933  -2.19738  -2.19356  -2.19245  -1.14383
  Beta  occ. eigenvalues --   -1.14362  -1.14305  -1.14165  -1.14141  -1.14136
  Beta  occ. eigenvalues --   -1.14120  -1.14107  -1.14090  -1.13646  -1.13619
  Beta  occ. eigenvalues --   -1.13590  -1.13429  -1.13413  -1.13397  -1.13017
  Beta  occ. eigenvalues --   -1.13007  -1.13000  -1.12933  -1.12917  -1.12883
  Beta  occ. eigenvalues --   -0.16471  -0.13005  -0.11862
  Beta virt. eigenvalues --   -0.07429  -0.06621  -0.04718  -0.04410  -0.03100
  Beta virt. eigenvalues --   -0.02816  -0.02001  -0.01794  -0.00970  -0.00540
  Beta virt. eigenvalues --   -0.00083  -0.00029   0.00098   0.00381   0.00584

 Mulliken charges and spin densities:
               1          2
     1  Na   0.183278   0.195287
     2  Na   0.211929  -0.121872
     3  Na  -0.331371   0.374871
     4  Na  -0.132622  -0.046010
     5  Na   0.379384   0.341016
     6  Na  -0.614885   0.314136
     7  Na   0.304286  -0.057428
 Sum of Mulliken charges =  -0.00000   1.00000

 Dipole moment (field-independent basis, Debye):
    X=             -0.2325    Y=             -0.6379    Z=             -0.1832  Tot=              0.7033
 Quadrupole moment (field-independent basis, Debye-Ang):
   XX=            -58.9905   YY=            -68.6774   ZZ=            -69.4627
   XY=             -1.8828   XZ=              2.6019   YZ=              0.5339

 Normal termination of Gaussian 16 at Sun Dec  3 23:22:15 2023.
