 Gaussian 16, Revision B.01,
 Gaussian 16:  ES64L-G16RevB.01 20-Dec-2017

 -------------------------
 #P B3LYP/6-311+g(d) force
 -------------------------

 -----
 DPGEN
 -----
 Symbolic Z-matrix:
 Charge =  0 Multiplicity = 2

                         Standard orientation:
 ---------------------------------------------------------------------
 Center     Atomic      Atomic             Coordinates (Angstroms)
 Number     Number       Type             X           Y           Z
 ---------------------------------------------------------------------
      1         11           0       -3.636863    0.623952    0.130261
      2         11           0        4.195252    0.926887   -0.571408
      3         11           0       -2.470234    3.252786   -0.044961
      4         11           0        1.287452    3.262737    0.154494
      5         11           0        0.386097   -3.257555   -0.429749
      6         11           0        3.317830   -1.771967    0.792755
      7         11           0       -3.079533   -3.036840   -0.031392
 ---------------------------------------------------------------------

 SCF Done:  E(UB3LYP) =  -1136.10674433     A.U. after   23 cycles

 The electronic state is 2-A.
 Alpha  occ. eigenvalues --  -38.45208 -38.45190 -38.45049 -38.45038 -38.44006
 Alpha  occ. eigenvalues --  -38.43872 -38.43661  -2.20968  -2.20964  -2.20880
 Alpha  occ. eigenvalues --   -2.20795  -2.19839  -2.19722  -2.19460  -1.14661
 Alpha  occ. eigenvalues --   -1.14655  -1.14646  -1.14640  -1.14610  -1.14609
 Alpha  occ. eigenvalues --   -1.14592  -1.14533  -1.14508  -1.14467  -1.14454
 Alpha  occ. eigenvalues --   -1.14400  -1.13494  -1.13482  -1.13477  -1.13416
 Alpha  occ. eigenvalues --   -1.13356  -1.13337  -1.13113  -1.13107  -1.13094
 Alpha  occ. eigenvalues --   -0.15718  -0.14226  -0.13421  -0.10662
 Alpha virt. eigenvalues --   -0.07815  -0.04795  -0.04417  -0.03473  -0.03297
 Alpha virt. eigenvalues --   -0.02700  -0.02264  -0.02162  -0.01491  -0.00370
 Alpha virt. eigenvalues --   -0.00248  -0.00011   0.00227   0.00353   0.00460

  Beta  occ. eigenvalues --  -38.45201 -38.45196 -38.45015 -38.44977 -38.43959
  Beta  occ. eigenvalues --  -38.43846 -38.43611  -2.20983  -2.20957  -2.20823
  Beta  occ. eigenvalues --   -2.20683  -2.19751  -2.19678  -2.19366  -1.14672
  Beta  occ. eigenvalues --   -1.14654  -1.14653  -1.14646  -1.14592  -1.14549
  Beta  occ. eigenvalues --   -1.14549  -1.14499  -1.14457  -1.14391  -1.14379
  Beta  occ. eigenvalues --   -1.14318  -1.13442  -1.13422  -1.13412  -1.13371
  Beta  occ. eigenvalues --   -1.13329  -1.13305  -1.13050  -1.13044  -1.13033
  Beta  occ. eigenvalues --   -0.15200  -0.13636  -0.12689
  Beta virt. eigenvalues --   -0.07874  -0.07430  -0.04460  -0.04078  -0.03119
  Beta virt. eigenvalues --   -0.02823  -0.02494  -0.02046  -0.01996  -0.01367
  Beta virt. eigenvalues --   -0.00166   0.00035   0.00197   0.00368   0.00388

 Mulliken charges and spin densities:
               1          2
     1  Na  -0.288495   0.275648
     2  Na   0.139674  -0.048729
     3  Na   0.433597  -0.054351
     4  Na  -0.159621   0.305656
     5  Na  -0.347108   0.040553
     6  Na  -0.211030   0.208682
     7  Na   0.432985   0.272542
 Sum of Mulliken charges =  -0.00000   1.00000

 Dipole moment (field-independent basis, Debye):
    X=              0.6207    Y=              0.1914    Z=             -0.1187  Tot=              0.6603
 Quadrupole moment (field-independent basis, Debye-Ang):
   XX=            -60.9065   YY=            -68.3911   ZZ=            -71.9588
   XY=              0.9866   XZ=             -1.8801   YZ=             -0.0683

 Normal termination of Gaussian 16 at Sun Dec  3 16:27:26 2023.
