 Gaussian 16, Revision B.01,
 Gaussian 16:  ES64L-G16RevB.01 20-Dec-2017

 -------------------------
 #P B3LYP/6-311+g(d) force
 -------------------------

 -----
 DPGEN
 -----
 Symbolic Z-matrix:
 Charge =  0 Multiplicity = 2

                         Standard orientation:
 ---------------------------------------------------------------------
 Center     Atomic      Atomic             Coordinates (Angstroms)
 Number     Number       Type             X           Y           Z
 ---------------------------------------------------------------------
      1         11           0       -3.112859   -0.861092    0.001907
      2         11           0       -0.161547   -2.720897    0.298079
      3         11           0        3.215926   -0.842890    0.046949
      4         11           0       -0.895908    0.626258    1.697686
      5         11           0        1.967559    2.315319    0.395997
      6         11           0        0.751608   -0.709787   -1.455350
      7         11           0       -1.764779    2.193089   -0.985268
 ---------------------------------------------------------------------

 SCF Done:  E(UB3LYP) =  -1136.12631255     A.U. after   20 cycles

 The electronic state is 2-A.
 Alpha  occ. eigenvalues --  -38.44631 -38.44446 -38.43676 -38.43544 -38.43507
 Alpha  occ. eigenvalues --  -38.43472 -38.43263  -2.20495  -2.20301  -2.19497
 Alpha  occ. eigenvalues --   -2.19489  -2.19401  -2.19399  -2.19202  -1.14256
 Alpha  occ. eigenvalues --   -1.14134  -1.14108  -1.13999  -1.13953  -1.13936
 Alpha  occ. eigenvalues --   -1.13401  -1.13172  -1.13160  -1.13137  -1.13128
 Alpha  occ. eigenvalues --   -1.13103  -1.13087  -1.13052  -1.13036  -1.13026
 Alpha  occ. eigenvalues --   -1.12999  -1.12945  -1.12869  -1.12844  -1.12814
 Alpha  occ. eigenvalues --   -0.18633  -0.13667  -0.12401  -0.10281
 Alpha virt. eigenvalues --   -0.06119  -0.05388  -0.04509  -0.03449  -0.02852
 Alpha virt. eigenvalues --   -0.01957  -0.01801  -0.01098  -0.00387  -0.00374
 Alpha virt. eigenvalues --   -0.00001   0.00336   0.00752   0.00833   0.00860

  Beta  occ. eigenvalues --  -38.44630 -38.44439 -38.43665 -38.43505 -38.43500
  Beta  occ. eigenvalues --  -38.43426 -38.43205  -2.20495  -2.20294  -2.19478
  Beta  occ. eigenvalues --   -2.19418  -2.19377  -2.19328  -2.19096  -1.14249
  Beta  occ. eigenvalues --   -1.14126  -1.14109  -1.13990  -1.13941  -1.13916
  Beta  occ. eigenvalues --   -1.13365  -1.13154  -1.13133  -1.13127  -1.13074
  Beta  occ. eigenvalues --   -1.13051  -1.13038  -1.13009  -1.12992  -1.12986
  Beta  occ. eigenvalues --   -1.12974  -1.12907  -1.12799  -1.12768  -1.12732
  Beta  occ. eigenvalues --   -0.17998  -0.13421  -0.12144
  Beta virt. eigenvalues --   -0.06544  -0.06021  -0.05319  -0.04348  -0.02777
  Beta virt. eigenvalues --   -0.02150  -0.01752  -0.01093  -0.00998  -0.00395
  Beta virt. eigenvalues --   -0.00318   0.00166   0.00401   0.00831   0.00854

 Mulliken charges and spin densities:
               1          2
     1  Na   0.436699   0.080955
     2  Na  -0.218604  -0.110296
     3  Na   0.051784  -0.075555
     4  Na  -0.213004   0.497570
     5  Na  -0.081881  -0.006257
     6  Na   0.267496   0.410312
     7  Na  -0.242489   0.203271
 Sum of Mulliken charges =  -0.00000   1.00000

 Dipole moment (field-independent basis, Debye):
    X=              0.1278    Y=             -0.1443    Z=              0.1530  Tot=              0.2461
 Quadrupole moment (field-independent basis, Debye-Ang):
   XX=            -52.7493   YY=            -65.5375   ZZ=            -75.2640
   XY=              0.9090   XZ=              2.2507   YZ=             -2.0702

 Normal termination of Gaussian 16 at Wed Nov 29 00:06:16 2023.
