 Gaussian 16, Revision B.01,
 Gaussian 16:  ES64L-G16RevB.01 20-Dec-2017

 -------------------------
 #P B3LYP/6-311+g(d) force
 -------------------------

 -----
 DPGEN
 -----
 Symbolic Z-matrix:
 Charge =  0 Multiplicity = 2

                         Standard orientation:
 ---------------------------------------------------------------------
 Center     Atomic      Atomic             Coordinates (Angstroms)
 Number     Number       Type             X           Y           Z
 ---------------------------------------------------------------------
      1         11           0        4.117050   -0.636652   -0.575756
      2         11           0        1.225227    1.600497   -1.323451
      3         11           0       -0.234415   -1.346874   -0.749130
      4         11           0        2.081122   -0.860434    1.454525
      5         11           0       -4.020331   -1.658333   -0.068006
      6         11           0       -2.859444    1.425236   -0.355282
      7         11           0       -0.309210    1.476560    1.617101
 ---------------------------------------------------------------------

 SCF Done:  E(UB3LYP) =  -1136.11277152     A.U. after   47 cycles

 The electronic state is 2-A.
 Alpha  occ. eigenvalues --  -38.45797 -38.45047 -38.44796 -38.43763 -38.43630
 Alpha  occ. eigenvalues --  -38.43366 -38.42779  -2.21631  -2.20885  -2.20638
 Alpha  occ. eigenvalues --   -2.19737  -2.19520  -2.19153  -2.18708  -1.15359
 Alpha  occ. eigenvalues --   -1.15308  -1.15222  -1.14635  -1.14523  -1.14501
 Alpha  occ. eigenvalues --   -1.14348  -1.14300  -1.14246  -1.13427  -1.13371
 Alpha  occ. eigenvalues --   -1.13345  -1.13229  -1.13173  -1.13102  -1.12831
 Alpha  occ. eigenvalues --   -1.12819  -1.12793  -1.12391  -1.12364  -1.12324
 Alpha  occ. eigenvalues --   -0.18634  -0.14187  -0.11153  -0.11009
 Alpha virt. eigenvalues --   -0.07609  -0.05476  -0.04121  -0.03280  -0.03026
 Alpha virt. eigenvalues --   -0.02429  -0.02215  -0.01485  -0.00942  -0.00260
 Alpha virt. eigenvalues --   -0.00110   0.00167   0.00367   0.00580   0.00646

  Beta  occ. eigenvalues --  -38.45777 -38.45037 -38.44793 -38.43703 -38.43568
  Beta  occ. eigenvalues --  -38.43376 -38.42742  -2.21599  -2.20868  -2.20633
  Beta  occ. eigenvalues --   -2.19630  -2.19406  -2.19172  -2.18642  -1.15299
  Beta  occ. eigenvalues --   -1.15289  -1.15205  -1.14622  -1.14510  -1.14478
  Beta  occ. eigenvalues --   -1.14340  -1.14296  -1.14248  -1.13349  -1.13293
  Beta  occ. eigenvalues --   -1.13263  -1.13151  -1.13093  -1.13016  -1.12845
  Beta  occ. eigenvalues --   -1.12830  -1.12804  -1.12344  -1.12322  -1.12256
  Beta  occ. eigenvalues --   -0.17893  -0.14082  -0.11054
  Beta virt. eigenvalues --   -0.07423  -0.06933  -0.05274  -0.03671  -0.03136
  Beta virt. eigenvalues --   -0.02859  -0.01814  -0.01636  -0.01156  -0.00521
  Beta virt. eigenvalues --   -0.00231  -0.00048   0.00209   0.00491   0.00678

 Mulliken charges and spin densities:
               1          2
     1  Na   0.175513   0.154486
     2  Na  -0.399642   0.365927
     3  Na  -0.457390   0.401540
     4  Na   0.265702  -0.083068
     5  Na   0.033437  -0.147369
     6  Na   0.230942   0.086515
     7  Na   0.151439   0.221969
 Sum of Mulliken charges =  -0.00000   1.00000

 Dipole moment (field-independent basis, Debye):
    X=              0.5459    Y=              0.5816    Z=             -0.1020  Tot=              0.8041
 Quadrupole moment (field-independent basis, Debye-Ang):
   XX=            -55.5064   YY=            -71.6317   ZZ=            -71.6328
   XY=             -3.2166   XZ=             -2.2358   YZ=              0.0851

 Normal termination of Gaussian 16 at Tue Dec  5 18:35:33 2023.
