 Gaussian 16, Revision B.01,
 Gaussian 16:  ES64L-G16RevB.01 20-Dec-2017

 -------------------------
 #P B3LYP/6-311+g(d) force
 -------------------------

 -----
 DPGEN
 -----
 Symbolic Z-matrix:
 Charge =  0 Multiplicity = 2

                         Standard orientation:
 ---------------------------------------------------------------------
 Center     Atomic      Atomic             Coordinates (Angstroms)
 Number     Number       Type             X           Y           Z
 ---------------------------------------------------------------------
      1         11           0       -3.100307   -1.025211   -0.262884
      2         11           0       -1.928939    2.228624    0.463909
      3         11           0        1.835376    2.236374   -0.157612
      4         11           0       -0.174338    0.207068   -1.797650
      5         11           0        0.521816   -0.074590    1.792748
      6         11           0        0.101758   -2.609056    0.292890
      7         11           0        2.744634   -0.963210   -0.331402
 ---------------------------------------------------------------------

 SCF Done:  E(UB3LYP) =  -1136.13552290     A.U. after   19 cycles

 The electronic state is 2-A.
 Alpha  occ. eigenvalues --  -38.44053 -38.43743 -38.43733 -38.43373 -38.43362
 Alpha  occ. eigenvalues --  -38.43334 -38.42986  -2.19862  -2.19668  -2.19570
 Alpha  occ. eigenvalues --   -2.19384  -2.19323  -2.19225  -2.18921  -1.13538
 Alpha  occ. eigenvalues --   -1.13515  -1.13510  -1.13378  -1.13333  -1.13312
 Alpha  occ. eigenvalues --   -1.13249  -1.13240  -1.13196  -1.13108  -1.13049
 Alpha  occ. eigenvalues --   -1.13007  -1.12984  -1.12974  -1.12943  -1.12882
 Alpha  occ. eigenvalues --   -1.12871  -1.12844  -1.12608  -1.12571  -1.12524
 Alpha  occ. eigenvalues --   -0.19131  -0.13225  -0.12439  -0.10940
 Alpha virt. eigenvalues --   -0.05569  -0.05248  -0.04321  -0.03322  -0.02912
 Alpha virt. eigenvalues --   -0.02517  -0.01507  -0.01039  -0.00228  -0.00065
 Alpha virt. eigenvalues --    0.00038   0.00357   0.00818   0.00888   0.00939

  Beta  occ. eigenvalues --  -38.44051 -38.43733 -38.43722 -38.43326 -38.43292
  Beta  occ. eigenvalues --  -38.43288 -38.42975  -2.19861  -2.19652  -2.19555
  Beta  occ. eigenvalues --   -2.19237  -2.19215  -2.19188  -2.18906  -1.13523
  Beta  occ. eigenvalues --   -1.13515  -1.13512  -1.13367  -1.13318  -1.13273
  Beta  occ. eigenvalues --   -1.13233  -1.13218  -1.13187  -1.13013  -1.12975
  Beta  occ. eigenvalues --   -1.12923  -1.12896  -1.12879  -1.12858  -1.12844
  Beta  occ. eigenvalues --   -1.12829  -1.12812  -1.12588  -1.12541  -1.12507
  Beta  occ. eigenvalues --   -0.18383  -0.12992  -0.12153
  Beta virt. eigenvalues --   -0.07001  -0.05508  -0.05218  -0.04310  -0.02562
  Beta virt. eigenvalues --   -0.02121  -0.01507  -0.01377  -0.00970  -0.00243
  Beta virt. eigenvalues --   -0.00080   0.00131   0.00383   0.00875   0.00891

 Mulliken charges and spin densities:
               1          2
     1  Na  -0.031972  -0.067941
     2  Na  -0.069484  -0.055020
     3  Na   0.141975  -0.062388
     4  Na  -0.346132   0.592731
     5  Na  -0.241009   0.577460
     6  Na   0.224718  -0.022839
     7  Na   0.321903   0.037997
 Sum of Mulliken charges =  -0.00000   1.00000

 Dipole moment (field-independent basis, Debye):
    X=             -0.2561    Y=              0.1744    Z=             -0.0943  Tot=              0.3238
 Quadrupole moment (field-independent basis, Debye-Ang):
   XX=            -55.7195   YY=            -64.6822   ZZ=            -73.2579
   XY=              0.3222   XZ=             -1.3550   YZ=              1.0519

 Normal termination of Gaussian 16 at Thu Dec  7 07:33:04 2023.
