 Gaussian 16, Revision B.01,
 Gaussian 16:  ES64L-G16RevB.01 20-Dec-2017

 -------------------------
 #P B3LYP/6-311+g(d) force
 -------------------------

 -----
 DPGEN
 -----
 Symbolic Z-matrix:
 Charge =  0 Multiplicity = 2

                         Standard orientation:
 ---------------------------------------------------------------------
 Center     Atomic      Atomic             Coordinates (Angstroms)
 Number     Number       Type             X           Y           Z
 ---------------------------------------------------------------------
      1         11           0       -2.328292   -1.814461    0.060577
      2         11           0       -3.644329    1.187259    0.299182
      3         11           0       -0.200446    1.940111   -1.060640
      4         11           0        0.118722   -0.247482    1.949371
      5         11           0        2.637722    1.843459    0.048405
      6         11           0        0.028173   -1.641092   -1.504078
      7         11           0        3.388449   -1.267795    0.207181
 ---------------------------------------------------------------------

 SCF Done:  E(UB3LYP) =  -1136.11516295     A.U. after   24 cycles

 The electronic state is 2-A.
 Alpha  occ. eigenvalues --  -38.45143 -38.45078 -38.45072 -38.43931 -38.43899
 Alpha  occ. eigenvalues --  -38.43165 -38.43001  -2.20941  -2.20897  -2.20858
 Alpha  occ. eigenvalues --   -2.19818  -2.19804  -2.19089  -2.18879  -1.14623
 Alpha  occ. eigenvalues --   -1.14601  -1.14589  -1.14574  -1.14545  -1.14537
 Alpha  occ. eigenvalues --   -1.14515  -1.14507  -1.14488  -1.13613  -1.13513
 Alpha  occ. eigenvalues --   -1.13463  -1.13458  -1.13444  -1.13432  -1.12757
 Alpha  occ. eigenvalues --   -1.12718  -1.12681  -1.12560  -1.12523  -1.12504
 Alpha  occ. eigenvalues --   -0.18350  -0.14057  -0.11515  -0.10762
 Alpha virt. eigenvalues --   -0.07343  -0.05658  -0.03754  -0.03384  -0.03160
 Alpha virt. eigenvalues --   -0.02509  -0.02325  -0.01422  -0.00492  -0.00343
 Alpha virt. eigenvalues --    0.00046   0.00160   0.00382   0.00566   0.00700

  Beta  occ. eigenvalues --  -38.45135 -38.45067 -38.45017 -38.43928 -38.43890
  Beta  occ. eigenvalues --  -38.43099 -38.42960  -2.20928  -2.20839  -2.20795
  Beta  occ. eigenvalues --   -2.19808  -2.19803  -2.18969  -2.18805  -1.14618
  Beta  occ. eigenvalues --   -1.14575  -1.14567  -1.14527  -1.14513  -1.14491
  Beta  occ. eigenvalues --   -1.14479  -1.14477  -1.14429  -1.13582  -1.13503
  Beta  occ. eigenvalues --   -1.13460  -1.13445  -1.13427  -1.13426  -1.12683
  Beta  occ. eigenvalues --   -1.12633  -1.12591  -1.12514  -1.12467  -1.12442
  Beta  occ. eigenvalues --   -0.17683  -0.13767  -0.11273
  Beta virt. eigenvalues --   -0.07282  -0.06889  -0.05622  -0.03210  -0.03060
  Beta virt. eigenvalues --   -0.02845  -0.02026  -0.01445  -0.01424  -0.00500
  Beta virt. eigenvalues --   -0.00086   0.00103   0.00161   0.00533   0.00677

 Mulliken charges and spin densities:
               1          2
     1  Na   0.678026   0.196382
     2  Na  -0.090865   0.053025
     3  Na  -0.236844   0.187208
     4  Na  -0.271342   0.289251
     5  Na   0.144451  -0.011145
     6  Na  -0.463486   0.130031
     7  Na   0.240060   0.155248
 Sum of Mulliken charges =  -0.00000   1.00000

 Dipole moment (field-independent basis, Debye):
    X=              0.1870    Y=             -0.1614    Z=              0.4538  Tot=              0.5167
 Quadrupole moment (field-independent basis, Debye-Ang):
   XX=            -47.8108   YY=            -74.5364   ZZ=            -72.8525
   XY=             -2.0397   XZ=             -0.6292   YZ=              0.4351

 Normal termination of Gaussian 16 at Fri Dec  8 04:09:15 2023.
