 Gaussian 16, Revision B.01,
 Gaussian 16:  ES64L-G16RevB.01 20-Dec-2017

 -------------------------
 #P B3LYP/6-311+g(d) force
 -------------------------

 -----
 DPGEN
 -----
 Symbolic Z-matrix:
 Charge =  0 Multiplicity = 2

                         Standard orientation:
 ---------------------------------------------------------------------
 Center     Atomic      Atomic             Coordinates (Angstroms)
 Number     Number       Type             X           Y           Z
 ---------------------------------------------------------------------
      1         11           0        0.017147   -0.004840    2.285295
      2         11           0        2.915500    0.943626   -0.098861
      3         11           0        2.107257   -1.901974   -0.067025
      4         11           0       -1.345731   -2.491684   -0.360852
      5         11           0       -3.173173    0.208500    0.082080
      6         11           0       -0.473089    3.008395   -0.180965
      7         11           0       -0.047910    0.237976   -1.659672
 ---------------------------------------------------------------------

 SCF Done:  E(UB3LYP) =  -1136.13472324     A.U. after   19 cycles

 The electronic state is 2-A.
 Alpha  occ. eigenvalues --  -38.44335 -38.44141 -38.44088 -38.43367 -38.43327
 Alpha  occ. eigenvalues --  -38.43261 -38.43141  -2.20153  -2.19985  -2.19958
 Alpha  occ. eigenvalues --   -2.19275  -2.19249  -2.19148  -2.19015  -1.13827
 Alpha  occ. eigenvalues --   -1.13821  -1.13788  -1.13696  -1.13637  -1.13614
 Alpha  occ. eigenvalues --   -1.13609  -1.13603  -1.13582  -1.12976  -1.12961
 Alpha  occ. eigenvalues --   -1.12935  -1.12918  -1.12906  -1.12872  -1.12808
 Alpha  occ. eigenvalues --   -1.12790  -1.12772  -1.12690  -1.12666  -1.12651
 Alpha  occ. eigenvalues --   -0.18677  -0.13186  -0.12219  -0.11093
 Alpha virt. eigenvalues --   -0.05878  -0.04801  -0.04587  -0.03398  -0.02971
 Alpha virt. eigenvalues --   -0.02860  -0.01582  -0.00957  -0.00343  -0.00163
 Alpha virt. eigenvalues --   -0.00048   0.00371   0.00817   0.00884   0.00914

  Beta  occ. eigenvalues --  -38.44334 -38.44085 -38.44034 -38.43361 -38.43325
  Beta  occ. eigenvalues --  -38.43201 -38.43133  -2.20153  -2.19955  -2.19786
  Beta  occ. eigenvalues --   -2.19269  -2.19148  -2.19139  -2.19004  -1.13827
  Beta  occ. eigenvalues --   -1.13804  -1.13792  -1.13697  -1.13589  -1.13582
  Beta  occ. eigenvalues --   -1.13504  -1.13470  -1.13462  -1.12956  -1.12927
  Beta  occ. eigenvalues --   -1.12912  -1.12886  -1.12852  -1.12802  -1.12790
  Beta  occ. eigenvalues --   -1.12772  -1.12754  -1.12673  -1.12648  -1.12639
  Beta  occ. eigenvalues --   -0.17931  -0.12986  -0.11990
  Beta virt. eigenvalues --   -0.07101  -0.05831  -0.04807  -0.04539  -0.02586
  Beta virt. eigenvalues --   -0.02103  -0.01852  -0.01485  -0.00888  -0.00398
  Beta virt. eigenvalues --   -0.00208   0.00110   0.00395   0.00857   0.00900

 Mulliken charges and spin densities:
               1          2
     1  Na  -0.675034   0.723256
     2  Na   0.241412  -0.025223
     3  Na   0.230030   0.079942
     4  Na   0.215922   0.034471
     5  Na   0.101911  -0.006216
     6  Na   0.079206  -0.066688
     7  Na  -0.193447   0.260457
 Sum of Mulliken charges =  -0.00000   1.00000

 Dipole moment (field-independent basis, Debye):
    X=             -0.2106    Y=              0.2207    Z=              0.2974  Tot=              0.4260
 Quadrupole moment (field-independent basis, Debye-Ang):
   XX=            -56.9488   YY=            -65.1026   ZZ=            -72.8086
   XY=              0.1421   XZ=             -0.3957   YZ=              0.7294

 Normal termination of Gaussian 16 at Fri Dec  8 00:09:48 2023.
