 Gaussian 16, Revision B.01,
 Gaussian 16:  ES64L-G16RevB.01 20-Dec-2017

 -------------------------
 #P B3LYP/6-311+g(d) force
 -------------------------

 -----
 DPGEN
 -----
 Symbolic Z-matrix:
 Charge =  0 Multiplicity = 2

                         Standard orientation:
 ---------------------------------------------------------------------
 Center     Atomic      Atomic             Coordinates (Angstroms)
 Number     Number       Type             X           Y           Z
 ---------------------------------------------------------------------
      1         11           0       -3.985577   -1.200852    0.198309
      2         11           0       -0.290109   -0.114326    2.101471
      3         11           0        2.300692   -2.522984    0.103890
      4         11           0        0.278874   -0.792495   -1.560113
      5         11           0        0.593527    2.879177    0.206914
      6         11           0       -2.411019    1.123534   -0.871654
      7         11           0        3.513611    0.627945   -0.178817
 ---------------------------------------------------------------------

 SCF Done:  E(UB3LYP) =  -1136.11886561     A.U. after   25 cycles

 The electronic state is 2-A.
 Alpha  occ. eigenvalues --  -38.45782 -38.45180 -38.44496 -38.43926 -38.43692
 Alpha  occ. eigenvalues --  -38.43394 -38.42414  -2.21560  -2.20966  -2.20368
 Alpha  occ. eigenvalues --   -2.19755  -2.19591  -2.19240  -2.18226  -1.15247
 Alpha  occ. eigenvalues --   -1.15210  -1.15189  -1.14682  -1.14614  -1.14599
 Alpha  occ. eigenvalues --   -1.14065  -1.14032  -1.13986  -1.13423  -1.13378
 Alpha  occ. eigenvalues --   -1.13368  -1.13281  -1.13249  -1.13210  -1.12929
 Alpha  occ. eigenvalues --   -1.12889  -1.12877  -1.11893  -1.11888  -1.11886
 Alpha  occ. eigenvalues --   -0.17886  -0.13839  -0.11441  -0.10552
 Alpha virt. eigenvalues --   -0.07433  -0.05115  -0.04175  -0.03630  -0.02870
 Alpha virt. eigenvalues --   -0.02530  -0.02329  -0.01409  -0.00619  -0.00347
 Alpha virt. eigenvalues --   -0.00194   0.00089   0.00411   0.00617   0.00699

  Beta  occ. eigenvalues --  -38.45776 -38.45191 -38.44453 -38.43819 -38.43670
  Beta  occ. eigenvalues --  -38.43392 -38.42413  -2.21551  -2.20986  -2.20291
  Beta  occ. eigenvalues --   -2.19559  -2.19551  -2.19239  -2.18226  -1.15229
  Beta  occ. eigenvalues --   -1.15205  -1.15185  -1.14697  -1.14622  -1.14609
  Beta  occ. eigenvalues --   -1.14000  -1.13975  -1.13932  -1.13289  -1.13249
  Beta  occ. eigenvalues --   -1.13239  -1.13228  -1.13218  -1.13178  -1.12927
  Beta  occ. eigenvalues --   -1.12891  -1.12859  -1.11891  -1.11890  -1.11872
  Beta  occ. eigenvalues --   -0.17181  -0.13722  -0.11298
  Beta virt. eigenvalues --   -0.07289  -0.06632  -0.05003  -0.04123  -0.03033
  Beta virt. eigenvalues --   -0.02618  -0.01815  -0.01517  -0.01288  -0.00620
  Beta virt. eigenvalues --   -0.00160  -0.00143   0.00130   0.00557   0.00694

 Mulliken charges and spin densities:
               1          2
     1  Na   0.082538  -0.059239
     2  Na  -0.507467   0.726080
     3  Na   0.377176  -0.031178
     4  Na  -0.255363   0.256710
     5  Na  -0.076883  -0.022191
     6  Na   0.340356   0.128900
     7  Na   0.039643   0.000918
 Sum of Mulliken charges =  -0.00000   1.00000

 Dipole moment (field-independent basis, Debye):
    X=              0.2922    Y=             -0.4876    Z=              0.0892  Tot=              0.5754
 Quadrupole moment (field-independent basis, Debye-Ang):
   XX=            -48.1446   YY=            -70.0753   ZZ=            -75.4624
   XY=              3.6640   XZ=             -0.1666   YZ=             -2.0204

 Normal termination of Gaussian 16 at Thu Dec  7 08:03:41 2023.
