 Gaussian 16, Revision B.01,
 Gaussian 16:  ES64L-G16RevB.01 20-Dec-2017

 -------------------------
 #P B3LYP/6-311+g(d) force
 -------------------------

 -----
 DPGEN
 -----
 Symbolic Z-matrix:
 Charge =  0 Multiplicity = 2

                         Standard orientation:
 ---------------------------------------------------------------------
 Center     Atomic      Atomic             Coordinates (Angstroms)
 Number     Number       Type             X           Y           Z
 ---------------------------------------------------------------------
      1         11           0        4.680928   -0.884970   -0.313309
      2         11           0        2.281040    0.683370    1.527161
      3         11           0       -0.072584    2.464630   -1.012430
      4         11           0       -4.074849   -1.376496    0.759803
      5         11           0       -1.199305    0.484736    1.775267
      6         11           0       -2.545106    0.284886   -1.634352
      7         11           0        0.929876   -1.656157   -1.102139
 ---------------------------------------------------------------------

 SCF Done:  E(UB3LYP) =  -1136.11888043     A.U. after   26 cycles

 The electronic state is 2-A.
 Alpha  occ. eigenvalues --  -38.46154 -38.44447 -38.44119 -38.44054 -38.43963
 Alpha  occ. eigenvalues --  -38.43170 -38.43148  -2.21902  -2.20208  -2.19988
 Alpha  occ. eigenvalues --   -2.19899  -2.19832  -2.18986  -2.18980  -1.15596
 Alpha  occ. eigenvalues --   -1.15556  -1.15494  -1.13894  -1.13884  -1.13842
 Alpha  occ. eigenvalues --   -1.13668  -1.13655  -1.13617  -1.13607  -1.13559
 Alpha  occ. eigenvalues --   -1.13534  -1.13495  -1.13485  -1.13417  -1.12665
 Alpha  occ. eigenvalues --   -1.12651  -1.12644  -1.12640  -1.12629  -1.12602
 Alpha  occ. eigenvalues --   -0.17655  -0.13815  -0.11423  -0.11161
 Alpha virt. eigenvalues --   -0.07311  -0.05149  -0.04545  -0.03257  -0.02963
 Alpha virt. eigenvalues --   -0.02746  -0.02371  -0.01567  -0.01045  -0.00196
 Alpha virt. eigenvalues --   -0.00138   0.00111   0.00189   0.00473   0.00681

  Beta  occ. eigenvalues --  -38.46102 -38.44470 -38.44085 -38.44019 -38.43902
  Beta  occ. eigenvalues --  -38.43162 -38.43127  -2.21806  -2.20251  -2.19929
  Beta  occ. eigenvalues --   -2.19835  -2.19722  -2.18972  -2.18944  -1.15522
  Beta  occ. eigenvalues --   -1.15493  -1.15423  -1.13923  -1.13913  -1.13867
  Beta  occ. eigenvalues --   -1.13624  -1.13620  -1.13558  -1.13557  -1.13516
  Beta  occ. eigenvalues --   -1.13464  -1.13445  -1.13408  -1.13331  -1.12645
  Beta  occ. eigenvalues --   -1.12640  -1.12627  -1.12619  -1.12608  -1.12568
  Beta  occ. eigenvalues --   -0.16919  -0.13770  -0.10908
  Beta virt. eigenvalues --   -0.07602  -0.06986  -0.04751  -0.04301  -0.02978
  Beta virt. eigenvalues --   -0.02640  -0.02271  -0.01794  -0.01294  -0.00789
  Beta virt. eigenvalues --   -0.00172  -0.00123   0.00215   0.00353   0.00575

 Mulliken charges and spin densities:
               1          2
     1  Na   0.375877  -0.140467
     2  Na  -0.216146   0.154560
     3  Na   0.028231   0.078333
     4  Na   0.347090  -0.132554
     5  Na  -0.310855   0.471011
     6  Na   0.096997   0.244903
     7  Na  -0.321194   0.324214
 Sum of Mulliken charges =  -0.00000   1.00000

 Dipole moment (field-independent basis, Debye):
    X=              1.0965    Y=              0.0613    Z=             -0.4663  Tot=              1.1931
 Quadrupole moment (field-independent basis, Debye-Ang):
   XX=            -60.1347   YY=            -71.1302   ZZ=            -69.0454
   XY=              1.0720   XZ=              0.7310   YZ=             -0.4716

 Normal termination of Gaussian 16 at Sun Dec  3 16:16:00 2023.
