 Gaussian 16, Revision B.01,
 Gaussian 16:  ES64L-G16RevB.01 20-Dec-2017

 -------------------------
 #P B3LYP/6-311+g(d) force
 -------------------------

 -----
 DPGEN
 -----
 Symbolic Z-matrix:
 Charge =  0 Multiplicity = 2

                         Standard orientation:
 ---------------------------------------------------------------------
 Center     Atomic      Atomic             Coordinates (Angstroms)
 Number     Number       Type             X           Y           Z
 ---------------------------------------------------------------------
      1         11           0       -3.255556   -0.079779    0.048265
      2         11           0        2.426355    1.687528    0.028668
      3         11           0        2.663357   -1.862010    0.060396
      4         11           0       -0.820166    2.833596   -0.067209
      5         11           0       -1.170261   -2.506353   -0.117116
      6         11           0        0.157409   -0.026640   -1.674021
      7         11           0       -0.001139   -0.046343    1.721017
 ---------------------------------------------------------------------

 SCF Done:  E(UB3LYP) =  -1136.13842754     A.U. after   20 cycles

 The electronic state is 2-A.
 Alpha  occ. eigenvalues --  -38.44202 -38.43863 -38.43792 -38.43396 -38.43270
 Alpha  occ. eigenvalues --  -38.43029 -38.42950  -2.20033  -2.19680  -2.19668
 Alpha  occ. eigenvalues --   -2.19301  -2.19122  -2.19003  -2.18944  -1.13711
 Alpha  occ. eigenvalues --   -1.13696  -1.13675  -1.13367  -1.13352  -1.13343
 Alpha  occ. eigenvalues --   -1.13336  -1.13328  -1.13280  -1.13017  -1.12975
 Alpha  occ. eigenvalues --   -1.12915  -1.12810  -1.12794  -1.12754  -1.12708
 Alpha  occ. eigenvalues --   -1.12630  -1.12615  -1.12604  -1.12575  -1.12544
 Alpha  occ. eigenvalues --   -0.18924  -0.13222  -0.12478  -0.10379
 Alpha virt. eigenvalues --   -0.05733  -0.05304  -0.04645  -0.03084  -0.02677
 Alpha virt. eigenvalues --   -0.02141  -0.01714  -0.01229  -0.00403  -0.00282
 Alpha virt. eigenvalues --    0.00023   0.00346   0.00774   0.00875   0.00889

  Beta  occ. eigenvalues --  -38.44201 -38.43860 -38.43785 -38.43386 -38.43265
  Beta  occ. eigenvalues --  -38.42951 -38.42873  -2.20033  -2.19679  -2.19659
  Beta  occ. eigenvalues --   -2.19288  -2.19117  -2.18860  -2.18804  -1.13714
  Beta  occ. eigenvalues --   -1.13678  -1.13673  -1.13366  -1.13337  -1.13330
  Beta  occ. eigenvalues --   -1.13326  -1.13306  -1.13280  -1.13007  -1.12929
  Beta  occ. eigenvalues --   -1.12912  -1.12804  -1.12764  -1.12754  -1.12615
  Beta  occ. eigenvalues --   -1.12529  -1.12518  -1.12501  -1.12473  -1.12444
  Beta  occ. eigenvalues --   -0.18195  -0.12976  -0.12224
  Beta virt. eigenvalues --   -0.06472  -0.05701  -0.05315  -0.04637  -0.02278
  Beta virt. eigenvalues --   -0.01913  -0.01628  -0.01177  -0.01101  -0.00460
  Beta virt. eigenvalues --   -0.00330   0.00158   0.00372   0.00821   0.00866

 Mulliken charges and spin densities:
               1          2
     1  Na   0.066190  -0.070817
     2  Na   0.189785  -0.081653
     3  Na   0.136232  -0.104011
     4  Na   0.054817  -0.119848
     5  Na   0.250242  -0.095942
     6  Na  -0.310124   0.701805
     7  Na  -0.387142   0.770466
 Sum of Mulliken charges =  -0.00000   1.00000

 Dipole moment (field-independent basis, Debye):
    X=             -0.0081    Y=             -0.0065    Z=              0.0407  Tot=              0.0420
 Quadrupole moment (field-independent basis, Debye-Ang):
   XX=            -53.2059   YY=            -61.8249   ZZ=            -76.5012
   XY=             -1.0659   XZ=              0.2975   YZ=              0.0120

 Normal termination of Gaussian 16 at Sun Dec  3 15:54:37 2023.
