 Gaussian 16, Revision B.01,
 Gaussian 16:  ES64L-G16RevB.01 20-Dec-2017

 -------------------------
 #P B3LYP/6-311+g(d) force
 -------------------------

 -----
 DPGEN
 -----
 Symbolic Z-matrix:
 Charge =  0 Multiplicity = 2

                         Standard orientation:
 ---------------------------------------------------------------------
 Center     Atomic      Atomic             Coordinates (Angstroms)
 Number     Number       Type             X           Y           Z
 ---------------------------------------------------------------------
      1         11           0       -3.186587   -1.332464    0.605178
      2         11           0        3.503002   -1.308470    0.033078
      3         11           0       -0.689849   -1.305363   -1.813137
      4         11           0        0.221612   -1.053611    1.720421
      5         11           0        0.044662    2.101373    1.692600
      6         11           0        1.975569    1.298744   -1.060576
      7         11           0       -1.868409    1.599789   -1.177564
 ---------------------------------------------------------------------

 SCF Done:  E(UB3LYP) =  -1136.12751066     A.U. after   21 cycles

 The electronic state is 2-A.
 Alpha  occ. eigenvalues --  -38.44363 -38.44225 -38.44202 -38.43826 -38.43803
 Alpha  occ. eigenvalues --  -38.43691 -38.43036  -2.20227  -2.20088  -2.20031
 Alpha  occ. eigenvalues --   -2.19666  -2.19625  -2.19559  -2.18914  -1.13930
 Alpha  occ. eigenvalues --   -1.13882  -1.13837  -1.13780  -1.13743  -1.13713
 Alpha  occ. eigenvalues --   -1.13690  -1.13677  -1.13659  -1.13377  -1.13353
 Alpha  occ. eigenvalues --   -1.13324  -1.13280  -1.13267  -1.13260  -1.13225
 Alpha  occ. eigenvalues --   -1.13211  -1.13159  -1.12610  -1.12546  -1.12523
 Alpha  occ. eigenvalues --   -0.18391  -0.13217  -0.12055  -0.11296
 Alpha virt. eigenvalues --   -0.06134  -0.05138  -0.03984  -0.03423  -0.03352
 Alpha virt. eigenvalues --   -0.02938  -0.01859  -0.01113  -0.00417   0.00070
 Alpha virt. eigenvalues --    0.00199   0.00308   0.00435   0.00735   0.00835

  Beta  occ. eigenvalues --  -38.44317 -38.44219 -38.44128 -38.43828 -38.43783
  Beta  occ. eigenvalues --  -38.43663 -38.42995  -2.20146  -2.20021  -2.19954
  Beta  occ. eigenvalues --   -2.19632  -2.19629  -2.19510  -2.18841  -1.13872
  Beta  occ. eigenvalues --   -1.13811  -1.13782  -1.13690  -1.13685  -1.13679
  Beta  occ. eigenvalues --   -1.13656  -1.13636  -1.13589  -1.13366  -1.13321
  Beta  occ. eigenvalues --   -1.13300  -1.13276  -1.13268  -1.13217  -1.13209
  Beta  occ. eigenvalues --   -1.13174  -1.13131  -1.12548  -1.12498  -1.12470
  Beta  occ. eigenvalues --   -0.17555  -0.13049  -0.11173
  Beta virt. eigenvalues --   -0.07978  -0.05916  -0.04929  -0.03497  -0.03039
  Beta virt. eigenvalues --   -0.02814  -0.02166  -0.01747  -0.00914  -0.00209
  Beta virt. eigenvalues --    0.00103   0.00263   0.00343   0.00566   0.00802

 Mulliken charges and spin densities:
               1          2
     1  Na   0.162363  -0.066907
     2  Na  -0.042800  -0.106813
     3  Na  -0.475627   0.328769
     4  Na   0.138256   0.526178
     5  Na  -0.218870  -0.012706
     6  Na   0.198708   0.176496
     7  Na   0.237969   0.154983
 Sum of Mulliken charges =  -0.00000   1.00000

 Dipole moment (field-independent basis, Debye):
    X=             -0.4045    Y=             -0.2214    Z=             -0.1469  Tot=              0.4839
 Quadrupole moment (field-independent basis, Debye-Ang):
   XX=            -56.6070   YY=            -73.7568   ZZ=            -65.7057
   XY=             -0.5123   XZ=             -1.3591   YZ=             -1.2825

 Normal termination of Gaussian 16 at Wed Nov 29 16:12:46 2023.
