 Gaussian 16, Revision B.01,
 Gaussian 16:  ES64L-G16RevB.01 20-Dec-2017

 -------------------------
 #P B3LYP/6-311+g(d) force
 -------------------------

 -----
 DPGEN
 -----
 Symbolic Z-matrix:
 Charge =  0 Multiplicity = 2

                         Standard orientation:
 ---------------------------------------------------------------------
 Center     Atomic      Atomic             Coordinates (Angstroms)
 Number     Number       Type             X           Y           Z
 ---------------------------------------------------------------------
      1         11           0       -0.446270    0.156991   -1.798264
      2         11           0        0.120098   -0.520385    1.852715
      3         11           0        0.049119   -2.838935   -0.006263
      4         11           0        1.895224    2.609932   -0.110275
      5         11           0       -1.354017    2.150994    0.529052
      6         11           0       -3.429602   -0.480927   -0.209064
      7         11           0        3.165449   -1.077670   -0.257902
 ---------------------------------------------------------------------

 SCF Done:  E(UB3LYP) =  -1136.13244485     A.U. after   20 cycles

 The electronic state is 2-A.
 Alpha  occ. eigenvalues --  -38.44550 -38.44336 -38.43592 -38.43560 -38.43455
 Alpha  occ. eigenvalues --  -38.43454 -38.43179  -2.20326  -2.20140  -2.19512
 Alpha  occ. eigenvalues --   -2.19436  -2.19394  -2.19257  -2.19103  -1.14006
 Alpha  occ. eigenvalues --   -1.13977  -1.13964  -1.13811  -1.13805  -1.13778
 Alpha  occ. eigenvalues --   -1.13275  -1.13215  -1.13172  -1.13114  -1.13090
 Alpha  occ. eigenvalues --   -1.13053  -1.13032  -1.12985  -1.12976  -1.12932
 Alpha  occ. eigenvalues --   -1.12925  -1.12905  -1.12788  -1.12767  -1.12701
 Alpha  occ. eigenvalues --   -0.18482  -0.12956  -0.12374  -0.10654
 Alpha virt. eigenvalues --   -0.06110  -0.05079  -0.04549  -0.03246  -0.02830
 Alpha virt. eigenvalues --   -0.02457  -0.01939  -0.01111  -0.00433  -0.00218
 Alpha virt. eigenvalues --   -0.00036   0.00304   0.00735   0.00812   0.00878

  Beta  occ. eigenvalues --  -38.44546 -38.44333 -38.43552 -38.43524 -38.43455
  Beta  occ. eigenvalues --  -38.43371 -38.43161  -2.20320  -2.20137  -2.19423
  Beta  occ. eigenvalues --   -2.19387  -2.19262  -2.19242  -2.19074  -1.13991
  Beta  occ. eigenvalues --   -1.13973  -1.13960  -1.13805  -1.13790  -1.13776
  Beta  occ. eigenvalues --   -1.13228  -1.13132  -1.13096  -1.13048  -1.13028
  Beta  occ. eigenvalues --   -1.13018  -1.12955  -1.12935  -1.12915  -1.12908
  Beta  occ. eigenvalues --   -1.12891  -1.12880  -1.12768  -1.12709  -1.12688
  Beta  occ. eigenvalues --   -0.17752  -0.12741  -0.12146
  Beta virt. eigenvalues --   -0.06789  -0.06018  -0.05057  -0.04486  -0.02506
  Beta virt. eigenvalues --   -0.02125  -0.01822  -0.01432  -0.01067  -0.00476
  Beta virt. eigenvalues --   -0.00200   0.00098   0.00338   0.00765   0.00853

 Mulliken charges and spin densities:
               1          2
     1  Na  -0.348677   0.801865
     2  Na   0.000870   0.537231
     3  Na   0.144243  -0.149078
     4  Na  -0.126155  -0.115723
     5  Na   0.188167   0.055569
     6  Na   0.235959  -0.078272
     7  Na  -0.094407  -0.051593
 Sum of Mulliken charges =  -0.00000   1.00000

 Dipole moment (field-independent basis, Debye):
    X=              0.0466    Y=             -0.3726    Z=             -0.1297  Tot=              0.3973
 Quadrupole moment (field-independent basis, Debye-Ang):
   XX=            -53.0126   YY=            -65.2011   ZZ=            -74.6197
   XY=              0.9350   XZ=             -1.1731   YZ=              1.3352

 Normal termination of Gaussian 16 at Thu Dec  7 03:31:13 2023.
