 Gaussian 16, Revision B.01,
 Gaussian 16:  ES64L-G16RevB.01 20-Dec-2017

 -------------------------
 #P B3LYP/6-311+g(d) force
 -------------------------

 -----
 DPGEN
 -----
 Symbolic Z-matrix:
 Charge =  0 Multiplicity = 2

                         Standard orientation:
 ---------------------------------------------------------------------
 Center     Atomic      Atomic             Coordinates (Angstroms)
 Number     Number       Type             X           Y           Z
 ---------------------------------------------------------------------
      1         11           0       -2.154583   -1.858702   -0.189531
      2         11           0        1.310142   -2.539080   -0.118634
      3         11           0        3.045791    0.468450   -0.108986
      4         11           0       -0.039687   -0.415109    1.821906
      5         11           0        0.367334    2.973377    0.175453
      6         11           0        0.141511    0.159233   -1.469794
      7         11           0       -2.670508    1.211831   -0.110415
 ---------------------------------------------------------------------

 SCF Done:  E(UB3LYP) =  -1136.13692085     A.U. after   21 cycles

 The electronic state is 2-A.
 Alpha  occ. eigenvalues --  -38.43980 -38.43623 -38.43525 -38.43435 -38.43435
 Alpha  occ. eigenvalues --  -38.43043 -38.42728  -2.19832  -2.19520  -2.19370
 Alpha  occ. eigenvalues --   -2.19365  -2.19346  -2.19029  -2.18809  -1.13527
 Alpha  occ. eigenvalues --   -1.13489  -1.13462  -1.13251  -1.13184  -1.13169
 Alpha  occ. eigenvalues --   -1.13078  -1.13058  -1.13033  -1.13030  -1.13029
 Alpha  occ. eigenvalues --   -1.13017  -1.13000  -1.12986  -1.12948  -1.12716
 Alpha  occ. eigenvalues --   -1.12640  -1.12636  -1.12490  -1.12434  -1.12431
 Alpha  occ. eigenvalues --   -0.19294  -0.13226  -0.12771  -0.10488
 Alpha virt. eigenvalues --   -0.05518  -0.05012  -0.04901  -0.03016  -0.02808
 Alpha virt. eigenvalues --   -0.02104  -0.01448  -0.01159  -0.00302  -0.00208
 Alpha virt. eigenvalues --    0.00045   0.00362   0.00852   0.00915   0.00925

  Beta  occ. eigenvalues --  -38.43975 -38.43617 -38.43522 -38.43425 -38.43425
  Beta  occ. eigenvalues --  -38.42955 -38.42666  -2.19826  -2.19513  -2.19366
  Beta  occ. eigenvalues --   -2.19352  -2.19334  -2.18868  -2.18697  -1.13517
  Beta  occ. eigenvalues --   -1.13469  -1.13462  -1.13247  -1.13179  -1.13139
  Beta  occ. eigenvalues --   -1.13070  -1.13053  -1.13026  -1.13009  -1.13001
  Beta  occ. eigenvalues --   -1.12988  -1.12976  -1.12971  -1.12944  -1.12612
  Beta  occ. eigenvalues --   -1.12526  -1.12521  -1.12408  -1.12352  -1.12348
  Beta  occ. eigenvalues --   -0.18566  -0.12945  -0.12520
  Beta virt. eigenvalues --   -0.06554  -0.05500  -0.05012  -0.04867  -0.02205
  Beta virt. eigenvalues --   -0.02032  -0.01370  -0.01117  -0.01047  -0.00344
  Beta virt. eigenvalues --   -0.00267   0.00180   0.00398   0.00880   0.00925

 Mulliken charges and spin densities:
               1          2
     1  Na   0.415252   0.008265
     2  Na   0.389187  -0.054396
     3  Na   0.129390  -0.077258
     4  Na  -0.540059   0.779729
     5  Na   0.033299  -0.057573
     6  Na  -0.572741   0.420237
     7  Na   0.145673  -0.019003
 Sum of Mulliken charges =  -0.00000   1.00000

 Dipole moment (field-independent basis, Debye):
    X=              0.2414    Y=              0.1126    Z=              0.1469  Tot=              0.3042
 Quadrupole moment (field-independent basis, Debye-Ang):
   XX=            -56.3835   YY=            -59.9378   ZZ=            -75.8287
   XY=              0.0337   XZ=              0.3860   YZ=              1.3692

 Normal termination of Gaussian 16 at Wed Nov 29 03:32:03 2023.
