 Gaussian 16, Revision B.01,
 Gaussian 16:  ES64L-G16RevB.01 20-Dec-2017

 -------------------------
 #P B3LYP/6-311+g(d) force
 -------------------------

 -----
 DPGEN
 -----
 Symbolic Z-matrix:
 Charge =  0 Multiplicity = 2

                         Standard orientation:
 ---------------------------------------------------------------------
 Center     Atomic      Atomic             Coordinates (Angstroms)
 Number     Number       Type             X           Y           Z
 ---------------------------------------------------------------------
      1         11           0       -4.371307   -0.816364    0.799284
      2         11           0       -1.557734   -3.267127   -0.504395
      3         11           0        1.652469   -3.070567   -0.098560
      4         11           0        4.607086   -0.681729    0.249152
      5         11           0        3.396096    2.149813    0.085611
      6         11           0       -0.076174    3.640534   -0.141639
      7         11           0       -3.650436    2.045440   -0.389453
 ---------------------------------------------------------------------

 SCF Done:  E(UB3LYP) =  -1136.10737076     A.U. after   21 cycles

 The electronic state is 2-A.
 Alpha  occ. eigenvalues --  -38.44940 -38.44860 -38.44767 -38.44554 -38.44364
 Alpha  occ. eigenvalues --  -38.44344 -38.44312  -2.20710  -2.20644  -2.20568
 Alpha  occ. eigenvalues --   -2.20330  -2.20139  -2.20137  -2.20125  -1.14414
 Alpha  occ. eigenvalues --   -1.14385  -1.14364  -1.14341  -1.14319  -1.14301
 Alpha  occ. eigenvalues --   -1.14219  -1.14201  -1.14189  -1.14014  -1.14003
 Alpha  occ. eigenvalues --   -1.13973  -1.13791  -1.13791  -1.13788  -1.13783
 Alpha  occ. eigenvalues --   -1.13782  -1.13779  -1.13763  -1.13752  -1.13749
 Alpha  occ. eigenvalues --   -0.15446  -0.14194  -0.13280  -0.11161
 Alpha virt. eigenvalues --   -0.07592  -0.04874  -0.04475  -0.03552  -0.03524
 Alpha virt. eigenvalues --   -0.02660  -0.02109  -0.01907  -0.01298  -0.00868
 Alpha virt. eigenvalues --   -0.00513  -0.00230  -0.00123   0.00364   0.00483

  Beta  occ. eigenvalues --  -38.44940 -38.44856 -38.44718 -38.44534 -38.44320
  Beta  occ. eigenvalues --  -38.44279 -38.44260  -2.20715  -2.20645  -2.20479
  Beta  occ. eigenvalues --   -2.20298  -2.20085  -2.20043  -2.19979  -1.14403
  Beta  occ. eigenvalues --   -1.14392  -1.14346  -1.14329  -1.14326  -1.14273
  Beta  occ. eigenvalues --   -1.14159  -1.14146  -1.14127  -1.13987  -1.13984
  Beta  occ. eigenvalues --   -1.13935  -1.13766  -1.13757  -1.13725  -1.13714
  Beta  occ. eigenvalues --   -1.13707  -1.13698  -1.13684  -1.13675  -1.13646
  Beta  occ. eigenvalues --   -0.14893  -0.13558  -0.12379
  Beta virt. eigenvalues --   -0.08057  -0.07761  -0.04413  -0.03911  -0.03341
  Beta virt. eigenvalues --   -0.03267  -0.02453  -0.01906  -0.01818  -0.01080
  Beta virt. eigenvalues --   -0.00522  -0.00240   0.00069   0.00112   0.00338

 Mulliken charges and spin densities:
               1          2
     1  Na  -0.116926   0.191199
     2  Na  -0.281412  -0.058320
     3  Na   0.018702   0.136307
     4  Na   0.673133   0.219714
     5  Na  -0.185008   0.029656
     6  Na   0.069577   0.466384
     7  Na  -0.178067   0.015060
 Sum of Mulliken charges =  -0.00000   1.00000

 Dipole moment (field-independent basis, Debye):
    X=             -0.3262    Y=             -0.2426    Z=              0.1105  Tot=              0.4213
 Quadrupole moment (field-independent basis, Debye-Ang):
   XX=            -58.7633   YY=            -67.7639   ZZ=            -73.0749
   XY=             -0.2702   XZ=              0.2699   YZ=             -1.7527

 Normal termination of Gaussian 16 at Sun Dec  3 18:24:58 2023.
