 Gaussian 16, Revision B.01,
 Gaussian 16:  ES64L-G16RevB.01 20-Dec-2017

 -------------------------
 #P B3LYP/6-311+g(d) force
 -------------------------

 -----
 DPGEN
 -----
 Symbolic Z-matrix:
 Charge =  0 Multiplicity = 2

                         Standard orientation:
 ---------------------------------------------------------------------
 Center     Atomic      Atomic             Coordinates (Angstroms)
 Number     Number       Type             X           Y           Z
 ---------------------------------------------------------------------
      1         11           0        0.404080    2.820192   -0.424992
      2         11           0       -2.618632    1.256605    0.448048
      3         11           0       -0.552271    0.135201   -1.858195
      4         11           0       -1.881837   -2.270265    0.019605
      5         11           0        1.846810   -2.098246   -0.730775
      6         11           0        0.033625   -0.510202    1.954028
      7         11           0        2.768225    0.666715    0.592281
 ---------------------------------------------------------------------

 SCF Done:  E(UB3LYP) =  -1136.13762840     A.U. after   19 cycles

 The electronic state is 2-A.
 Alpha  occ. eigenvalues --  -38.43789 -38.43724 -38.43647 -38.43535 -38.43505
 Alpha  occ. eigenvalues --  -38.43388 -38.43193  -2.19661  -2.19651  -2.19511
 Alpha  occ. eigenvalues --   -2.19503  -2.19374  -2.19275  -2.19060  -1.13359
 Alpha  occ. eigenvalues --   -1.13341  -1.13326  -1.13323  -1.13280  -1.13266
 Alpha  occ. eigenvalues --   -1.13213  -1.13182  -1.13172  -1.13164  -1.13142
 Alpha  occ. eigenvalues --   -1.13110  -1.13048  -1.13028  -1.12990  -1.12951
 Alpha  occ. eigenvalues --   -1.12921  -1.12912  -1.12746  -1.12708  -1.12685
 Alpha  occ. eigenvalues --   -0.18939  -0.12975  -0.12503  -0.11377
 Alpha virt. eigenvalues --   -0.05274  -0.04903  -0.04526  -0.03495  -0.03196
 Alpha virt. eigenvalues --   -0.02923  -0.01166  -0.01015  -0.00221   0.00101
 Alpha virt. eigenvalues --    0.00116   0.00403   0.00881   0.00904   0.00939

  Beta  occ. eigenvalues --  -38.43779 -38.43645 -38.43629 -38.43500 -38.43460
  Beta  occ. eigenvalues --  -38.43379 -38.43188  -2.19637  -2.19515  -2.19481
  Beta  occ. eigenvalues --   -2.19369  -2.19367  -2.19260  -2.19054  -1.13338
  Beta  occ. eigenvalues --   -1.13306  -1.13263  -1.13242  -1.13223  -1.13192
  Beta  occ. eigenvalues --   -1.13170  -1.13139  -1.13122  -1.13092  -1.13083
  Beta  occ. eigenvalues --   -1.13026  -1.13018  -1.12999  -1.12979  -1.12931
  Beta  occ. eigenvalues --   -1.12906  -1.12897  -1.12729  -1.12694  -1.12683
  Beta  occ. eigenvalues --   -0.18183  -0.12739  -0.12250
  Beta virt. eigenvalues --   -0.07425  -0.05258  -0.04816  -0.04442  -0.02746
  Beta virt. eigenvalues --   -0.02438  -0.01866  -0.01084  -0.00945  -0.00117
  Beta virt. eigenvalues --    0.00067   0.00155   0.00433   0.00900   0.00932

 Mulliken charges and spin densities:
               1          2
     1  Na  -0.096978  -0.041442
     2  Na   0.060806  -0.003734
     3  Na   0.018018   0.497603
     4  Na   0.121772  -0.078938
     5  Na  -0.113646   0.029324
     6  Na  -0.155967   0.543739
     7  Na   0.165995   0.053447
 Sum of Mulliken charges =  -0.00000   1.00000

 Dipole moment (field-independent basis, Debye):
    X=             -0.2736    Y=             -0.1797    Z=              0.0811  Tot=              0.3372
 Quadrupole moment (field-independent basis, Debye-Ang):
   XX=            -60.8941   YY=            -63.8036   ZZ=            -70.5588
   XY=              0.0089   XZ=             -1.2308   YZ=              1.7362

 Normal termination of Gaussian 16 at Wed Dec  6 00:52:39 2023.
