 Gaussian 16, Revision B.01,
 Gaussian 16:  ES64L-G16RevB.01 20-Dec-2017

 -------------------------
 #P B3LYP/6-311+g(d) force
 -------------------------

 -----
 DPGEN
 -----
 Symbolic Z-matrix:
 Charge =  0 Multiplicity = 2

                         Standard orientation:
 ---------------------------------------------------------------------
 Center     Atomic      Atomic             Coordinates (Angstroms)
 Number     Number       Type             X           Y           Z
 ---------------------------------------------------------------------
      1         11           0        3.232785   -1.166112    0.067444
      2         11           0       -0.191976    0.074970    2.072429
      3         11           0       -2.359882    2.598738   -0.195960
      4         11           0        2.550972    2.198943   -0.016473
      5         11           0        0.630384    0.013401   -1.611673
      6         11           0       -3.500496   -0.940890   -0.210639
      7         11           0       -0.361788   -2.779050   -0.105129
 ---------------------------------------------------------------------

 SCF Done:  E(UB3LYP) =  -1136.12467661     A.U. after   23 cycles

 The electronic state is 2-A.
 Alpha  occ. eigenvalues --  -38.45029 -38.44975 -38.44233 -38.44066 -38.43848
 Alpha  occ. eigenvalues --  -38.43545 -38.42834  -2.20787  -2.20784  -2.20042
 Alpha  occ. eigenvalues --   -2.19809  -2.19756  -2.19384  -2.18674  -1.14468
 Alpha  occ. eigenvalues --   -1.14466  -1.14445  -1.14431  -1.14425  -1.14421
 Alpha  occ. eigenvalues --   -1.13731  -1.13698  -1.13681  -1.13487  -1.13464
 Alpha  occ. eigenvalues --   -1.13458  -1.13446  -1.13398  -1.13379  -1.13053
 Alpha  occ. eigenvalues --   -1.13007  -1.12998  -1.12370  -1.12339  -1.12299
 Alpha  occ. eigenvalues --   -0.17827  -0.13394  -0.11639  -0.10242
 Alpha virt. eigenvalues --   -0.06508  -0.06105  -0.04322  -0.03321  -0.02492
 Alpha virt. eigenvalues --   -0.02311  -0.02201  -0.01554  -0.01039  -0.00486
 Alpha virt. eigenvalues --   -0.00105   0.00238   0.00595   0.00672   0.00722

  Beta  occ. eigenvalues --  -38.45024 -38.44972 -38.44230 -38.44067 -38.43799
  Beta  occ. eigenvalues --  -38.43440 -38.42828  -2.20784  -2.20777  -2.20038
  Beta  occ. eigenvalues --   -2.19813  -2.19668  -2.19191  -2.18667  -1.14458
  Beta  occ. eigenvalues --   -1.14450  -1.14436  -1.14426  -1.14422  -1.14418
  Beta  occ. eigenvalues --   -1.13723  -1.13691  -1.13670  -1.13482  -1.13466
  Beta  occ. eigenvalues --   -1.13461  -1.13380  -1.13333  -1.13315  -1.12923
  Beta  occ. eigenvalues --   -1.12870  -1.12861  -1.12366  -1.12309  -1.12297
  Beta  occ. eigenvalues --   -0.17138  -0.13214  -0.11453
  Beta virt. eigenvalues --   -0.06415  -0.06343  -0.06103  -0.04283  -0.02629
  Beta virt. eigenvalues --   -0.02097  -0.01778  -0.01579  -0.01265  -0.01057
  Beta virt. eigenvalues --   -0.00503   0.00082   0.00303   0.00677   0.00686

 Mulliken charges and spin densities:
               1          2
     1  Na   0.305558   0.023367
     2  Na  -0.289623   0.761245
     3  Na  -0.101602  -0.087267
     4  Na   0.009033  -0.098085
     5  Na   0.089470   0.441784
     6  Na   0.024494   0.011763
     7  Na  -0.037329  -0.052806
 Sum of Mulliken charges =  -0.00000   1.00000

 Dipole moment (field-independent basis, Debye):
    X=              0.4093    Y=             -0.0670    Z=              0.0409  Tot=              0.4168
 Quadrupole moment (field-independent basis, Debye-Ang):
   XX=            -50.0847   YY=            -65.5364   ZZ=            -77.1872
   XY=              0.7109   XZ=              1.7179   YZ=             -0.4361

 Normal termination of Gaussian 16 at Tue Dec  5 12:45:59 2023.
