 Gaussian 16, Revision B.01,
 Gaussian 16:  ES64L-G16RevB.01 20-Dec-2017

 -------------------------
 #P B3LYP/6-311+g(d) force
 -------------------------

 -----
 DPGEN
 -----
 Symbolic Z-matrix:
 Charge =  0 Multiplicity = 2

                         Standard orientation:
 ---------------------------------------------------------------------
 Center     Atomic      Atomic             Coordinates (Angstroms)
 Number     Number       Type             X           Y           Z
 ---------------------------------------------------------------------
      1         11           0        2.980863   -0.520102    0.041734
      2         11           0       -0.221389   -0.377135    1.920259
      3         11           0       -2.056601    2.025796   -0.262545
      4         11           0        1.397060    2.542819    0.328130
      5         11           0        0.568061   -2.657958   -0.326057
      6         11           0       -2.890498   -1.225831    0.042991
      7         11           0        0.222504    0.212412   -1.744511
 ---------------------------------------------------------------------

 SCF Done:  E(UB3LYP) =  -1136.13966140     A.U. after   19 cycles

 The electronic state is 2-A.
 Alpha  occ. eigenvalues --  -38.43843 -38.43832 -38.43514 -38.43456 -38.43268
 Alpha  occ. eigenvalues --  -38.43221 -38.43191  -2.19710  -2.19682  -2.19389
 Alpha  occ. eigenvalues --   -2.19381  -2.19214  -2.19130  -2.19101  -1.13394
 Alpha  occ. eigenvalues --   -1.13369  -1.13365  -1.13359  -1.13344  -1.13326
 Alpha  occ. eigenvalues --   -1.13093  -1.13069  -1.13048  -1.13016  -1.13010
 Alpha  occ. eigenvalues --   -1.13000  -1.12912  -1.12886  -1.12835  -1.12792
 Alpha  occ. eigenvalues --   -1.12781  -1.12763  -1.12763  -1.12746  -1.12714
 Alpha  occ. eigenvalues --   -0.19009  -0.13158  -0.12522  -0.10886
 Alpha virt. eigenvalues --   -0.05502  -0.05101  -0.04545  -0.03253  -0.02997
 Alpha virt. eigenvalues --   -0.02536  -0.01459  -0.01012  -0.00201  -0.00143
 Alpha virt. eigenvalues --    0.00002   0.00372   0.00829   0.00923   0.00927

  Beta  occ. eigenvalues --  -38.43840 -38.43827 -38.43506 -38.43374 -38.43260
  Beta  occ. eigenvalues --  -38.43179 -38.43147  -2.19705  -2.19681  -2.19373
  Beta  occ. eigenvalues --   -2.19235  -2.19119  -2.19085  -2.19079  -1.13390
  Beta  occ. eigenvalues --   -1.13364  -1.13360  -1.13337  -1.13331  -1.13324
  Beta  occ. eigenvalues --   -1.13074  -1.13019  -1.13008  -1.12972  -1.12917
  Beta  occ. eigenvalues --   -1.12890  -1.12841  -1.12830  -1.12768  -1.12761
  Beta  occ. eigenvalues --   -1.12752  -1.12733  -1.12727  -1.12704  -1.12685
  Beta  occ. eigenvalues --   -0.18265  -0.12907  -0.12270
  Beta virt. eigenvalues --   -0.06958  -0.05461  -0.05100  -0.04507  -0.02450
  Beta virt. eigenvalues --   -0.02206  -0.01493  -0.01365  -0.00946  -0.00229
  Beta virt. eigenvalues --   -0.00197   0.00127   0.00392   0.00889   0.00915

 Mulliken charges and spin densities:
               1          2
     1  Na   0.177985  -0.031624
     2  Na  -0.505289   0.750758
     3  Na   0.127991  -0.063668
     4  Na   0.033122  -0.022603
     5  Na   0.265272  -0.079333
     6  Na   0.160306  -0.090679
     7  Na  -0.259386   0.537148
 Sum of Mulliken charges =  -0.00000   1.00000

 Dipole moment (field-independent basis, Debye):
    X=             -0.0701    Y=             -0.0476    Z=              0.1158  Tot=              0.1436
 Quadrupole moment (field-independent basis, Debye-Ang):
   XX=            -56.5865   YY=            -63.7586   ZZ=            -73.4372
   XY=              0.4453   XZ=              1.0401   YZ=              1.2120

 Normal termination of Gaussian 16 at Thu Dec  7 16:51:17 2023.
