 Gaussian 16, Revision B.01,
 Gaussian 16:  ES64L-G16RevB.01 20-Dec-2017

 -------------------------
 #P B3LYP/6-311+g(d) force
 -------------------------

 -----
 DPGEN
 -----
 Symbolic Z-matrix:
 Charge =  0 Multiplicity = 2

                         Standard orientation:
 ---------------------------------------------------------------------
 Center     Atomic      Atomic             Coordinates (Angstroms)
 Number     Number       Type             X           Y           Z
 ---------------------------------------------------------------------
      1         11           0        1.232897    2.619767   -0.528465
      2         11           0       -2.784478   -1.376180    0.017546
      3         11           0        0.585905   -2.584172    0.110584
      4         11           0        3.188923   -0.486617    0.233406
      5         11           0        0.205332   -0.377568   -1.697578
      6         11           0        0.108267    0.633133    1.878871
      7         11           0       -2.536847    1.571638   -0.014365
 ---------------------------------------------------------------------

 SCF Done:  E(UB3LYP) =  -1136.13271564     A.U. after   19 cycles

 The electronic state is 2-A.
 Alpha  occ. eigenvalues --  -38.44512 -38.43943 -38.43888 -38.43417 -38.43312
 Alpha  occ. eigenvalues --  -38.43265 -38.43126  -2.20345  -2.19822  -2.19759
 Alpha  occ. eigenvalues --   -2.19334  -2.19266  -2.19164  -2.19045  -1.14015
 Alpha  occ. eigenvalues --   -1.14007  -1.13982  -1.13644  -1.13485  -1.13459
 Alpha  occ. eigenvalues --   -1.13403  -1.13391  -1.13340  -1.13095  -1.13019
 Alpha  occ. eigenvalues --   -1.12978  -1.12954  -1.12923  -1.12868  -1.12822
 Alpha  occ. eigenvalues --   -1.12814  -1.12787  -1.12688  -1.12676  -1.12645
 Alpha  occ. eigenvalues --   -0.18920  -0.13441  -0.12320  -0.10713
 Alpha virt. eigenvalues --   -0.06031  -0.05099  -0.04320  -0.03330  -0.02918
 Alpha virt. eigenvalues --   -0.02351  -0.01812  -0.00992  -0.00286  -0.00149
 Alpha virt. eigenvalues --   -0.00008   0.00361   0.00806   0.00878   0.00918

  Beta  occ. eigenvalues --  -38.44505 -38.43939 -38.43887 -38.43343 -38.43296
  Beta  occ. eigenvalues --  -38.43192 -38.43117  -2.20336  -2.19819  -2.19759
  Beta  occ. eigenvalues --   -2.19198  -2.19138  -2.19135  -2.19033  -1.14005
  Beta  occ. eigenvalues --   -1.13982  -1.13980  -1.13647  -1.13471  -1.13445
  Beta  occ. eigenvalues --   -1.13394  -1.13381  -1.13341  -1.13023  -1.12935
  Beta  occ. eigenvalues --   -1.12889  -1.12854  -1.12845  -1.12794  -1.12777
  Beta  occ. eigenvalues --   -1.12774  -1.12756  -1.12667  -1.12643  -1.12620
  Beta  occ. eigenvalues --   -0.18194  -0.13210  -0.12071
  Beta virt. eigenvalues --   -0.06810  -0.05971  -0.05094  -0.04268  -0.02558
  Beta virt. eigenvalues --   -0.02155  -0.01714  -0.01320  -0.00924  -0.00326
  Beta virt. eigenvalues --   -0.00184   0.00134   0.00387   0.00856   0.00878

 Mulliken charges and spin densities:
               1          2
     1  Na   0.047381  -0.078287
     2  Na  -0.005224  -0.062380
     3  Na   0.287723   0.002389
     4  Na   0.193952  -0.008634
     5  Na  -0.347331   0.548036
     6  Na  -0.478174   0.614287
     7  Na   0.301674  -0.015411
 Sum of Mulliken charges =  -0.00000   1.00000

 Dipole moment (field-independent basis, Debye):
    X=              0.2863    Y=              0.1130    Z=              0.1501  Tot=              0.3424
 Quadrupole moment (field-independent basis, Debye-Ang):
   XX=            -53.6653   YY=            -65.6573   ZZ=            -74.2923
   XY=              0.2294   XZ=              0.4334   YZ=             -2.1102

 Normal termination of Gaussian 16 at Thu Dec  7 04:48:18 2023.
