 Gaussian 16, Revision B.01,
 Gaussian 16:  ES64L-G16RevB.01 20-Dec-2017

 -------------------------
 #P B3LYP/6-311+g(d) force
 -------------------------

 -----
 DPGEN
 -----
 Symbolic Z-matrix:
 Charge =  0 Multiplicity = 2

                         Standard orientation:
 ---------------------------------------------------------------------
 Center     Atomic      Atomic             Coordinates (Angstroms)
 Number     Number       Type             X           Y           Z
 ---------------------------------------------------------------------
      1         11           0       -3.857161   -0.279714   -0.268516
      2         11           0        1.800813   -2.924097   -0.360777
      3         11           0        1.394304    3.311591    0.332356
      4         11           0        3.916554   -0.181218   -0.272541
      5         11           0       -1.879149   -2.726972    0.450909
      6         11           0       -1.860773    2.644506   -0.429535
      7         11           0        0.485412    0.155904    0.548103
 ---------------------------------------------------------------------

 SCF Done:  E(UB3LYP) =  -1136.12764181     A.U. after   22 cycles

 The electronic state is 2-A.
 Alpha  occ. eigenvalues --  -38.44503 -38.44496 -38.44042 -38.44022 -38.43705
 Alpha  occ. eigenvalues --  -38.43595 -38.43337  -2.20321  -2.20303  -2.19909
 Alpha  occ. eigenvalues --   -2.19876  -2.19533  -2.19424  -2.19173  -1.14012
 Alpha  occ. eigenvalues --   -1.14004  -1.13992  -1.13979  -1.13942  -1.13931
 Alpha  occ. eigenvalues --   -1.13633  -1.13599  -1.13553  -1.13531  -1.13507
 Alpha  occ. eigenvalues --   -1.13477  -1.13207  -1.13202  -1.13172  -1.13078
 Alpha  occ. eigenvalues --   -1.13061  -1.13049  -1.12828  -1.12817  -1.12808
 Alpha  occ. eigenvalues --   -0.17120  -0.13715  -0.13412  -0.09824
 Alpha virt. eigenvalues --   -0.06691  -0.05691  -0.04149  -0.03523  -0.02804
 Alpha virt. eigenvalues --   -0.02114  -0.02009  -0.01759  -0.01377  -0.00307
 Alpha virt. eigenvalues --   -0.00053   0.00307   0.00446   0.00611   0.00765

  Beta  occ. eigenvalues --  -38.44489 -38.44487 -38.44021 -38.44016 -38.43683
  Beta  occ. eigenvalues --  -38.43524 -38.43290  -2.20298  -2.20295  -2.19905
  Beta  occ. eigenvalues --   -2.19829  -2.19493  -2.19293  -2.19085  -1.14002
  Beta  occ. eigenvalues --   -1.13994  -1.13993  -1.13982  -1.13882  -1.13876
  Beta  occ. eigenvalues --   -1.13630  -1.13582  -1.13556  -1.13500  -1.13475
  Beta  occ. eigenvalues --   -1.13455  -1.13181  -1.13179  -1.13129  -1.12988
  Beta  occ. eigenvalues --   -1.12969  -1.12964  -1.12770  -1.12753  -1.12749
  Beta  occ. eigenvalues --   -0.16776  -0.12998  -0.12945
  Beta virt. eigenvalues --   -0.06686  -0.06487  -0.05500  -0.04015  -0.02814
  Beta virt. eigenvalues --   -0.02330  -0.01967  -0.01809  -0.01421  -0.01295
  Beta virt. eigenvalues --   -0.00126   0.00253   0.00447   0.00556   0.00689

 Mulliken charges and spin densities:
               1          2
     1  Na  -0.322231   0.316518
     2  Na   0.623522   0.027763
     3  Na   0.804455   0.086700
     4  Na   0.256662   0.401769
     5  Na   1.093837   0.021119
     6  Na   0.491593   0.109858
     7  Na  -2.947838   0.036273
 Sum of Mulliken charges =  -0.00000   1.00000

 Dipole moment (field-independent basis, Debye):
    X=              0.6349    Y=              0.4087    Z=             -0.1062  Tot=              0.7625
 Quadrupole moment (field-independent basis, Debye-Ang):
   XX=            -69.4710   YY=            -56.7551   ZZ=            -72.1051
   XY=              4.0800   XZ=             -0.0547   YZ=              0.3314

 Normal termination of Gaussian 16 at Wed Nov 29 17:22:33 2023.
