 Gaussian 16, Revision B.01,
 Gaussian 16:  ES64L-G16RevB.01 20-Dec-2017

 -------------------------
 #P B3LYP/6-311+g(d) force
 -------------------------

 -----
 DPGEN
 -----
 Symbolic Z-matrix:
 Charge =  0 Multiplicity = 2

                         Standard orientation:
 ---------------------------------------------------------------------
 Center     Atomic      Atomic             Coordinates (Angstroms)
 Number     Number       Type             X           Y           Z
 ---------------------------------------------------------------------
      1         11           0        0.035504    0.970475   -1.964645
      2         11           0       -0.065991   -1.682947   -0.846532
      3         11           0        2.614360   -0.909612   -0.183962
      4         11           0        1.424905    1.546007    0.557703
      5         11           0       -0.010917   -0.767829    2.063438
      6         11           0       -1.322945    1.685407    0.534848
      7         11           0       -2.674916   -0.841501   -0.160850
 ---------------------------------------------------------------------

 SCF Done:  E(UB3LYP) =  -1136.09852642     A.U. after   22 cycles

 The electronic state is 2-A.
 Alpha  occ. eigenvalues --  -38.44378 -38.44335 -38.43776 -38.43772 -38.43326
 Alpha  occ. eigenvalues --  -38.43288 -38.43168  -2.20418  -2.20409  -2.19773
 Alpha  occ. eigenvalues --   -2.19759  -2.19483  -2.19451  -2.19289  -1.14187
 Alpha  occ. eigenvalues --   -1.14139  -1.14099  -1.14050  -1.14005  -1.14003
 Alpha  occ. eigenvalues --   -1.13626  -1.13595  -1.13504  -1.13478  -1.13372
 Alpha  occ. eigenvalues --   -1.13355  -1.13347  -1.13093  -1.13091  -1.13057
 Alpha  occ. eigenvalues --   -1.13035  -1.12983  -1.12916  -1.12892  -1.12803
 Alpha  occ. eigenvalues --   -0.21086  -0.13594  -0.13032  -0.12080
 Alpha virt. eigenvalues --   -0.05207  -0.04144  -0.04013  -0.03761  -0.03411
 Alpha virt. eigenvalues --   -0.03205  -0.01146  -0.00420  -0.00279   0.00345
 Alpha virt. eigenvalues --    0.00715   0.00817   0.00991   0.01016   0.01089

  Beta  occ. eigenvalues --  -38.44292 -38.44257 -38.43771 -38.43767 -38.43302
  Beta  occ. eigenvalues --  -38.43248 -38.43147  -2.20277  -2.20254  -2.19767
  Beta  occ. eigenvalues --   -2.19755  -2.19446  -2.19385  -2.19256  -1.14101
  Beta  occ. eigenvalues --   -1.14037  -1.13987  -1.13929  -1.13905  -1.13893
  Beta  occ. eigenvalues --   -1.13612  -1.13589  -1.13496  -1.13474  -1.13340
  Beta  occ. eigenvalues --   -1.13329  -1.13329  -1.13043  -1.13026  -1.13008
  Beta  occ. eigenvalues --   -1.12979  -1.12951  -1.12886  -1.12834  -1.12786
  Beta  occ. eigenvalues --   -0.20152  -0.13295  -0.11914
  Beta virt. eigenvalues --   -0.08627  -0.05173  -0.03966  -0.03567  -0.03037
  Beta virt. eigenvalues --   -0.02812  -0.02245  -0.01081  -0.00280  -0.00144
  Beta virt. eigenvalues --    0.00365   0.00751   0.00840   0.01070   0.01092

 Mulliken charges and spin densities:
               1          2
     1  Na  -1.291907   0.406316
     2  Na   1.111305   0.175052
     3  Na  -0.027044  -0.065579
     4  Na   0.762576   0.052728
     5  Na  -1.234517   0.451781
     6  Na   0.747477   0.040101
     7  Na  -0.067890  -0.060399
 Sum of Mulliken charges =  -0.00000   1.00000

 Dipole moment (field-independent basis, Debye):
    X=             -0.0597    Y=             -0.2206    Z=              0.1110  Tot=              0.2541
 Quadrupole moment (field-independent basis, Debye-Ang):
   XX=            -60.1794   YY=            -75.0752   ZZ=            -62.4248
   XY=             -0.2400   XZ=             -0.1260   YZ=              0.6370

 Normal termination of Gaussian 16 at Sat Dec  9 06:59:25 2023.
