 Gaussian 16, Revision B.01,
 Gaussian 16:  ES64L-G16RevB.01 20-Dec-2017

 -------------------------
 #P B3LYP/6-311+g(d) force
 -------------------------

 -----
 DPGEN
 -----
 Symbolic Z-matrix:
 Charge =  0 Multiplicity = 2

                         Standard orientation:
 ---------------------------------------------------------------------
 Center     Atomic      Atomic             Coordinates (Angstroms)
 Number     Number       Type             X           Y           Z
 ---------------------------------------------------------------------
      1         11           0        0.492411    0.059785    2.151219
      2         11           0       -0.566472   -2.337530    0.302715
      3         11           0        2.476832   -1.260153   -0.334615
      4         11           0        2.138870    1.903741   -0.291382
      5         11           0        0.086244   -0.321111   -1.624953
      6         11           0       -1.490220    2.342065    0.040948
      7         11           0       -3.137666   -0.386796   -0.243931
 ---------------------------------------------------------------------

 SCF Done:  E(UB3LYP) =  -1136.12883317     A.U. after   20 cycles

 The electronic state is 2-A.
 Alpha  occ. eigenvalues --  -38.43975 -38.43957 -38.43680 -38.43580 -38.43396
 Alpha  occ. eigenvalues --  -38.43254 -38.42887  -2.19888  -2.19841  -2.19691
 Alpha  occ. eigenvalues --   -2.19654  -2.19292  -2.19112  -2.18884  -1.13602
 Alpha  occ. eigenvalues --   -1.13558  -1.13516  -1.13516  -1.13505  -1.13501
 Alpha  occ. eigenvalues --   -1.13496  -1.13398  -1.13325  -1.13281  -1.13271
 Alpha  occ. eigenvalues --   -1.13185  -1.12966  -1.12948  -1.12920  -1.12787
 Alpha  occ. eigenvalues --   -1.12780  -1.12743  -1.12580  -1.12538  -1.12476
 Alpha  occ. eigenvalues --   -0.19544  -0.13479  -0.12320  -0.11448
 Alpha virt. eigenvalues --   -0.05532  -0.04992  -0.04062  -0.03418  -0.03059
 Alpha virt. eigenvalues --   -0.02896  -0.01449  -0.00784  -0.00118   0.00048
 Alpha virt. eigenvalues --    0.00212   0.00361   0.00844   0.00972   0.00984

  Beta  occ. eigenvalues --  -38.43975 -38.43853 -38.43665 -38.43515 -38.43388
  Beta  occ. eigenvalues --  -38.43252 -38.42873  -2.19842  -2.19696  -2.19647
  Beta  occ. eigenvalues --   -2.19558  -2.19281  -2.19111  -2.18864  -1.13549
  Beta  occ. eigenvalues --   -1.13515  -1.13508  -1.13483  -1.13434  -1.13385
  Beta  occ. eigenvalues --   -1.13362  -1.13328  -1.13284  -1.13242  -1.13207
  Beta  occ. eigenvalues --   -1.13117  -1.12956  -1.12927  -1.12904  -1.12787
  Beta  occ. eigenvalues --   -1.12763  -1.12744  -1.12568  -1.12480  -1.12467
  Beta  occ. eigenvalues --   -0.18769  -0.13219  -0.12062
  Beta virt. eigenvalues --   -0.07381  -0.05477  -0.04996  -0.04055  -0.02635
  Beta virt. eigenvalues --   -0.02149  -0.01822  -0.01371  -0.00746  -0.00026
  Beta virt. eigenvalues --    0.00087   0.00179   0.00389   0.00915   0.00966

 Mulliken charges and spin densities:
               1          2
     1  Na  -0.794691   0.600993
     2  Na   0.683716   0.147177
     3  Na   0.811701   0.095085
     4  Na   0.079258  -0.021766
     5  Na  -0.847801   0.278747
     6  Na   0.114214  -0.032166
     7  Na  -0.046397  -0.068071
 Sum of Mulliken charges =  -0.00000   1.00000

 Dipole moment (field-independent basis, Debye):
    X=             -0.0767    Y=              0.1715    Z=              0.2743  Tot=              0.3324
 Quadrupole moment (field-independent basis, Debye-Ang):
   XX=            -56.5514   YY=            -67.8535   ZZ=            -70.8335
   XY=              0.4424   XZ=             -0.3556   YZ=             -0.4905

 Normal termination of Gaussian 16 at Tue Dec  5 17:02:25 2023.
