 Gaussian 16, Revision B.01,
 Gaussian 16:  ES64L-G16RevB.01 20-Dec-2017

 -------------------------
 #P B3LYP/6-311+g(d) force
 -------------------------

 -----
 DPGEN
 -----
 Symbolic Z-matrix:
 Charge =  0 Multiplicity = 2

                         Standard orientation:
 ---------------------------------------------------------------------
 Center     Atomic      Atomic             Coordinates (Angstroms)
 Number     Number       Type             X           Y           Z
 ---------------------------------------------------------------------
      1         11           0        0.094106   -0.838280    0.961604
      2         11           0        3.636644   -0.510228    1.254075
      3         11           0        1.864199    2.173912   -0.514210
      4         11           0       -2.618298    0.683831    1.922207
      5         11           0        1.391915   -1.368049   -1.760291
      6         11           0       -2.554940   -1.781191   -0.554524
      7         11           0       -1.813627    1.640006   -1.308860
 ---------------------------------------------------------------------

 SCF Done:  E(UB3LYP) =  -1136.12233615     A.U. after   23 cycles

 The electronic state is 2-A.
 Alpha  occ. eigenvalues --  -38.44985 -38.44485 -38.44356 -38.43954 -38.43386
 Alpha  occ. eigenvalues --  -38.43220 -38.43219  -2.20779  -2.20347  -2.20197
 Alpha  occ. eigenvalues --   -2.19803  -2.19212  -2.19206  -2.19013  -1.14451
 Alpha  occ. eigenvalues --   -1.14421  -1.14395  -1.14037  -1.13973  -1.13959
 Alpha  occ. eigenvalues --   -1.13927  -1.13832  -1.13793  -1.13493  -1.13475
 Alpha  occ. eigenvalues --   -1.13425  -1.12942  -1.12884  -1.12874  -1.12847
 Alpha  occ. eigenvalues --   -1.12845  -1.12824  -1.12700  -1.12690  -1.12636
 Alpha  occ. eigenvalues --   -0.18209  -0.14047  -0.11205  -0.10747
 Alpha virt. eigenvalues --   -0.06370  -0.05298  -0.05124  -0.03089  -0.02608
 Alpha virt. eigenvalues --   -0.02416  -0.02102  -0.01031  -0.00814  -0.00277
 Alpha virt. eigenvalues --    0.00099   0.00208   0.00296   0.00441   0.00688

  Beta  occ. eigenvalues --  -38.44947 -38.44428 -38.44313 -38.43949 -38.43367
  Beta  occ. eigenvalues --  -38.43217 -38.43198  -2.20709  -2.20242  -2.20119
  Beta  occ. eigenvalues --   -2.19797  -2.19179  -2.19172  -2.19010  -1.14397
  Beta  occ. eigenvalues --   -1.14374  -1.14352  -1.13959  -1.13907  -1.13886
  Beta  occ. eigenvalues --   -1.13876  -1.13770  -1.13733  -1.13492  -1.13465
  Beta  occ. eigenvalues --   -1.13406  -1.12874  -1.12860  -1.12842  -1.12829
  Beta  occ. eigenvalues --   -1.12822  -1.12805  -1.12691  -1.12686  -1.12628
  Beta  occ. eigenvalues --   -0.17526  -0.13748  -0.10516
  Beta virt. eigenvalues --   -0.07618  -0.05900  -0.05198  -0.04616  -0.02884
  Beta virt. eigenvalues --   -0.02101  -0.02033  -0.01623  -0.00759  -0.00558
  Beta virt. eigenvalues --   -0.00075   0.00255   0.00298   0.00395   0.00499

 Mulliken charges and spin densities:
               1          2
     1  Na  -0.480996   0.254808
     2  Na   0.492509   0.066371
     3  Na  -0.335265  -0.006431
     4  Na   0.265950   0.000175
     5  Na  -0.014010   0.355283
     6  Na   0.229850   0.175041
     7  Na  -0.158039   0.154752
 Sum of Mulliken charges =  -0.00000   1.00000

 Dipole moment (field-independent basis, Debye):
    X=              0.3349    Y=             -0.4568    Z=              0.2086  Tot=              0.6036
 Quadrupole moment (field-independent basis, Debye-Ang):
   XX=            -49.2676   YY=            -79.0381   ZZ=            -64.4135
   XY=             -0.1966   XZ=              1.4387   YZ=              3.0233

 Normal termination of Gaussian 16 at Tue Dec  5 15:16:23 2023.
