 Gaussian 16, Revision B.01,
 Gaussian 16:  ES64L-G16RevB.01 20-Dec-2017

 -------------------------
 #P B3LYP/6-311+g(d) force
 -------------------------

 -----
 DPGEN
 -----
 Symbolic Z-matrix:
 Charge =  0 Multiplicity = 2

                         Standard orientation:
 ---------------------------------------------------------------------
 Center     Atomic      Atomic             Coordinates (Angstroms)
 Number     Number       Type             X           Y           Z
 ---------------------------------------------------------------------
      1         11           0        0.041447   -1.073581   -1.482499
      2         11           0        2.291298   -0.897634    1.654023
      3         11           0        1.004438    2.284988   -0.049289
      4         11           0       -2.275373    1.702140   -0.453792
      5         11           0        3.584805   -0.460588   -1.258889
      6         11           0       -3.769424   -1.371231   -0.413708
      7         11           0       -0.877190   -0.184093    2.004154
 ---------------------------------------------------------------------

 SCF Done:  E(UB3LYP) =  -1136.12557870     A.U. after   25 cycles

 The electronic state is 2-A.
 Alpha  occ. eigenvalues --  -38.44817 -38.44421 -38.44091 -38.43922 -38.43914
 Alpha  occ. eigenvalues --  -38.43719 -38.42903  -2.20619  -2.20305  -2.19919
 Alpha  occ. eigenvalues --   -2.19816  -2.19800  -2.19510  -2.18762  -1.14335
 Alpha  occ. eigenvalues --   -1.14307  -1.14205  -1.14002  -1.13947  -1.13932
 Alpha  occ. eigenvalues --   -1.13588  -1.13567  -1.13551  -1.13517  -1.13505
 Alpha  occ. eigenvalues --   -1.13489  -1.13424  -1.13417  -1.13403  -1.13186
 Alpha  occ. eigenvalues --   -1.13175  -1.13138  -1.12452  -1.12406  -1.12386
 Alpha  occ. eigenvalues --   -0.18375  -0.13996  -0.11745  -0.10931
 Alpha virt. eigenvalues --   -0.06712  -0.05038  -0.04902  -0.03361  -0.02715
 Alpha virt. eigenvalues --   -0.02508  -0.02277  -0.01083  -0.00991  -0.00210
 Alpha virt. eigenvalues --    0.00105   0.00289   0.00354   0.00460   0.00721

  Beta  occ. eigenvalues --  -38.44799 -38.44364 -38.44078 -38.43892 -38.43859
  Beta  occ. eigenvalues --  -38.43722 -38.42873  -2.20587  -2.20204  -2.19896
  Beta  occ. eigenvalues --   -2.19760  -2.19703  -2.19515  -2.18707  -1.14303
  Beta  occ. eigenvalues --   -1.14279  -1.14183  -1.13916  -1.13882  -1.13859
  Beta  occ. eigenvalues --   -1.13567  -1.13548  -1.13534  -1.13466  -1.13454
  Beta  occ. eigenvalues --   -1.13434  -1.13378  -1.13342  -1.13338  -1.13186
  Beta  occ. eigenvalues --   -1.13177  -1.13142  -1.12408  -1.12362  -1.12349
  Beta  occ. eigenvalues --   -0.17657  -0.13858  -0.10705
  Beta virt. eigenvalues --   -0.07673  -0.06572  -0.04884  -0.04366  -0.02900
  Beta virt. eigenvalues --   -0.02481  -0.02082  -0.01708  -0.00946  -0.00516
  Beta virt. eigenvalues --   -0.00127   0.00136   0.00328   0.00466   0.00591

 Mulliken charges and spin densities:
               1          2
     1  Na  -1.031271   0.261675
     2  Na   0.025318   0.057521
     3  Na  -0.430035   0.247457
     4  Na   0.369013   0.053773
     5  Na   0.791081   0.106863
     6  Na   0.550178  -0.050890
     7  Na  -0.274284   0.323600
 Sum of Mulliken charges =  -0.00000   1.00000

 Dipole moment (field-independent basis, Debye):
    X=              0.3057    Y=              0.2064    Z=              0.0921  Tot=              0.3801
 Quadrupole moment (field-independent basis, Debye-Ang):
   XX=            -53.2228   YY=            -74.2090   ZZ=            -70.0244
   XY=              0.2315   XZ=             -0.7686   YZ=             -4.3630

 Normal termination of Gaussian 16 at Thu Dec  7 08:04:44 2023.
