 Gaussian 16, Revision B.01,
 Gaussian 16:  ES64L-G16RevB.01 20-Dec-2017

 -------------------------
 #P B3LYP/6-311+g(d) force
 -------------------------

 -----
 DPGEN
 -----
 Symbolic Z-matrix:
 Charge =  0 Multiplicity = 2

                         Standard orientation:
 ---------------------------------------------------------------------
 Center     Atomic      Atomic             Coordinates (Angstroms)
 Number     Number       Type             X           Y           Z
 ---------------------------------------------------------------------
      1         11           0       -0.152639   -0.479704   -1.676884
      2         11           0       -0.550347   -2.728085    0.029029
      3         11           0       -3.338382   -0.196788    0.090455
      4         11           0        2.211580   -1.735203    0.449999
      5         11           0        0.374232    0.659759    1.695983
      6         11           0        2.720186    1.762851   -0.580264
      7         11           0       -1.264629    2.717170   -0.008316
 ---------------------------------------------------------------------

 SCF Done:  E(UB3LYP) =  -1136.12967451     A.U. after   19 cycles

 The electronic state is 2-A.
 Alpha  occ. eigenvalues --  -38.44321 -38.44016 -38.43963 -38.43567 -38.43465
 Alpha  occ. eigenvalues --  -38.43330 -38.43146  -2.20109  -2.19823  -2.19797
 Alpha  occ. eigenvalues --   -2.19504  -2.19416  -2.19311  -2.19102  -1.13787
 Alpha  occ. eigenvalues --   -1.13761  -1.13754  -1.13516  -1.13488  -1.13477
 Alpha  occ. eigenvalues --   -1.13468  -1.13457  -1.13407  -1.13353  -1.13247
 Alpha  occ. eigenvalues --   -1.13169  -1.13136  -1.13033  -1.12975  -1.12958
 Alpha  occ. eigenvalues --   -1.12899  -1.12871  -1.12775  -1.12748  -1.12707
 Alpha  occ. eigenvalues --   -0.18781  -0.13046  -0.12720  -0.10441
 Alpha virt. eigenvalues --   -0.05875  -0.05180  -0.04771  -0.03053  -0.03039
 Alpha virt. eigenvalues --   -0.02096  -0.01692  -0.01170  -0.00463  -0.00252
 Alpha virt. eigenvalues --    0.00022   0.00338   0.00810   0.00818   0.00897

  Beta  occ. eigenvalues --  -38.44323 -38.43997 -38.43958 -38.43549 -38.43457
  Beta  occ. eigenvalues --  -38.43262 -38.43082  -2.20114  -2.19793  -2.19789
  Beta  occ. eigenvalues --   -2.19477  -2.19405  -2.19189  -2.18984  -1.13783
  Beta  occ. eigenvalues --   -1.13765  -1.13754  -1.13505  -1.13459  -1.13448
  Beta  occ. eigenvalues --   -1.13446  -1.13440  -1.13405  -1.13332  -1.13211
  Beta  occ. eigenvalues --   -1.13145  -1.13089  -1.13007  -1.12962  -1.12881
  Beta  occ. eigenvalues --   -1.12821  -1.12793  -1.12696  -1.12657  -1.12625
  Beta  occ. eigenvalues --   -0.18083  -0.12798  -0.12476
  Beta virt. eigenvalues --   -0.06605  -0.05824  -0.05122  -0.04690  -0.02356
  Beta virt. eigenvalues --   -0.02287  -0.01601  -0.01137  -0.01055  -0.00491
  Beta virt. eigenvalues --   -0.00277   0.00155   0.00378   0.00816   0.00866

 Mulliken charges and spin densities:
               1          2
     1  Na  -0.297953   0.660295
     2  Na   0.222710  -0.043335
     3  Na  -0.080047  -0.107207
     4  Na   0.361078   0.109870
     5  Na  -0.127137   0.421368
     6  Na  -0.109905   0.038307
     7  Na   0.031254  -0.079297
 Sum of Mulliken charges =  -0.00000   1.00000

 Dipole moment (field-independent basis, Debye):
    X=             -0.2699    Y=              0.3787    Z=              0.0013  Tot=              0.4650
 Quadrupole moment (field-independent basis, Debye-Ang):
   XX=            -55.3096   YY=            -62.0943   ZZ=            -75.4889
   XY=              0.7107   XZ=             -1.1594   YZ=             -2.5385

 Normal termination of Gaussian 16 at Tue Dec  5 20:49:00 2023.
