 Gaussian 16, Revision B.01,
 Gaussian 16:  ES64L-G16RevB.01 20-Dec-2017

 -------------------------
 #P B3LYP/6-311+g(d) force
 -------------------------

 -----
 DPGEN
 -----
 Symbolic Z-matrix:
 Charge =  0 Multiplicity = 2

                         Standard orientation:
 ---------------------------------------------------------------------
 Center     Atomic      Atomic             Coordinates (Angstroms)
 Number     Number       Type             X           Y           Z
 ---------------------------------------------------------------------
      1         11           0        0.935116   -1.674154   -1.019274
      2         11           0        1.551898    1.850824   -0.492705
      3         11           0       -1.938690    2.871856    0.148366
      4         11           0        3.576643   -0.389920    0.446939
      5         11           0       -1.435094   -0.056988   -1.567132
      6         11           0       -0.483636   -0.096421    2.111775
      7         11           0       -2.206238   -2.505198    0.372031
 ---------------------------------------------------------------------

 SCF Done:  E(UB3LYP) =  -1136.13193665     A.U. after   19 cycles

 The electronic state is 2-A.
 Alpha  occ. eigenvalues --  -38.44212 -38.43866 -38.43745 -38.43695 -38.43483
 Alpha  occ. eigenvalues --  -38.43386 -38.43332  -2.20065  -2.19710  -2.19599
 Alpha  occ. eigenvalues --   -2.19565  -2.19439  -2.19367  -2.19133  -1.13729
 Alpha  occ. eigenvalues --   -1.13701  -1.13680  -1.13412  -1.13385  -1.13351
 Alpha  occ. eigenvalues --   -1.13327  -1.13286  -1.13258  -1.13254  -1.13243
 Alpha  occ. eigenvalues --   -1.13236  -1.13151  -1.13089  -1.13028  -1.12996
 Alpha  occ. eigenvalues --   -1.12988  -1.12921  -1.12804  -1.12792  -1.12767
 Alpha  occ. eigenvalues --   -0.18578  -0.13176  -0.12219  -0.11186
 Alpha virt. eigenvalues --   -0.05698  -0.05148  -0.04253  -0.03427  -0.03047
 Alpha virt. eigenvalues --   -0.02844  -0.01557  -0.01306  -0.00371   0.00003
 Alpha virt. eigenvalues --    0.00230   0.00313   0.00778   0.00823   0.00873

  Beta  occ. eigenvalues --  -38.44120 -38.43865 -38.43739 -38.43688 -38.43450
  Beta  occ. eigenvalues --  -38.43333 -38.43328  -2.19894  -2.19709  -2.19590
  Beta  occ. eigenvalues --   -2.19553  -2.19382  -2.19263  -2.19138  -1.13616
  Beta  occ. eigenvalues --   -1.13579  -1.13557  -1.13412  -1.13381  -1.13342
  Beta  occ. eigenvalues --   -1.13289  -1.13267  -1.13247  -1.13229  -1.13218
  Beta  occ. eigenvalues --   -1.13212  -1.13148  -1.13034  -1.12985  -1.12932
  Beta  occ. eigenvalues --   -1.12913  -1.12862  -1.12801  -1.12785  -1.12768
  Beta  occ. eigenvalues --   -0.17814  -0.13004  -0.12048
  Beta virt. eigenvalues --   -0.07160  -0.05495  -0.05147  -0.04186  -0.02769
  Beta virt. eigenvalues --   -0.02308  -0.01870  -0.01485  -0.01236  -0.00098
  Beta virt. eigenvalues --   -0.00035   0.00282   0.00367   0.00817   0.00850

 Mulliken charges and spin densities:
               1          2
     1  Na  -0.308560   0.140919
     2  Na  -0.383274   0.022985
     3  Na   0.021382  -0.089824
     4  Na   0.554515  -0.036147
     5  Na   0.574875   0.286966
     6  Na  -0.445390   0.769847
     7  Na  -0.013547  -0.094746
 Sum of Mulliken charges =  -0.00000   1.00000

 Dipole moment (field-independent basis, Debye):
    X=              0.0836    Y=             -0.1880    Z=              0.4599  Tot=              0.5038
 Quadrupole moment (field-independent basis, Debye-Ang):
   XX=            -57.6530   YY=            -65.0412   ZZ=            -71.4215
   XY=              0.5945   XZ=              0.8219   YZ=             -0.6109

 Normal termination of Gaussian 16 at Fri Dec  8 07:49:38 2023.
