 Gaussian 16, Revision B.01,
 Gaussian 16:  ES64L-G16RevB.01 20-Dec-2017

 -------------------------
 #P B3LYP/6-311+g(d) force
 -------------------------

 -----
 DPGEN
 -----
 Symbolic Z-matrix:
 Charge =  0 Multiplicity = 2

                         Standard orientation:
 ---------------------------------------------------------------------
 Center     Atomic      Atomic             Coordinates (Angstroms)
 Number     Number       Type             X           Y           Z
 ---------------------------------------------------------------------
      1         11           0        0.729334   -2.077457    1.731419
      2         11           0        1.889860    2.377388   -0.037575
      3         11           0       -0.096112    1.001252    2.471880
      4         11           0       -2.612110   -1.824714   -0.196672
      5         11           0       -0.689180   -0.114282   -2.103989
      6         11           0       -2.302297    1.800445   -0.525263
      7         11           0        3.080505   -1.162631   -1.339800
 ---------------------------------------------------------------------

 SCF Done:  E(UB3LYP) =  -1136.11916521     A.U. after   26 cycles

 The electronic state is 2-A.
 Alpha  occ. eigenvalues --  -38.44775 -38.44697 -38.44516 -38.43844 -38.43820
 Alpha  occ. eigenvalues --  -38.43739 -38.43662  -2.20543  -2.20536  -2.20415
 Alpha  occ. eigenvalues --   -2.19657  -2.19591  -2.19585  -2.19462  -1.14210
 Alpha  occ. eigenvalues --   -1.14202  -1.14184  -1.14176  -1.14161  -1.14151
 Alpha  occ. eigenvalues --   -1.14137  -1.14068  -1.14027  -1.13348  -1.13321
 Alpha  occ. eigenvalues --   -1.13306  -1.13279  -1.13269  -1.13253  -1.13248
 Alpha  occ. eigenvalues --   -1.13221  -1.13173  -1.13164  -1.13098  -1.13089
 Alpha  occ. eigenvalues --   -0.17693  -0.12764  -0.12451  -0.11475
 Alpha virt. eigenvalues --   -0.05544  -0.05375  -0.04512  -0.03885  -0.03501
 Alpha virt. eigenvalues --   -0.03245  -0.01327  -0.00938  -0.00537  -0.00055
 Alpha virt. eigenvalues --    0.00165   0.00304   0.00416   0.00548   0.00696

  Beta  occ. eigenvalues --  -38.44719 -38.44612 -38.44473 -38.43845 -38.43822
  Beta  occ. eigenvalues --  -38.43738 -38.43631  -2.20433  -2.20388  -2.20335
  Beta  occ. eigenvalues --   -2.19660  -2.19593  -2.19589  -2.19410  -1.14125
  Beta  occ. eigenvalues --   -1.14105  -1.14103  -1.14097  -1.14083  -1.14080
  Beta  occ. eigenvalues --   -1.14036  -1.14016  -1.13968  -1.13345  -1.13322
  Beta  occ. eigenvalues --   -1.13295  -1.13279  -1.13267  -1.13255  -1.13245
  Beta  occ. eigenvalues --   -1.13219  -1.13174  -1.13114  -1.13064  -1.13049
  Beta  occ. eigenvalues --   -0.16957  -0.12407  -0.11320
  Beta virt. eigenvalues --   -0.08579  -0.05473  -0.04892  -0.03922  -0.03444
  Beta virt. eigenvalues --   -0.03088  -0.02696  -0.01157  -0.00889  -0.00291
  Beta virt. eigenvalues --    0.00030   0.00253   0.00424   0.00510   0.00718

 Mulliken charges and spin densities:
               1          2
     1  Na  -0.310470  -0.248102
     2  Na  -0.348306  -0.180323
     3  Na   0.324540   0.703510
     4  Na  -0.118312   0.155112
     5  Na   0.120329   0.218771
     6  Na   0.218259  -0.150512
     7  Na   0.113959   0.501544
 Sum of Mulliken charges =  -0.00000   1.00000

 Dipole moment (field-independent basis, Debye):
    X=             -0.0847    Y=              0.0801    Z=             -0.1654  Tot=              0.2024
 Quadrupole moment (field-independent basis, Debye-Ang):
   XX=            -61.6476   YY=            -71.4769   ZZ=            -65.2416
   XY=             -0.1641   XZ=             -4.7007   YZ=              0.5896

 Normal termination of Gaussian 16 at Sun Dec  3 23:26:48 2023.
