 Gaussian 16, Revision B.01,
 Gaussian 16:  ES64L-G16RevB.01 20-Dec-2017

 -------------------------
 #P B3LYP/6-311+g(d) force
 -------------------------

 -----
 DPGEN
 -----
 Symbolic Z-matrix:
 Charge =  0 Multiplicity = 2

                         Standard orientation:
 ---------------------------------------------------------------------
 Center     Atomic      Atomic             Coordinates (Angstroms)
 Number     Number       Type             X           Y           Z
 ---------------------------------------------------------------------
      1         11           0        2.625573    2.059978    0.008594
      2         11           0       -2.231897   -1.900511    0.301064
      3         11           0       -0.140996   -0.206822   -1.524677
      4         11           0       -1.420730    1.216675    1.158362
      5         11           0        3.628750   -0.938878   -0.883983
      6         11           0        1.637322   -0.956937    1.594087
      7         11           0       -4.098022    0.726495   -0.653448
 ---------------------------------------------------------------------

 SCF Done:  E(UB3LYP) =  -1136.11043178     A.U. after   29 cycles

 The electronic state is 2-A.
 Alpha  occ. eigenvalues --  -38.45930 -38.44626 -38.44440 -38.43984 -38.43637
 Alpha  occ. eigenvalues --  -38.43570 -38.43458  -2.21780  -2.20495  -2.20281
 Alpha  occ. eigenvalues --   -2.19862  -2.19554  -2.19451  -2.19287  -1.15505
 Alpha  occ. eigenvalues --   -1.15424  -1.15397  -1.14181  -1.14131  -1.14114
 Alpha  occ. eigenvalues --   -1.13954  -1.13932  -1.13913  -1.13542  -1.13529
 Alpha  occ. eigenvalues --   -1.13475  -1.13267  -1.13214  -1.13171  -1.13141
 Alpha  occ. eigenvalues --   -1.13105  -1.13064  -1.12967  -1.12949  -1.12932
 Alpha  occ. eigenvalues --   -0.18529  -0.15034  -0.10870  -0.10235
 Alpha virt. eigenvalues --   -0.07512  -0.05667  -0.04974  -0.03339  -0.02787
 Alpha virt. eigenvalues --   -0.02045  -0.01995  -0.01304  -0.01203  -0.00567
 Alpha virt. eigenvalues --   -0.00105   0.00156   0.00226   0.00485   0.00654

  Beta  occ. eigenvalues --  -38.45923 -38.44574 -38.44407 -38.43950 -38.43592
  Beta  occ. eigenvalues --  -38.43566 -38.43452  -2.21770  -2.20398  -2.20220
  Beta  occ. eigenvalues --   -2.19805  -2.19476  -2.19448  -2.19278  -1.15475
  Beta  occ. eigenvalues --   -1.15423  -1.15392  -1.14118  -1.14066  -1.14045
  Beta  occ. eigenvalues --   -1.13914  -1.13888  -1.13870  -1.13497  -1.13461
  Beta  occ. eigenvalues --   -1.13440  -1.13222  -1.13176  -1.13139  -1.13091
  Beta  occ. eigenvalues --   -1.13081  -1.13041  -1.12963  -1.12948  -1.12897
  Beta  occ. eigenvalues --   -0.17873  -0.14644  -0.10064
  Beta virt. eigenvalues --   -0.07305  -0.07153  -0.05581  -0.04307  -0.03091
  Beta virt. eigenvalues --   -0.02620  -0.01558  -0.01395  -0.01164  -0.00808
  Beta virt. eigenvalues --   -0.00448  -0.00019   0.00187   0.00353   0.00577

 Mulliken charges and spin densities:
               1          2
     1  Na  -0.311486   0.113009
     2  Na   0.209663   0.157671
     3  Na  -0.494997  -0.136834
     4  Na  -0.423177   0.190810
     5  Na   0.532375   0.371797
     6  Na   0.079380   0.083495
     7  Na   0.408243   0.220052
 Sum of Mulliken charges =  -0.00000   1.00000

 Dipole moment (field-independent basis, Debye):
    X=             -0.1125    Y=             -0.6812    Z=             -0.2199  Tot=              0.7246
 Quadrupole moment (field-independent basis, Debye-Ang):
   XX=            -54.0781   YY=            -79.5953   ZZ=            -65.5211
   XY=             -0.1900   XZ=              1.0188   YZ=             -0.7185

 Normal termination of Gaussian 16 at Tue Dec  5 20:08:47 2023.
