 Gaussian 16, Revision B.01,
 Gaussian 16:  ES64L-G16RevB.01 20-Dec-2017

 -------------------------
 #P B3LYP/6-311+g(d) force
 -------------------------

 -----
 DPGEN
 -----
 Symbolic Z-matrix:
 Charge =  0 Multiplicity = 2

                         Standard orientation:
 ---------------------------------------------------------------------
 Center     Atomic      Atomic             Coordinates (Angstroms)
 Number     Number       Type             X           Y           Z
 ---------------------------------------------------------------------
      1         11           0        1.691603    3.217690   -0.237652
      2         11           0       -3.341398   -2.229194    0.262558
      3         11           0       -4.021848    0.609401   -0.127677
      4         11           0        4.510232    0.390889    0.289336
      5         11           0        3.169039   -2.222249   -0.128445
      6         11           0       -1.676740    3.777624    0.112441
      7         11           0       -0.330889   -3.544161   -0.170561
 ---------------------------------------------------------------------

 SCF Done:  E(UB3LYP) =  -1136.10575153     A.U. after   20 cycles

 The electronic state is 2-A.
 Alpha  occ. eigenvalues --  -38.45301 -38.44954 -38.44682 -38.44515 -38.44411
 Alpha  occ. eigenvalues --  -38.44262 -38.44105  -2.21050  -2.20760  -2.20515
 Alpha  occ. eigenvalues --   -2.20274  -2.20254  -2.20097  -2.19914  -1.14727
 Alpha  occ. eigenvalues --   -1.14716  -1.14670  -1.14481  -1.14424  -1.14410
 Alpha  occ. eigenvalues --   -1.14279  -1.14152  -1.14130  -1.13948  -1.13936
 Alpha  occ. eigenvalues --   -1.13915  -1.13906  -1.13903  -1.13893  -1.13758
 Alpha  occ. eigenvalues --   -1.13731  -1.13716  -1.13560  -1.13552  -1.13539
 Alpha  occ. eigenvalues --   -0.15673  -0.14293  -0.13512  -0.11065
 Alpha virt. eigenvalues --   -0.07731  -0.04823  -0.04216  -0.03713  -0.03505
 Alpha virt. eigenvalues --   -0.02632  -0.02198  -0.02010  -0.01577  -0.00485
 Alpha virt. eigenvalues --   -0.00201  -0.00181   0.00052   0.00363   0.00409

  Beta  occ. eigenvalues --  -38.45272 -38.44945 -38.44618 -38.44507 -38.44406
  Beta  occ. eigenvalues --  -38.44216 -38.44026  -2.21000  -2.20751  -2.20400
  Beta  occ. eigenvalues --   -2.20263  -2.20254  -2.20013  -2.19768  -1.14695
  Beta  occ. eigenvalues --   -1.14685  -1.14620  -1.14449  -1.14424  -1.14388
  Beta  occ. eigenvalues --   -1.14205  -1.14075  -1.14051  -1.13943  -1.13932
  Beta  occ. eigenvalues --   -1.13910  -1.13906  -1.13890  -1.13836  -1.13701
  Beta  occ. eigenvalues --   -1.13674  -1.13660  -1.13461  -1.13455  -1.13445
  Beta  occ. eigenvalues --   -0.15077  -0.13616  -0.12761
  Beta virt. eigenvalues --   -0.07941  -0.07805  -0.04320  -0.03723  -0.03526
  Beta virt. eigenvalues --   -0.03094  -0.02455  -0.02003  -0.01936  -0.01404
  Beta virt. eigenvalues --   -0.00130   0.00101   0.00198   0.00248   0.00365

 Mulliken charges and spin densities:
               1          2
     1  Na  -0.309688   0.164084
     2  Na   0.084378   0.014017
     3  Na  -0.410842   0.272881
     4  Na   0.170115   0.151325
     5  Na   0.075276   0.081102
     6  Na   0.077665  -0.017939
     7  Na   0.313096   0.334530
 Sum of Mulliken charges =  -0.00000   1.00000

 Dipole moment (field-independent basis, Debye):
    X=              0.2701    Y=              0.5956    Z=             -0.0063  Tot=              0.6540
 Quadrupole moment (field-independent basis, Debye-Ang):
   XX=            -61.2015   YY=            -65.5335   ZZ=            -74.1267
   XY=              0.0196   XZ=             -0.3063   YZ=              0.1372

 Normal termination of Gaussian 16 at Mon Dec  4 00:52:21 2023.
