 Gaussian 16, Revision B.01,
 Gaussian 16:  ES64L-G16RevB.01 20-Dec-2017

 -------------------------
 #P B3LYP/6-311+g(d) force
 -------------------------

 -----
 DPGEN
 -----
 Symbolic Z-matrix:
 Charge =  0 Multiplicity = 2

                         Standard orientation:
 ---------------------------------------------------------------------
 Center     Atomic      Atomic             Coordinates (Angstroms)
 Number     Number       Type             X           Y           Z
 ---------------------------------------------------------------------
      1         11           0        3.421743   -0.174994    0.398771
      2         11           0       -1.983004   -0.274653   -1.640915
      3         11           0        1.046732    1.986732   -1.515283
      4         11           0        0.785006   -2.311508   -1.227737
      5         11           0       -2.187060   -1.776334    1.255008
      6         11           0        0.873127    0.316233    2.126709
      7         11           0       -1.956544    2.234524    0.603447
 ---------------------------------------------------------------------

 SCF Done:  E(UB3LYP) =  -1136.13056370     A.U. after   21 cycles

 The electronic state is 2-A.
 Alpha  occ. eigenvalues --  -38.44406 -38.44179 -38.44089 -38.43837 -38.43808
 Alpha  occ. eigenvalues --  -38.43701 -38.43315  -2.20261  -2.19977  -2.19903
 Alpha  occ. eigenvalues --   -2.19693  -2.19663  -2.19497  -2.19132  -1.13934
 Alpha  occ. eigenvalues --   -1.13910  -1.13888  -1.13657  -1.13627  -1.13596
 Alpha  occ. eigenvalues --   -1.13586  -1.13569  -1.13525  -1.13379  -1.13356
 Alpha  occ. eigenvalues --   -1.13353  -1.13304  -1.13303  -1.13298  -1.13186
 Alpha  occ. eigenvalues --   -1.13153  -1.13111  -1.12808  -1.12799  -1.12768
 Alpha  occ. eigenvalues --   -0.17977  -0.13024  -0.11867  -0.11595
 Alpha virt. eigenvalues --   -0.05455  -0.05264  -0.04803  -0.03528  -0.03325
 Alpha virt. eigenvalues --   -0.03138  -0.01271  -0.00784  -0.00649  -0.00079
 Alpha virt. eigenvalues --    0.00278   0.00285   0.00447   0.00532   0.00743

  Beta  occ. eigenvalues --  -38.44336 -38.44141 -38.44064 -38.43837 -38.43779
  Beta  occ. eigenvalues --  -38.43675 -38.43314  -2.20133  -2.19906  -2.19858
  Beta  occ. eigenvalues --   -2.19665  -2.19641  -2.19452  -2.19132  -1.13843
  Beta  occ. eigenvalues --   -1.13822  -1.13800  -1.13602  -1.13577  -1.13558
  Beta  occ. eigenvalues --   -1.13548  -1.13532  -1.13488  -1.13340  -1.13335
  Beta  occ. eigenvalues --   -1.13316  -1.13303  -1.13300  -1.13267  -1.13145
  Beta  occ. eigenvalues --   -1.13119  -1.13083  -1.12804  -1.12797  -1.12757
  Beta  occ. eigenvalues --   -0.17188  -0.12885  -0.11405
  Beta virt. eigenvalues --   -0.07999  -0.05246  -0.04990  -0.04277  -0.03277
  Beta virt. eigenvalues --   -0.02758  -0.02304  -0.01207  -0.00695  -0.00361
  Beta virt. eigenvalues --    0.00072   0.00267   0.00435   0.00536   0.00633

 Mulliken charges and spin densities:
               1          2
     1  Na   0.337691   0.003489
     2  Na   0.156880   0.243369
     3  Na  -0.185328   0.195236
     4  Na  -0.236913   0.116592
     5  Na   0.147429   0.113774
     6  Na  -0.425428   0.349684
     7  Na   0.205669  -0.022145
 Sum of Mulliken charges =  -0.00000   1.00000

 Dipole moment (field-independent basis, Debye):
    X=              0.2034    Y=             -0.0163    Z=              0.0894  Tot=              0.2228
 Quadrupole moment (field-independent basis, Debye-Ang):
   XX=            -60.0605   YY=            -72.4459   ZZ=            -64.6133
   XY=              0.0260   XZ=             -2.9236   YZ=             -1.1465

 Normal termination of Gaussian 16 at Mon Dec  4 01:51:48 2023.
