 Gaussian 16, Revision B.01,
 Gaussian 16:  ES64L-G16RevB.01 20-Dec-2017

 -------------------------
 #P B3LYP/6-311+g(d) force
 -------------------------

 -----
 DPGEN
 -----
 Symbolic Z-matrix:
 Charge =  0 Multiplicity = 2

                         Standard orientation:
 ---------------------------------------------------------------------
 Center     Atomic      Atomic             Coordinates (Angstroms)
 Number     Number       Type             X           Y           Z
 ---------------------------------------------------------------------
      1         11           0        0.427019   -1.548609   -1.129521
      2         11           0        3.950261   -1.661197    0.157143
      3         11           0        0.336351   -0.737549    1.548695
      4         11           0       -2.433222    0.742595   -0.929070
      5         11           0        2.715731    1.645153   -0.502492
      6         11           0       -4.738992   -1.162843    0.297960
      7         11           0       -0.257147    2.722450    0.557284
 ---------------------------------------------------------------------

 SCF Done:  E(UB3LYP) =  -1136.11300885     A.U. after   22 cycles

 The electronic state is 2-A.
 Alpha  occ. eigenvalues --  -38.45369 -38.44714 -38.44301 -38.44128 -38.43868
 Alpha  occ. eigenvalues --  -38.43810 -38.42707  -2.21272  -2.20602  -2.20097
 Alpha  occ. eigenvalues --   -2.19930  -2.19699  -2.19666  -2.18564  -1.15104
 Alpha  occ. eigenvalues --   -1.14874  -1.14851  -1.14298  -1.14240  -1.14161
 Alpha  occ. eigenvalues --   -1.13773  -1.13750  -1.13712  -1.13590  -1.13572
 Alpha  occ. eigenvalues --   -1.13555  -1.13391  -1.13365  -1.13358  -1.13321
 Alpha  occ. eigenvalues --   -1.13309  -1.13304  -1.12238  -1.12223  -1.12210
 Alpha  occ. eigenvalues --   -0.17934  -0.13832  -0.11744  -0.10594
 Alpha virt. eigenvalues --   -0.07006  -0.05848  -0.04054  -0.03241  -0.03130
 Alpha virt. eigenvalues --   -0.02358  -0.02074  -0.01406  -0.00851  -0.00659
 Alpha virt. eigenvalues --   -0.00336   0.00013   0.00384   0.00449   0.00665

  Beta  occ. eigenvalues --  -38.45313 -38.44686 -38.44264 -38.44050 -38.43832
  Beta  occ. eigenvalues --  -38.43812 -38.42711  -2.21172  -2.20554  -2.20030
  Beta  occ. eigenvalues --   -2.19785  -2.19676  -2.19633  -2.18571  -1.15025
  Beta  occ. eigenvalues --   -1.14808  -1.14783  -1.14245  -1.14206  -1.14138
  Beta  occ. eigenvalues --   -1.13729  -1.13694  -1.13665  -1.13498  -1.13473
  Beta  occ. eigenvalues --   -1.13458  -1.13374  -1.13347  -1.13322  -1.13315
  Beta  occ. eigenvalues --   -1.13281  -1.13253  -1.12246  -1.12222  -1.12216
  Beta  occ. eigenvalues --   -0.17467  -0.13125  -0.11464
  Beta virt. eigenvalues --   -0.07180  -0.06829  -0.05503  -0.03788  -0.02979
  Beta virt. eigenvalues --   -0.02766  -0.02042  -0.01794  -0.01255  -0.00552
  Beta virt. eigenvalues --   -0.00312  -0.00012   0.00114   0.00488   0.00566

 Mulliken charges and spin densities:
               1          2
     1  Na   0.019145   0.024183
     2  Na   0.377884   0.254839
     3  Na  -0.059355  -0.093828
     4  Na  -0.103768   0.232226
     5  Na  -0.250006   0.262225
     6  Na   0.072710   0.238521
     7  Na  -0.056610   0.081833
 Sum of Mulliken charges =  -0.00000   1.00000

 Dipole moment (field-independent basis, Debye):
    X=              0.7311    Y=             -1.0508    Z=              0.6339  Tot=              1.4285
 Quadrupole moment (field-independent basis, Debye-Ang):
   XX=            -70.9515   YY=            -73.2366   ZZ=            -61.4548
   XY=             -3.2440   XZ=             -1.6980   YZ=             -1.8613

 Normal termination of Gaussian 16 at Tue Dec  5 14:13:40 2023.
