 Gaussian 16, Revision B.01,
 Gaussian 16:  ES64L-G16RevB.01 20-Dec-2017

 -------------------------
 #P B3LYP/6-311+g(d) force
 -------------------------

 -----
 DPGEN
 -----
 Symbolic Z-matrix:
 Charge =  0 Multiplicity = 2

                         Standard orientation:
 ---------------------------------------------------------------------
 Center     Atomic      Atomic             Coordinates (Angstroms)
 Number     Number       Type             X           Y           Z
 ---------------------------------------------------------------------
      1         11           0        2.502426    2.226097    0.375782
      2         11           0       -3.505770    1.111473   -0.962659
      3         11           0        0.874977   -1.415560    1.304185
      4         11           0       -2.126786   -1.922230   -0.288902
      5         11           0        3.410415   -1.082372   -0.799031
      6         11           0       -1.418134    0.664430    2.048294
      7         11           0        0.262872    0.418163   -1.677669
 ---------------------------------------------------------------------

 SCF Done:  E(UB3LYP) =  -1136.12217271     A.U. after   25 cycles

 The electronic state is 2-A.
 Alpha  occ. eigenvalues --  -38.45030 -38.44315 -38.44274 -38.44218 -38.44190
 Alpha  occ. eigenvalues --  -38.43803 -38.42013  -2.20853  -2.20119  -2.20112
 Alpha  occ. eigenvalues --   -2.20080  -2.20060  -2.19597  -2.17941  -1.14527
 Alpha  occ. eigenvalues --   -1.14512  -1.14466  -1.13832  -1.13812  -1.13773
 Alpha  occ. eigenvalues --   -1.13768  -1.13764  -1.13752  -1.13739  -1.13737
 Alpha  occ. eigenvalues --   -1.13707  -1.13694  -1.13681  -1.13670  -1.13274
 Alpha  occ. eigenvalues --   -1.13265  -1.13239  -1.11646  -1.11615  -1.11562
 Alpha  occ. eigenvalues --   -0.18234  -0.14028  -0.11276  -0.10768
 Alpha virt. eigenvalues --   -0.06659  -0.05786  -0.04506  -0.03077  -0.02658
 Alpha virt. eigenvalues --   -0.02575  -0.02253  -0.01259  -0.00779  -0.00375
 Alpha virt. eigenvalues --    0.00125   0.00210   0.00327   0.00516   0.00669

  Beta  occ. eigenvalues --  -38.45004 -38.44274 -38.44247 -38.44203 -38.44117
  Beta  occ. eigenvalues --  -38.43816 -38.42001  -2.20806  -2.20071  -2.20052
  Beta  occ. eigenvalues --   -2.20035  -2.19925  -2.19624  -2.17924  -1.14494
  Beta  occ. eigenvalues --   -1.14474  -1.14433  -1.13798  -1.13764  -1.13739
  Beta  occ. eigenvalues --   -1.13723  -1.13718  -1.13707  -1.13690  -1.13676
  Beta  occ. eigenvalues --   -1.13666  -1.13649  -1.13588  -1.13579  -1.13286
  Beta  occ. eigenvalues --   -1.13282  -1.13255  -1.11636  -1.11562  -1.11558
  Beta  occ. eigenvalues --   -0.17547  -0.13831  -0.10583
  Beta virt. eigenvalues --   -0.07519  -0.06431  -0.05315  -0.04200  -0.02775
  Beta virt. eigenvalues --   -0.02379  -0.01991  -0.01791  -0.00911  -0.00482
  Beta virt. eigenvalues --   -0.00290   0.00195   0.00244   0.00402   0.00606

 Mulliken charges and spin densities:
               1          2
     1  Na  -0.149644   0.171162
     2  Na   0.089848  -0.122468
     3  Na   0.033711   0.275564
     4  Na   0.220460   0.014778
     5  Na   0.543270  -0.099921
     6  Na  -0.206122   0.439663
     7  Na  -0.531523   0.321222
 Sum of Mulliken charges =  -0.00000   1.00000

 Dipole moment (field-independent basis, Debye):
    X=              0.4670    Y=             -0.2121    Z=             -0.1308  Tot=              0.5293
 Quadrupole moment (field-independent basis, Debye-Ang):
   XX=            -51.3933   YY=            -70.6651   ZZ=            -72.8765
   XY=             -0.8608   XZ=             -1.4955   YZ=              7.4246

 Normal termination of Gaussian 16 at Thu Dec  7 15:19:18 2023.
