 Gaussian 16, Revision B.01,
 Gaussian 16:  ES64L-G16RevB.01 20-Dec-2017

 -------------------------
 #P B3LYP/6-311+g(d) force
 -------------------------

 -----
 DPGEN
 -----
 Symbolic Z-matrix:
 Charge =  0 Multiplicity = 2

                         Standard orientation:
 ---------------------------------------------------------------------
 Center     Atomic      Atomic             Coordinates (Angstroms)
 Number     Number       Type             X           Y           Z
 ---------------------------------------------------------------------
      1         11           0        2.546225   -1.915641    1.019505
      2         11           0        5.583921   -0.484946   -0.710609
      3         11           0        3.459777    1.501563    0.203334
      4         11           0        0.164450    2.430495    0.005053
      5         11           0       -0.276309   -1.392607   -0.711940
      6         11           0       -4.306017    0.212858    0.651478
      7         11           0       -7.172047   -0.351722   -0.456820
 ---------------------------------------------------------------------

 SCF Done:  E(UB3LYP) =  -1136.11092768     A.U. after   20 cycles

 The electronic state is 2-A.
 Alpha  occ. eigenvalues --  -38.45472 -38.44614 -38.44563 -38.44397 -38.44000
 Alpha  occ. eigenvalues --  -38.43681 -38.43575  -2.21292  -2.20398  -2.20361
 Alpha  occ. eigenvalues --   -2.20280  -2.19826  -2.19464  -2.19355  -1.14972
 Alpha  occ. eigenvalues --   -1.14952  -1.14886  -1.14070  -1.14062  -1.14037
 Alpha  occ. eigenvalues --   -1.14021  -1.14018  -1.13972  -1.13962  -1.13933
 Alpha  occ. eigenvalues --   -1.13913  -1.13496  -1.13475  -1.13444  -1.13163
 Alpha  occ. eigenvalues --   -1.13136  -1.13124  -1.13013  -1.13012  -1.12958
 Alpha  occ. eigenvalues --   -0.16846  -0.13213  -0.12239  -0.11794
 Alpha virt. eigenvalues --   -0.06529  -0.05436  -0.04724  -0.03545  -0.03106
 Alpha virt. eigenvalues --   -0.02600  -0.02051  -0.01673  -0.01299  -0.01036
 Alpha virt. eigenvalues --   -0.00427  -0.00208   0.00162   0.00207   0.00454

  Beta  occ. eigenvalues --  -38.45403 -38.44582 -38.44493 -38.44350 -38.43993
  Beta  occ. eigenvalues --  -38.43678 -38.43584  -2.21166  -2.20340  -2.20233
  Beta  occ. eigenvalues --   -2.20196  -2.19814  -2.19458  -2.19372  -1.14882
  Beta  occ. eigenvalues --   -1.14872  -1.14784  -1.14030  -1.14013  -1.13976
  Beta  occ. eigenvalues --   -1.13941  -1.13935  -1.13915  -1.13880  -1.13875
  Beta  occ. eigenvalues --   -1.13837  -1.13480  -1.13465  -1.13436  -1.13165
  Beta  occ. eigenvalues --   -1.13130  -1.13122  -1.13024  -1.13024  -1.12966
  Beta  occ. eigenvalues --   -0.15996  -0.13226  -0.11584
  Beta virt. eigenvalues --   -0.08091  -0.06304  -0.05136  -0.04306  -0.03098
  Beta virt. eigenvalues --   -0.02680  -0.02473  -0.01859  -0.01321  -0.01063
  Beta virt. eigenvalues --   -0.00884  -0.00218  -0.00042   0.00333   0.00372

 Mulliken charges and spin densities:
               1          2
     1  Na   0.054552   0.306289
     2  Na   0.599103   0.003831
     3  Na  -0.367583   0.220462
     4  Na   0.012349   0.334424
     5  Na  -0.090231   0.225656
     6  Na  -0.631869  -0.055114
     7  Na   0.423678  -0.035547
 Sum of Mulliken charges =  -0.00000   1.00000

 Dipole moment (field-independent basis, Debye):
    X=              1.8347    Y=             -0.5526    Z=             -0.2312  Tot=              1.9300
 Quadrupole moment (field-independent basis, Debye-Ang):
   XX=            -66.8809   YY=            -67.6081   ZZ=            -68.5255
   XY=             -2.5219   XZ=              2.4209   YZ=              0.9585

 Normal termination of Gaussian 16 at Wed Nov 29 04:02:31 2023.
