 Gaussian 16, Revision B.01,
 Gaussian 16:  ES64L-G16RevB.01 20-Dec-2017

 -------------------------
 #P B3LYP/6-311+g(d) force
 -------------------------

 -----
 DPGEN
 -----
 Symbolic Z-matrix:
 Charge =  0 Multiplicity = 2

                         Standard orientation:
 ---------------------------------------------------------------------
 Center     Atomic      Atomic             Coordinates (Angstroms)
 Number     Number       Type             X           Y           Z
 ---------------------------------------------------------------------
      1         11           0       -1.219599    2.160631    0.383975
      2         11           0        3.662911    0.923342    0.945198
      3         11           0        1.403783    1.034236   -1.368455
      4         11           0       -1.667822   -0.531908   -1.436496
      5         11           0        2.605396   -2.078333   -0.607247
      6         11           0       -4.025104   -0.362420    0.093208
      7         11           0       -0.759565   -1.145547    1.989818
 ---------------------------------------------------------------------

 SCF Done:  E(UB3LYP) =  -1136.10635217     A.U. after   31 cycles

 The electronic state is 2-A.
 Alpha  occ. eigenvalues --  -38.46099 -38.45772 -38.44728 -38.43918 -38.43896
 Alpha  occ. eigenvalues --  -38.42748 -38.42694  -2.21879  -2.21618  -2.20512
 Alpha  occ. eigenvalues --   -2.19890  -2.19694  -2.18625  -2.18615  -1.15558
 Alpha  occ. eigenvalues --   -1.15531  -1.15503  -1.15396  -1.15240  -1.15221
 Alpha  occ. eigenvalues --   -1.14200  -1.14168  -1.14117  -1.13600  -1.13540
 Alpha  occ. eigenvalues --   -1.13471  -1.13376  -1.13346  -1.13334  -1.12343
 Alpha  occ. eigenvalues --   -1.12312  -1.12286  -1.12279  -1.12259  -1.12203
 Alpha  occ. eigenvalues --   -0.18142  -0.14488  -0.10749  -0.10509
 Alpha virt. eigenvalues --   -0.07844  -0.05491  -0.04581  -0.03163  -0.02943
 Alpha virt. eigenvalues --   -0.02484  -0.02060  -0.01374  -0.00881  -0.00521
 Alpha virt. eigenvalues --   -0.00075   0.00076   0.00219   0.00556   0.00654

  Beta  occ. eigenvalues --  -38.46090 -38.45766 -38.44677 -38.43880 -38.43868
  Beta  occ. eigenvalues --  -38.42726 -38.42672  -2.21860  -2.21609  -2.20418
  Beta  occ. eigenvalues --   -2.19799  -2.19667  -2.18587  -2.18580  -1.15547
  Beta  occ. eigenvalues --   -1.15514  -1.15489  -1.15382  -1.15235  -1.15204
  Beta  occ. eigenvalues --   -1.14138  -1.14090  -1.14054  -1.13531  -1.13472
  Beta  occ. eigenvalues --   -1.13407  -1.13350  -1.13327  -1.13314  -1.12319
  Beta  occ. eigenvalues --   -1.12276  -1.12251  -1.12238  -1.12231  -1.12172
  Beta  occ. eigenvalues --   -0.17463  -0.14306  -0.10371
  Beta virt. eigenvalues --   -0.07493  -0.07069  -0.05203  -0.04211  -0.02964
  Beta virt. eigenvalues --   -0.02728  -0.01989  -0.01367  -0.00886  -0.00834
  Beta virt. eigenvalues --   -0.00401   0.00015   0.00117   0.00329   0.00639

 Mulliken charges and spin densities:
               1          2
     1  Na  -0.343251   0.239841
     2  Na   0.124850   0.042701
     3  Na   0.679498   0.240388
     4  Na  -0.204849   0.031757
     5  Na  -0.326942  -0.055109
     6  Na   0.534187   0.154276
     7  Na  -0.463494   0.346144
 Sum of Mulliken charges =  -0.00000   1.00000

 Dipole moment (field-independent basis, Debye):
    X=              0.0283    Y=              0.4423    Z=              0.8648  Tot=              0.9718
 Quadrupole moment (field-independent basis, Debye-Ang):
   XX=            -43.9332   YY=            -77.2994   ZZ=            -72.0154
   XY=              1.1853   XZ=              2.4190   YZ=              4.7778

 Normal termination of Gaussian 16 at Wed Dec  6 00:54:31 2023.
