 Gaussian 16, Revision B.01,
 Gaussian 16:  ES64L-G16RevB.01 20-Dec-2017

 -------------------------
 #P B3LYP/6-311+g(d) force
 -------------------------

 -----
 DPGEN
 -----
 Symbolic Z-matrix:
 Charge =  0 Multiplicity = 2

                         Standard orientation:
 ---------------------------------------------------------------------
 Center     Atomic      Atomic             Coordinates (Angstroms)
 Number     Number       Type             X           Y           Z
 ---------------------------------------------------------------------
      1         11           0       -3.589715   -0.881124    0.120656
      2         11           0        3.444721   -1.081529   -0.105419
      3         11           0        1.876303    2.306686   -0.041312
      4         11           0       -0.153121   -0.291998   -1.833701
      5         11           0       -0.288433   -2.683438    0.017910
      6         11           0        0.310760   -0.194927    1.855355
      7         11           0       -1.600516    2.826330   -0.013489
 ---------------------------------------------------------------------

 SCF Done:  E(UB3LYP) =  -1136.12787472     A.U. after   21 cycles

 The electronic state is 2-A.
 Alpha  occ. eigenvalues --  -38.45102 -38.44729 -38.43672 -38.43602 -38.43539
 Alpha  occ. eigenvalues --  -38.43538 -38.43505  -2.20837  -2.20488  -2.19448
 Alpha  occ. eigenvalues --   -2.19443  -2.19428  -2.19425  -2.19403  -1.14515
 Alpha  occ. eigenvalues --   -1.14497  -1.14471  -1.14162  -1.14152  -1.14123
 Alpha  occ. eigenvalues --   -1.13277  -1.13187  -1.13134  -1.13125  -1.13108
 Alpha  occ. eigenvalues --   -1.13101  -1.13098  -1.13081  -1.13056  -1.13038
 Alpha  occ. eigenvalues --   -1.13036  -1.13018  -1.13011  -1.13006  -1.12989
 Alpha  occ. eigenvalues --   -0.18030  -0.12737  -0.12244  -0.10319
 Alpha virt. eigenvalues --   -0.06565  -0.05357  -0.04584  -0.03014  -0.02713
 Alpha virt. eigenvalues --   -0.02339  -0.02315  -0.01348  -0.00574  -0.00481
 Alpha virt. eigenvalues --   -0.00101   0.00246   0.00650   0.00742   0.00767

  Beta  occ. eigenvalues --  -38.45105 -38.44730 -38.43674 -38.43597 -38.43524
  Beta  occ. eigenvalues --  -38.43457 -38.43424  -2.20844  -2.20492  -2.19451
  Beta  occ. eigenvalues --   -2.19419  -2.19411  -2.19291  -2.19254  -1.14508
  Beta  occ. eigenvalues --   -1.14503  -1.14477  -1.14157  -1.14146  -1.14128
  Beta  occ. eigenvalues --   -1.13228  -1.13127  -1.13116  -1.13112  -1.13105
  Beta  occ. eigenvalues --   -1.13097  -1.13077  -1.13037  -1.13001  -1.12993
  Beta  occ. eigenvalues --   -1.12963  -1.12935  -1.12921  -1.12914  -1.12893
  Beta  occ. eigenvalues --   -0.17289  -0.12574  -0.12036
  Beta virt. eigenvalues --   -0.06509  -0.06423  -0.05383  -0.04508  -0.02321
  Beta virt. eigenvalues --   -0.02205  -0.01978  -0.01328  -0.01299  -0.00615
  Beta virt. eigenvalues --   -0.00503   0.00058   0.00273   0.00700   0.00775

 Mulliken charges and spin densities:
               1          2
     1  Na  -0.025379  -0.115344
     2  Na   0.170155  -0.083187
     3  Na  -0.042912  -0.108389
     4  Na  -0.152404   0.799084
     5  Na   0.311458  -0.135543
     6  Na  -0.107726   0.787818
     7  Na  -0.153191  -0.144439
 Sum of Mulliken charges =  -0.00000   1.00000

 Dipole moment (field-independent basis, Debye):
    X=             -0.1458    Y=             -0.2318    Z=              0.0131  Tot=              0.2742
 Quadrupole moment (field-independent basis, Debye-Ang):
   XX=            -49.0170   YY=            -65.3866   ZZ=            -76.9334
   XY=             -0.7564   XZ=             -1.1904   YZ=             -0.1788

 Normal termination of Gaussian 16 at Thu Dec  7 02:36:01 2023.
