 Gaussian 16, Revision B.01,
 Gaussian 16:  ES64L-G16RevB.01 20-Dec-2017

 -------------------------
 #P B3LYP/6-311+g(d) force
 -------------------------

 -----
 DPGEN
 -----
 Symbolic Z-matrix:
 Charge =  0 Multiplicity = 2

                         Standard orientation:
 ---------------------------------------------------------------------
 Center     Atomic      Atomic             Coordinates (Angstroms)
 Number     Number       Type             X           Y           Z
 ---------------------------------------------------------------------
      1         11           0        2.471256    0.640206    1.173856
      2         11           0       -0.760340    1.569449    1.713567
      3         11           0        0.196864   -0.926756   -0.285243
      4         11           0       -2.963198    0.473777   -0.990663
      5         11           0        3.891595   -2.050703   -0.685142
      6         11           0        0.406159    2.776866   -1.319641
      7         11           0       -3.242335   -2.482840    0.393267
 ---------------------------------------------------------------------

 SCF Done:  E(UB3LYP) =  -1136.12526623     A.U. after   21 cycles

 The electronic state is 2-A.
 Alpha  occ. eigenvalues --  -38.44303 -38.44265 -38.44121 -38.43784 -38.43776
 Alpha  occ. eigenvalues --  -38.43702 -38.43547  -2.20147  -2.20054  -2.20017
 Alpha  occ. eigenvalues --   -2.19670  -2.19592  -2.19475  -2.19448  -1.13839
 Alpha  occ. eigenvalues --   -1.13827  -1.13785  -1.13767  -1.13716  -1.13711
 Alpha  occ. eigenvalues --   -1.13693  -1.13661  -1.13630  -1.13375  -1.13335
 Alpha  occ. eigenvalues --   -1.13267  -1.13259  -1.13235  -1.13224  -1.13142
 Alpha  occ. eigenvalues --   -1.13139  -1.13129  -1.13091  -1.13085  -1.13054
 Alpha  occ. eigenvalues --   -0.17950  -0.13522  -0.11934  -0.10349
 Alpha virt. eigenvalues --   -0.06127  -0.05952  -0.04712  -0.02980  -0.02752
 Alpha virt. eigenvalues --   -0.02157  -0.01929  -0.01573  -0.01135  -0.00274
 Alpha virt. eigenvalues --   -0.00185   0.00137   0.00303   0.00536   0.00692

  Beta  occ. eigenvalues --  -38.44282 -38.44264 -38.44110 -38.43758 -38.43728
  Beta  occ. eigenvalues --  -38.43682 -38.43497  -2.20110  -2.20053  -2.20001
  Beta  occ. eigenvalues --   -2.19629  -2.19505  -2.19438  -2.19360  -1.13814
  Beta  occ. eigenvalues --   -1.13801  -1.13765  -1.13733  -1.13713  -1.13705
  Beta  occ. eigenvalues --   -1.13674  -1.13650  -1.13622  -1.13347  -1.13302
  Beta  occ. eigenvalues --   -1.13217  -1.13197  -1.13173  -1.13162  -1.13115
  Beta  occ. eigenvalues --   -1.13112  -1.13070  -1.13065  -1.13012  -1.12985
  Beta  occ. eigenvalues --   -0.17318  -0.13341  -0.11656
  Beta virt. eigenvalues --   -0.06683  -0.05856  -0.05793  -0.04409  -0.02621
  Beta virt. eigenvalues --   -0.02330  -0.02093  -0.01607  -0.01007  -0.00884
  Beta virt. eigenvalues --   -0.00088  -0.00003   0.00221   0.00406   0.00600

 Mulliken charges and spin densities:
               1          2
     1  Na   0.250241   0.084670
     2  Na   0.653149   0.179468
     3  Na  -2.581924   0.178972
     4  Na   1.022046   0.137345
     5  Na   0.278863   0.121467
     6  Na  -0.358119   0.377103
     7  Na   0.735743  -0.079025
 Sum of Mulliken charges =  -0.00000   1.00000

 Dipole moment (field-independent basis, Debye):
    X=             -0.6289    Y=              0.0808    Z=              0.2665  Tot=              0.6878
 Quadrupole moment (field-independent basis, Debye-Ang):
   XX=            -56.9757   YY=            -64.4097   ZZ=            -72.0571
   XY=              2.6477   XZ=             -2.0545   YZ=              0.1426

 Normal termination of Gaussian 16 at Tue Dec  5 21:34:05 2023.
