 Gaussian 16, Revision B.01,
 Gaussian 16:  ES64L-G16RevB.01 20-Dec-2017

 -------------------------
 #P B3LYP/6-311+g(d) force
 -------------------------

 -----
 DPGEN
 -----
 Symbolic Z-matrix:
 Charge =  0 Multiplicity = 2

                         Standard orientation:
 ---------------------------------------------------------------------
 Center     Atomic      Atomic             Coordinates (Angstroms)
 Number     Number       Type             X           Y           Z
 ---------------------------------------------------------------------
      1         11           0        2.730848    1.566913   -0.271128
      2         11           0       -1.561724    2.755073   -0.453724
      3         11           0       -3.043066   -0.147792    0.020159
      4         11           0       -1.270809   -2.776808   -0.007718
      5         11           0        2.723560   -1.387037    0.221156
      6         11           0        0.044138    0.520518    2.115272
      7         11           0        0.377052   -0.530868   -1.624017
 ---------------------------------------------------------------------

 SCF Done:  E(UB3LYP) =  -1136.13003631     A.U. after   20 cycles

 The electronic state is 2-A.
 Alpha  occ. eigenvalues --  -38.44378 -38.44345 -38.44112 -38.43775 -38.43480
 Alpha  occ. eigenvalues --  -38.43375 -38.43131  -2.20251  -2.20232  -2.19976
 Alpha  occ. eigenvalues --   -2.19621  -2.19433  -2.19182  -2.18989  -1.14064
 Alpha  occ. eigenvalues --   -1.13931  -1.13894  -1.13887  -1.13858  -1.13790
 Alpha  occ. eigenvalues --   -1.13654  -1.13644  -1.13624  -1.13286  -1.13253
 Alpha  occ. eigenvalues --   -1.13237  -1.13123  -1.13071  -1.13067  -1.12852
 Alpha  occ. eigenvalues --   -1.12838  -1.12826  -1.12664  -1.12644  -1.12625
 Alpha  occ. eigenvalues --   -0.18469  -0.13706  -0.11975  -0.10678
 Alpha virt. eigenvalues --   -0.05902  -0.05544  -0.04445  -0.03578  -0.02861
 Alpha virt. eigenvalues --   -0.02370  -0.01679  -0.01116  -0.00493  -0.00403
 Alpha virt. eigenvalues --   -0.00030   0.00367   0.00706   0.00811   0.00888

  Beta  occ. eigenvalues --  -38.44372 -38.44338 -38.44110 -38.43682 -38.43425
  Beta  occ. eigenvalues --  -38.43368 -38.43130  -2.20242  -2.20223  -2.19974
  Beta  occ. eigenvalues --   -2.19449  -2.19334  -2.19170  -2.18988  -1.14063
  Beta  occ. eigenvalues --   -1.13921  -1.13877  -1.13863  -1.13829  -1.13788
  Beta  occ. eigenvalues --   -1.13651  -1.13636  -1.13618  -1.13172  -1.13131
  Beta  occ. eigenvalues --   -1.13113  -1.13052  -1.13000  -1.12994  -1.12843
  Beta  occ. eigenvalues --   -1.12821  -1.12816  -1.12663  -1.12638  -1.12615
  Beta  occ. eigenvalues --   -0.17753  -0.13495  -0.11789
  Beta virt. eigenvalues --   -0.06798  -0.05817  -0.05487  -0.04375  -0.02786
  Beta virt. eigenvalues --   -0.02123  -0.01574  -0.01430  -0.01039  -0.00522
  Beta virt. eigenvalues --   -0.00420   0.00146   0.00406   0.00790   0.00827

 Mulliken charges and spin densities:
               1          2
     1  Na   0.103419  -0.044691
     2  Na  -0.090045  -0.025458
     3  Na   0.077892   0.010109
     4  Na   0.151295  -0.018227
     5  Na   0.283526   0.077437
     6  Na  -0.440476   0.606694
     7  Na  -0.085611   0.394136
 Sum of Mulliken charges =  -0.00000   1.00000

 Dipole moment (field-independent basis, Debye):
    X=              0.5317    Y=              0.0742    Z=              0.1346  Tot=              0.5535
 Quadrupole moment (field-independent basis, Debye-Ang):
   XX=            -56.0289   YY=            -64.7007   ZZ=            -74.4869
   XY=              0.8052   XZ=              0.2402   YZ=             -2.5513

 Normal termination of Gaussian 16 at Thu Dec  7 14:19:34 2023.
