 Gaussian 16, Revision B.01,
 Gaussian 16:  ES64L-G16RevB.01 20-Dec-2017

 -------------------------
 #P B3LYP/6-311+g(d) force
 -------------------------

 -----
 DPGEN
 -----
 Symbolic Z-matrix:
 Charge =  0 Multiplicity = 2

                         Standard orientation:
 ---------------------------------------------------------------------
 Center     Atomic      Atomic             Coordinates (Angstroms)
 Number     Number       Type             X           Y           Z
 ---------------------------------------------------------------------
      1         11           0       -3.510092    0.244800   -1.165474
      2         11           0        1.321442   -0.369184    2.221493
      3         11           0        2.639442   -1.716077   -1.418578
      4         11           0       -0.206888    0.066503   -1.360074
      5         11           0       -2.005667   -2.209248    1.240503
      6         11           0        2.565240    1.383248   -0.204293
      7         11           0       -0.803478    2.599958    0.686424
 ---------------------------------------------------------------------

 SCF Done:  E(UB3LYP) =  -1136.12526340     A.U. after   21 cycles

 The electronic state is 2-A.
 Alpha  occ. eigenvalues --  -38.44808 -38.44501 -38.44317 -38.43866 -38.43481
 Alpha  occ. eigenvalues --  -38.43447 -38.42848  -2.20647  -2.20295  -2.20086
 Alpha  occ. eigenvalues --   -2.19773  -2.19410  -2.19318  -2.18661  -1.14305
 Alpha  occ. eigenvalues --   -1.14300  -1.14254  -1.13987  -1.13935  -1.13921
 Alpha  occ. eigenvalues --   -1.13754  -1.13743  -1.13705  -1.13481  -1.13463
 Alpha  occ. eigenvalues --   -1.13365  -1.13105  -1.13072  -1.13056  -1.12970
 Alpha  occ. eigenvalues --   -1.12965  -1.12942  -1.12353  -1.12338  -1.12279
 Alpha  occ. eigenvalues --   -0.18058  -0.13439  -0.11719  -0.11195
 Alpha virt. eigenvalues --   -0.05918  -0.05305  -0.04759  -0.03288  -0.02955
 Alpha virt. eigenvalues --   -0.02658  -0.01855  -0.00884  -0.00878  -0.00103
 Alpha virt. eigenvalues --    0.00170   0.00250   0.00283   0.00469   0.00779

  Beta  occ. eigenvalues --  -38.44723 -38.44489 -38.44276 -38.43858 -38.43456
  Beta  occ. eigenvalues --  -38.43412 -38.42854  -2.20489  -2.20272  -2.20010
  Beta  occ. eigenvalues --   -2.19762  -2.19347  -2.19274  -2.18675  -1.14198
  Beta  occ. eigenvalues --   -1.14187  -1.14142  -1.13965  -1.13922  -1.13907
  Beta  occ. eigenvalues --   -1.13698  -1.13692  -1.13648  -1.13467  -1.13446
  Beta  occ. eigenvalues --   -1.13352  -1.13056  -1.13025  -1.13014  -1.12938
  Beta  occ. eigenvalues --   -1.12923  -1.12917  -1.12363  -1.12340  -1.12283
  Beta  occ. eigenvalues --   -0.17385  -0.13201  -0.10950
  Beta virt. eigenvalues --   -0.07834  -0.05664  -0.04921  -0.04543  -0.02871
  Beta virt. eigenvalues --   -0.02381  -0.01967  -0.01756  -0.00835  -0.00435
  Beta virt. eigenvalues --   -0.00007   0.00246   0.00317   0.00420   0.00583

 Mulliken charges and spin densities:
               1          2
     1  Na   0.675325   0.006552
     2  Na  -0.157532   0.462415
     3  Na   0.281296   0.046258
     4  Na  -1.072750   0.176943
     5  Na  -0.187393   0.239157
     6  Na   0.673982   0.094692
     7  Na  -0.212928  -0.026017
 Sum of Mulliken charges =  -0.00000   1.00000

 Dipole moment (field-independent basis, Debye):
    X=             -0.2305    Y=             -0.0353    Z=              0.2412  Tot=              0.3355
 Quadrupole moment (field-independent basis, Debye-Ang):
   XX=            -54.6075   YY=            -71.9598   ZZ=            -67.9020
   XY=             -0.6334   XZ=              1.4560   YZ=             -1.6191

 Normal termination of Gaussian 16 at Tue Dec  5 13:49:35 2023.
