 Gaussian 16, Revision B.01,
 Gaussian 16:  ES64L-G16RevB.01 20-Dec-2017

 -------------------------
 #P B3LYP/6-311+g(d) force
 -------------------------

 -----
 DPGEN
 -----
 Symbolic Z-matrix:
 Charge =  0 Multiplicity = 2

                         Standard orientation:
 ---------------------------------------------------------------------
 Center     Atomic      Atomic             Coordinates (Angstroms)
 Number     Number       Type             X           Y           Z
 ---------------------------------------------------------------------
      1         11           0       -3.492385   -1.265308    0.247085
      2         11           0       -3.195772    2.292203   -0.117602
      3         11           0        3.598088    1.137947    0.134615
      4         11           0        0.976661    3.155105    0.000550
      5         11           0        0.039869    0.108224   -0.114607
      6         11           0       -0.802938   -3.082068   -0.119136
      7         11           0        2.876477   -2.346103   -0.030905
 ---------------------------------------------------------------------

 SCF Done:  E(UB3LYP) =  -1136.12670112     A.U. after   24 cycles

 The electronic state is 2-A.
 Alpha  occ. eigenvalues --  -38.44995 -38.44810 -38.44242 -38.43669 -38.43500
 Alpha  occ. eigenvalues --  -38.43404 -38.43238  -2.20810  -2.20626  -2.20131
 Alpha  occ. eigenvalues --   -2.19525  -2.19363  -2.19211  -2.19062  -1.14495
 Alpha  occ. eigenvalues --   -1.14468  -1.14454  -1.14309  -1.14289  -1.14268
 Alpha  occ. eigenvalues --   -1.13865  -1.13818  -1.13739  -1.13197  -1.13177
 Alpha  occ. eigenvalues --   -1.13144  -1.13039  -1.13023  -1.12987  -1.12868
 Alpha  occ. eigenvalues --   -1.12850  -1.12833  -1.12724  -1.12708  -1.12688
 Alpha  occ. eigenvalues --   -0.17183  -0.14144  -0.13084  -0.09859
 Alpha virt. eigenvalues --   -0.06951  -0.05356  -0.04259  -0.03310  -0.02812
 Alpha virt. eigenvalues --   -0.02374  -0.02168  -0.01681  -0.01445  -0.00093
 Alpha virt. eigenvalues --    0.00061   0.00352   0.00546   0.00630   0.00661

  Beta  occ. eigenvalues --  -38.44982 -38.44795 -38.44255 -38.43638 -38.43471
  Beta  occ. eigenvalues --  -38.43328 -38.43180  -2.20794  -2.20606  -2.20151
  Beta  occ. eigenvalues --   -2.19469  -2.19313  -2.19070  -2.18954  -1.14491
  Beta  occ. eigenvalues --   -1.14464  -1.14392  -1.14302  -1.14276  -1.14208
  Beta  occ. eigenvalues --   -1.13877  -1.13839  -1.13764  -1.13164  -1.13140
  Beta  occ. eigenvalues --   -1.13095  -1.13009  -1.12990  -1.12938  -1.12772
  Beta  occ. eigenvalues --   -1.12753  -1.12740  -1.12650  -1.12635  -1.12615
  Beta  occ. eigenvalues --   -0.16940  -0.13394  -0.12412
  Beta virt. eigenvalues --   -0.06967  -0.06588  -0.05134  -0.04154  -0.02839
  Beta virt. eigenvalues --   -0.02329  -0.01988  -0.01878  -0.01447  -0.01296
  Beta virt. eigenvalues --    0.00031   0.00303   0.00571   0.00590   0.00736

 Mulliken charges and spin densities:
               1          2
     1  Na   0.667193   0.040207
     2  Na   0.638351   0.526625
     3  Na   0.530513   0.035026
     4  Na   1.462405   0.221875
     5  Na  -5.688437  -0.469603
     6  Na   1.526806   0.208150
     7  Na   0.863169   0.437720
 Sum of Mulliken charges =  -0.00000   1.00000

 Dipole moment (field-independent basis, Debye):
    X=              0.3401    Y=              0.0679    Z=              0.1442  Tot=              0.3756
 Quadrupole moment (field-independent basis, Debye-Ang):
   XX=            -60.5596   YY=            -63.9688   ZZ=            -72.8740
   XY=              7.8543   XZ=             -0.2894   YZ=             -0.0606

 Normal termination of Gaussian 16 at Sat Dec  9 06:26:10 2023.
