 Gaussian 16, Revision B.01,
 Gaussian 16:  ES64L-G16RevB.01 20-Dec-2017

 -------------------------
 #P B3LYP/6-311+g(d) force
 -------------------------

 -----
 DPGEN
 -----
 Symbolic Z-matrix:
 Charge =  0 Multiplicity = 2

                         Standard orientation:
 ---------------------------------------------------------------------
 Center     Atomic      Atomic             Coordinates (Angstroms)
 Number     Number       Type             X           Y           Z
 ---------------------------------------------------------------------
      1         11           0        0.104092   -0.757916   -1.873964
      2         11           0        3.324758   -0.371489    0.278587
      3         11           0       -2.681389   -1.606232   -0.231927
      4         11           0       -2.271971    2.287427    0.005308
      5         11           0        0.351273   -2.253081    0.461662
      6         11           0       -0.219407    0.475447    2.107643
      7         11           0        1.392643    2.225844   -0.747310
 ---------------------------------------------------------------------

 SCF Done:  E(UB3LYP) =  -1136.13015015     A.U. after   20 cycles

 The electronic state is 2-A.
 Alpha  occ. eigenvalues --  -38.44104 -38.43988 -38.43982 -38.43891 -38.43526
 Alpha  occ. eigenvalues --  -38.43514 -38.43143  -2.19955  -2.19916  -2.19867
 Alpha  occ. eigenvalues --   -2.19744  -2.19372  -2.19305  -2.19145  -1.13773
 Alpha  occ. eigenvalues --   -1.13586  -1.13583  -1.13578  -1.13568  -1.13553
 Alpha  occ. eigenvalues --   -1.13542  -1.13496  -1.13479  -1.13422  -1.13404
 Alpha  occ. eigenvalues --   -1.13367  -1.13064  -1.13034  -1.12988  -1.12982
 Alpha  occ. eigenvalues --   -1.12959  -1.12946  -1.12836  -1.12803  -1.12713
 Alpha  occ. eigenvalues --   -0.18709  -0.12923  -0.12233  -0.11340
 Alpha virt. eigenvalues --   -0.05675  -0.05169  -0.04085  -0.03353  -0.03295
 Alpha virt. eigenvalues --   -0.02875  -0.01675  -0.00997  -0.00178  -0.00008
 Alpha virt. eigenvalues --    0.00092   0.00344   0.00749   0.00863   0.00910

  Beta  occ. eigenvalues --  -38.44103 -38.43919 -38.43896 -38.43887 -38.43516
  Beta  occ. eigenvalues --  -38.43506 -38.43123  -2.19917  -2.19829  -2.19739
  Beta  occ. eigenvalues --   -2.19710  -2.19337  -2.19311  -2.19113  -1.13692
  Beta  occ. eigenvalues --   -1.13588  -1.13567  -1.13560  -1.13497  -1.13468
  Beta  occ. eigenvalues --   -1.13448  -1.13413  -1.13384  -1.13379  -1.13366
  Beta  occ. eigenvalues --   -1.13357  -1.13032  -1.13002  -1.12975  -1.12971
  Beta  occ. eigenvalues --   -1.12963  -1.12945  -1.12811  -1.12745  -1.12688
  Beta  occ. eigenvalues --   -0.17918  -0.12717  -0.12033
  Beta virt. eigenvalues --   -0.07355  -0.05566  -0.05152  -0.03982  -0.02627
  Beta virt. eigenvalues --   -0.02567  -0.01854  -0.01592  -0.00942  -0.00063
  Beta virt. eigenvalues --    0.00055   0.00062   0.00369   0.00826   0.00892

 Mulliken charges and spin densities:
               1          2
     1  Na  -0.479497   0.461818
     2  Na   0.106843  -0.088878
     3  Na   0.298923  -0.061909
     4  Na  -0.030229  -0.087506
     5  Na   0.538989   0.190324
     6  Na  -0.535189   0.515929
     7  Na   0.100161   0.070222
 Sum of Mulliken charges =  -0.00000   1.00000

 Dipole moment (field-independent basis, Debye):
    X=              0.0159    Y=              0.0631    Z=              0.0384  Tot=              0.0756
 Quadrupole moment (field-independent basis, Debye-Ang):
   XX=            -55.2608   YY=            -69.1102   ZZ=            -70.3809
   XY=              0.4398   XZ=              1.3684   YZ=             -1.8299

 Normal termination of Gaussian 16 at Tue Dec  5 15:31:28 2023.
