 Gaussian 16, Revision B.01,
 Gaussian 16:  ES64L-G16RevB.01 20-Dec-2017

 -------------------------
 #P B3LYP/6-311+g(d) force
 -------------------------

 -----
 DPGEN
 -----
 Symbolic Z-matrix:
 Charge =  0 Multiplicity = 2

                         Standard orientation:
 ---------------------------------------------------------------------
 Center     Atomic      Atomic             Coordinates (Angstroms)
 Number     Number       Type             X           Y           Z
 ---------------------------------------------------------------------
      1         11           0       -3.152881   -1.141452   -0.063530
      2         11           0        0.118151   -0.165507   -1.759382
      3         11           0       -2.029067    2.320032    0.462382
      4         11           0        1.206280    2.587008   -0.584326
      5         11           0        0.044447   -2.748556   -0.331471
      6         11           0        0.332995   -0.347328    1.988008
      7         11           0        3.480076   -0.504196    0.288319
 ---------------------------------------------------------------------

 SCF Done:  E(UB3LYP) =  -1136.13183203     A.U. after   19 cycles

 The electronic state is 2-A.
 Alpha  occ. eigenvalues --  -38.44590 -38.44293 -38.43936 -38.43520 -38.43485
 Alpha  occ. eigenvalues --  -38.43469 -38.43356  -2.20358  -2.20076  -2.19804
 Alpha  occ. eigenvalues --   -2.19483  -2.19378  -2.19277  -2.19205  -1.14035
 Alpha  occ. eigenvalues --   -1.14011  -1.13996  -1.13755  -1.13732  -1.13719
 Alpha  occ. eigenvalues --   -1.13485  -1.13449  -1.13410  -1.13308  -1.13155
 Alpha  occ. eigenvalues --   -1.13077  -1.13036  -1.13005  -1.12957  -1.12954
 Alpha  occ. eigenvalues --   -1.12943  -1.12928  -1.12886  -1.12849  -1.12811
 Alpha  occ. eigenvalues --   -0.18286  -0.12711  -0.12435  -0.10860
 Alpha virt. eigenvalues --   -0.06124  -0.04992  -0.04573  -0.03153  -0.03023
 Alpha virt. eigenvalues --   -0.02665  -0.01967  -0.01035  -0.00347  -0.00331
 Alpha virt. eigenvalues --   -0.00047   0.00309   0.00754   0.00782   0.00818

  Beta  occ. eigenvalues --  -38.44585 -38.44294 -38.43856 -38.43470 -38.43463
  Beta  occ. eigenvalues --  -38.43442 -38.43341  -2.20352  -2.20081  -2.19658
  Beta  occ. eigenvalues --   -2.19363  -2.19335  -2.19269  -2.19180  -1.14019
  Beta  occ. eigenvalues --   -1.14003  -1.13994  -1.13753  -1.13732  -1.13719
  Beta  occ. eigenvalues --   -1.13389  -1.13348  -1.13300  -1.13234  -1.13062
  Beta  occ. eigenvalues --   -1.13004  -1.12984  -1.12951  -1.12943  -1.12938
  Beta  occ. eigenvalues --   -1.12930  -1.12919  -1.12847  -1.12824  -1.12800
  Beta  occ. eigenvalues --   -0.17569  -0.12484  -0.12177
  Beta virt. eigenvalues --   -0.07019  -0.06047  -0.04918  -0.04506  -0.02482
  Beta virt. eigenvalues --   -0.02280  -0.01858  -0.01631  -0.00969  -0.00382
  Beta virt. eigenvalues --   -0.00311   0.00079   0.00336   0.00814   0.00824

 Mulliken charges and spin densities:
               1          2
     1  Na  -0.072128  -0.044037
     2  Na   0.083602   0.450190
     3  Na  -0.084935   0.000973
     4  Na   0.025602  -0.025327
     5  Na   0.336677  -0.118478
     6  Na  -0.366573   0.811358
     7  Na   0.077755  -0.074677
 Sum of Mulliken charges =  -0.00000   1.00000

 Dipole moment (field-independent basis, Debye):
    X=              0.2137    Y=             -0.2824    Z=              0.2073  Tot=              0.4103
 Quadrupole moment (field-independent basis, Debye-Ang):
   XX=            -53.7510   YY=            -65.6625   ZZ=            -73.9582
   XY=              0.4300   XZ=             -0.5637   YZ=              0.3712

 Normal termination of Gaussian 16 at Thu Dec  7 02:31:52 2023.
