 Gaussian 16, Revision B.01,
 Gaussian 16:  ES64L-G16RevB.01 20-Dec-2017

 -------------------------
 #P B3LYP/6-311+g(d) force
 -------------------------

 -----
 DPGEN
 -----
 Symbolic Z-matrix:
 Charge =  0 Multiplicity = 2

                         Standard orientation:
 ---------------------------------------------------------------------
 Center     Atomic      Atomic             Coordinates (Angstroms)
 Number     Number       Type             X           Y           Z
 ---------------------------------------------------------------------
      1         11           0       -3.279169   -0.245772    0.288383
      2         11           0        1.989296   -2.278965   -0.076749
      3         11           0       -0.214809    0.187509   -1.483205
      4         11           0       -0.438422    3.452594   -0.574460
      5         11           0       -0.946948   -2.595211   -0.342210
      6         11           0       -0.257728    0.538591    1.962787
      7         11           0        3.147779    0.941254    0.225455
 ---------------------------------------------------------------------

 SCF Done:  E(UB3LYP) =  -1136.12899591     A.U. after   20 cycles

 The electronic state is 2-A.
 Alpha  occ. eigenvalues --  -38.44420 -38.44214 -38.44154 -38.43741 -38.43475
 Alpha  occ. eigenvalues --  -38.43336 -38.43227  -2.20201  -2.20037  -2.19936
 Alpha  occ. eigenvalues --   -2.19601  -2.19356  -2.19277  -2.19198  -1.13875
 Alpha  occ. eigenvalues --   -1.13860  -1.13837  -1.13700  -1.13697  -1.13681
 Alpha  occ. eigenvalues --   -1.13610  -1.13579  -1.13571  -1.13289  -1.13232
 Alpha  occ. eigenvalues --   -1.13210  -1.13175  -1.13035  -1.12998  -1.12984
 Alpha  occ. eigenvalues --   -1.12905  -1.12874  -1.12850  -1.12815  -1.12797
 Alpha  occ. eigenvalues --   -0.18378  -0.12789  -0.12695  -0.10488
 Alpha virt. eigenvalues --   -0.06182  -0.05380  -0.04561  -0.03015  -0.02904
 Alpha virt. eigenvalues --   -0.02236  -0.01775  -0.01602  -0.00559  -0.00339
 Alpha virt. eigenvalues --   -0.00029   0.00304   0.00673   0.00763   0.00862

  Beta  occ. eigenvalues --  -38.44413 -38.44204 -38.44128 -38.43664 -38.43474
  Beta  occ. eigenvalues --  -38.43325 -38.43174  -2.20191  -2.20021  -2.19889
  Beta  occ. eigenvalues --   -2.19458  -2.19357  -2.19260  -2.19102  -1.13862
  Beta  occ. eigenvalues --   -1.13847  -1.13833  -1.13690  -1.13675  -1.13666
  Beta  occ. eigenvalues --   -1.13564  -1.13548  -1.13541  -1.13195  -1.13170
  Beta  occ. eigenvalues --   -1.13134  -1.13102  -1.13020  -1.12977  -1.12976
  Beta  occ. eigenvalues --   -1.12878  -1.12835  -1.12808  -1.12755  -1.12730
  Beta  occ. eigenvalues --   -0.17745  -0.12563  -0.12338
  Beta virt. eigenvalues --   -0.06803  -0.06032  -0.05210  -0.04543  -0.02347
  Beta virt. eigenvalues --   -0.02284  -0.01618  -0.01434  -0.01309  -0.00600
  Beta virt. eigenvalues --   -0.00341   0.00124   0.00359   0.00715   0.00842

 Mulliken charges and spin densities:
               1          2
     1  Na   0.338670   0.091760
     2  Na  -0.092648   0.009065
     3  Na  -0.242105   0.175173
     4  Na  -0.098508   0.015420
     5  Na   0.432090   0.147316
     6  Na  -0.434313   0.526594
     7  Na   0.096813   0.034672
 Sum of Mulliken charges =  -0.00000   1.00000

 Dipole moment (field-independent basis, Debye):
    X=             -0.1111    Y=              0.5556    Z=              0.2549  Tot=              0.6213
 Quadrupole moment (field-independent basis, Debye-Ang):
   XX=            -56.6037   YY=            -61.0854   ZZ=            -75.4602
   XY=              0.6736   XZ=              0.0602   YZ=             -0.3172

 Normal termination of Gaussian 16 at Fri Dec  8 03:56:08 2023.
