 Gaussian 16, Revision B.01,
 Gaussian 16:  ES64L-G16RevB.01 20-Dec-2017

 -------------------------
 #P B3LYP/6-311+g(d) force
 -------------------------

 -----
 DPGEN
 -----
 Symbolic Z-matrix:
 Charge =  0 Multiplicity = 2

                         Standard orientation:
 ---------------------------------------------------------------------
 Center     Atomic      Atomic             Coordinates (Angstroms)
 Number     Number       Type             X           Y           Z
 ---------------------------------------------------------------------
      1         11           0        0.540163   -3.072238    0.818613
      2         11           0       -4.528637    0.596304   -0.833204
      3         11           0        4.178200    1.560744   -0.345443
      4         11           0       -2.572368   -2.464497   -0.179619
      5         11           0        1.112768    3.535526    0.152804
      6         11           0        3.578501   -2.173341   -0.426545
      7         11           0       -2.308627    2.017502    0.813394
 ---------------------------------------------------------------------

 SCF Done:  E(UB3LYP) =  -1136.10902570     A.U. after   23 cycles

 The electronic state is 2-A.
 Alpha  occ. eigenvalues --  -38.45325 -38.45302 -38.45075 -38.44512 -38.44077
 Alpha  occ. eigenvalues --  -38.43752 -38.43746  -2.21113  -2.21089  -2.20805
 Alpha  occ. eigenvalues --   -2.20289  -2.19920  -2.19549  -2.19526  -1.14808
 Alpha  occ. eigenvalues --   -1.14779  -1.14765  -1.14760  -1.14750  -1.14701
 Alpha  occ. eigenvalues --   -1.14498  -1.14476  -1.14439  -1.13960  -1.13950
 Alpha  occ. eigenvalues --   -1.13913  -1.13587  -1.13557  -1.13538  -1.13219
 Alpha  occ. eigenvalues --   -1.13216  -1.13195  -1.13191  -1.13182  -1.13148
 Alpha  occ. eigenvalues --   -0.15826  -0.13872  -0.13181  -0.10757
 Alpha virt. eigenvalues --   -0.07669  -0.05004  -0.04460  -0.03582  -0.03412
 Alpha virt. eigenvalues --   -0.02440  -0.02065  -0.01895  -0.01158  -0.01001
 Alpha virt. eigenvalues --   -0.00605  -0.00084   0.00018   0.00426   0.00620

  Beta  occ. eigenvalues --  -38.45304 -38.45255 -38.45083 -38.44480 -38.44024
  Beta  occ. eigenvalues --  -38.43734 -38.43702  -2.21080  -2.21008  -2.20821
  Beta  occ. eigenvalues --   -2.20228  -2.19820  -2.19531  -2.19432  -1.14783
  Beta  occ. eigenvalues --   -1.14761  -1.14713  -1.14704  -1.14691  -1.14620
  Beta  occ. eigenvalues --   -1.14512  -1.14490  -1.14432  -1.13920  -1.13912
  Beta  occ. eigenvalues --   -1.13868  -1.13516  -1.13489  -1.13475  -1.13209
  Beta  occ. eigenvalues --   -1.13207  -1.13162  -1.13128  -1.13117  -1.13086
  Beta  occ. eigenvalues --   -0.15215  -0.13438  -0.12498
  Beta virt. eigenvalues --   -0.07783  -0.07447  -0.04579  -0.03975  -0.03300
  Beta virt. eigenvalues --   -0.03087  -0.02227  -0.01946  -0.01701  -0.00960
  Beta virt. eigenvalues --   -0.00640  -0.00442   0.00123   0.00267   0.00430

 Mulliken charges and spin densities:
               1          2
     1  Na  -0.310892  -0.059798
     2  Na   0.585393   0.269348
     3  Na   0.026806   0.018366
     4  Na   0.026834   0.233588
     5  Na   0.026595   0.188848
     6  Na   0.182859   0.207437
     7  Na  -0.537595   0.142211
 Sum of Mulliken charges =  -0.00000   1.00000

 Dipole moment (field-independent basis, Debye):
    X=             -0.7736    Y=             -0.2573    Z=             -0.2782  Tot=              0.8614
 Quadrupole moment (field-independent basis, Debye-Ang):
   XX=            -58.6055   YY=            -69.9287   ZZ=            -70.8780
   XY=              2.4992   XZ=              1.0338   YZ=              1.1421

 Normal termination of Gaussian 16 at Mon Dec  4 00:32:42 2023.
