 Gaussian 16, Revision B.01,
 Gaussian 16:  ES64L-G16RevB.01 20-Dec-2017

 -------------------------
 #P B3LYP/6-311+g(d) force
 -------------------------

 -----
 DPGEN
 -----
 Symbolic Z-matrix:
 Charge =  0 Multiplicity = 2

                         Standard orientation:
 ---------------------------------------------------------------------
 Center     Atomic      Atomic             Coordinates (Angstroms)
 Number     Number       Type             X           Y           Z
 ---------------------------------------------------------------------
      1         11           0       -3.474828   -1.446269   -0.900555
      2         11           0        1.106199    0.817313    2.085037
      3         11           0       -0.101762   -1.589166   -0.469240
      4         11           0       -2.461276    0.408570    1.527856
      5         11           0        3.625358   -1.631985    0.246168
      6         11           0        2.160287    1.250641   -1.572934
      7         11           0       -0.853977    2.190896   -0.916332
 ---------------------------------------------------------------------

 SCF Done:  E(UB3LYP) =  -1136.12848649     A.U. after   23 cycles

 The electronic state is 2-A.
 Alpha  occ. eigenvalues --  -38.44332 -38.44250 -38.44107 -38.44104 -38.43922
 Alpha  occ. eigenvalues --  -38.43765 -38.42951  -2.20166  -2.20130  -2.19961
 Alpha  occ. eigenvalues --   -2.19937  -2.19697  -2.19598  -2.18813  -1.13863
 Alpha  occ. eigenvalues --   -1.13811  -1.13802  -1.13798  -1.13770  -1.13748
 Alpha  occ. eigenvalues --   -1.13657  -1.13650  -1.13623  -1.13609  -1.13571
 Alpha  occ. eigenvalues --   -1.13533  -1.13369  -1.13365  -1.13327  -1.13263
 Alpha  occ. eigenvalues --   -1.13242  -1.13234  -1.12502  -1.12467  -1.12445
 Alpha  occ. eigenvalues --   -0.18118  -0.13747  -0.11433  -0.11338
 Alpha virt. eigenvalues --   -0.06284  -0.05326  -0.04798  -0.03302  -0.02789
 Alpha virt. eigenvalues --   -0.02428  -0.02245  -0.01193  -0.00788  -0.00199
 Alpha virt. eigenvalues --    0.00148   0.00194   0.00328   0.00464   0.00723

  Beta  occ. eigenvalues --  -38.44259 -38.44222 -38.44091 -38.44057 -38.43921
  Beta  occ. eigenvalues --  -38.43754 -38.42933  -2.20080  -2.20031  -2.19917
  Beta  occ. eigenvalues --   -2.19870  -2.19696  -2.19578  -2.18783  -1.13780
  Beta  occ. eigenvalues --   -1.13768  -1.13756  -1.13712  -1.13707  -1.13664
  Beta  occ. eigenvalues --   -1.13621  -1.13613  -1.13577  -1.13553  -1.13523
  Beta  occ. eigenvalues --   -1.13499  -1.13367  -1.13359  -1.13327  -1.13248
  Beta  occ. eigenvalues --   -1.13229  -1.13221  -1.12474  -1.12439  -1.12417
  Beta  occ. eigenvalues --   -0.17437  -0.13577  -0.11052
  Beta virt. eigenvalues --   -0.07526  -0.06160  -0.05167  -0.04234  -0.02969
  Beta virt. eigenvalues --   -0.02297  -0.02125  -0.01777  -0.00990  -0.00360
  Beta virt. eigenvalues --   -0.00120   0.00191   0.00264   0.00442   0.00574

 Mulliken charges and spin densities:
               1          2
     1  Na   0.569122  -0.095615
     2  Na  -0.282714   0.362365
     3  Na  -1.506968   0.287055
     4  Na   0.564929   0.141442
     5  Na   0.776429   0.025171
     6  Na   0.128164   0.110196
     7  Na  -0.248962   0.169385
 Sum of Mulliken charges =  -0.00000   1.00000

 Dipole moment (field-independent basis, Debye):
    X=              0.0451    Y=              0.2055    Z=              0.1721  Tot=              0.2718
 Quadrupole moment (field-independent basis, Debye-Ang):
   XX=            -52.5700   YY=            -75.5691   ZZ=            -67.6130
   XY=             -0.8236   XZ=              0.4475   YZ=              0.4405

 Normal termination of Gaussian 16 at Tue Dec  5 23:15:03 2023.
