 Gaussian 16, Revision B.01,
 Gaussian 16:  ES64L-G16RevB.01 20-Dec-2017

 -------------------------
 #P B3LYP/6-311+g(d) force
 -------------------------

 -----
 DPGEN
 -----
 Symbolic Z-matrix:
 Charge =  0 Multiplicity = 2

                         Standard orientation:
 ---------------------------------------------------------------------
 Center     Atomic      Atomic             Coordinates (Angstroms)
 Number     Number       Type             X           Y           Z
 ---------------------------------------------------------------------
      1         11           0       -1.196024    3.606662   -0.703492
      2         11           0        1.482902   -2.762573    0.007966
      3         11           0       -3.363048    0.535117    0.069990
      4         11           0        3.753845    0.263260   -1.096918
      5         11           0        2.049760    1.708337    0.900639
      6         11           0       -2.139924   -2.416468   -1.376288
      7         11           0       -0.587511   -0.934335    2.198103
 ---------------------------------------------------------------------

 SCF Done:  E(UB3LYP) =  -1136.11171224     A.U. after   21 cycles

 The electronic state is 2-A.
 Alpha  occ. eigenvalues --  -38.44962 -38.44932 -38.44483 -38.44390 -38.44372
 Alpha  occ. eigenvalues --  -38.44228 -38.44062  -2.20683  -2.20677  -2.20251
 Alpha  occ. eigenvalues --   -2.20176  -2.20167  -2.20049  -2.19886  -1.14371
 Alpha  occ. eigenvalues --   -1.14358  -1.14357  -1.14331  -1.14321  -1.14313
 Alpha  occ. eigenvalues --   -1.13959  -1.13940  -1.13924  -1.13884  -1.13837
 Alpha  occ. eigenvalues --   -1.13836  -1.13819  -1.13805  -1.13792  -1.13688
 Alpha  occ. eigenvalues --   -1.13667  -1.13657  -1.13540  -1.13523  -1.13500
 Alpha  occ. eigenvalues --   -0.16611  -0.13394  -0.12182  -0.10603
 Alpha virt. eigenvalues --   -0.07142  -0.06167  -0.04079  -0.03698  -0.03060
 Alpha virt. eigenvalues --   -0.02804  -0.01626  -0.01586  -0.01326  -0.00847
 Alpha virt. eigenvalues --   -0.00349  -0.00078   0.00376   0.00505   0.00532

  Beta  occ. eigenvalues --  -38.44965 -38.44932 -38.44476 -38.44370 -38.44342
  Beta  occ. eigenvalues --  -38.44192 -38.43964  -2.20687  -2.20682  -2.20241
  Beta  occ. eigenvalues --   -2.20175  -2.20079  -2.19981  -2.19706  -1.14366
  Beta  occ. eigenvalues --   -1.14361  -1.14347  -1.14334  -1.14326  -1.14320
  Beta  occ. eigenvalues --   -1.13937  -1.13921  -1.13917  -1.13871  -1.13831
  Beta  occ. eigenvalues --   -1.13813  -1.13776  -1.13749  -1.13730  -1.13641
  Beta  occ. eigenvalues --   -1.13625  -1.13617  -1.13417  -1.13397  -1.13376
  Beta  occ. eigenvalues --   -0.15991  -0.12968  -0.12138
  Beta virt. eigenvalues --   -0.07060  -0.06946  -0.05872  -0.03616  -0.03516
  Beta virt. eigenvalues --   -0.02676  -0.02063  -0.01492  -0.01375  -0.01246
  Beta virt. eigenvalues --   -0.00766  -0.00092   0.00149   0.00487   0.00571

 Mulliken charges and spin densities:
               1          2
     1  Na   0.025509  -0.045743
     2  Na  -0.201971   0.077153
     3  Na  -0.097157   0.140895
     4  Na   0.152326   0.180393
     5  Na  -0.094129  -0.048330
     6  Na  -0.090565   0.186773
     7  Na   0.305988   0.508858
 Sum of Mulliken charges =  -0.00000   1.00000

 Dipole moment (field-independent basis, Debye):
    X=              0.0816    Y=             -0.1363    Z=             -0.5071  Tot=              0.5313
 Quadrupole moment (field-independent basis, Debye-Ang):
   XX=            -65.2007   YY=            -63.6419   ZZ=            -70.9409
   XY=             -2.5674   XZ=             -2.2655   YZ=              0.5328

 Normal termination of Gaussian 16 at Sun Dec  3 14:34:09 2023.
