 Gaussian 16, Revision B.01,
 Gaussian 16:  ES64L-G16RevB.01 20-Dec-2017

 -------------------------
 #P B3LYP/6-311+g(d) force
 -------------------------

 -----
 DPGEN
 -----
 Symbolic Z-matrix:
 Charge =  0 Multiplicity = 2

                         Standard orientation:
 ---------------------------------------------------------------------
 Center     Atomic      Atomic             Coordinates (Angstroms)
 Number     Number       Type             X           Y           Z
 ---------------------------------------------------------------------
      1         11           0       -0.221210   -0.519043    2.277599
      2         11           0        0.076916   -2.055133   -1.308042
      3         11           0       -3.152619   -1.426094    0.500983
      4         11           0        2.872323    1.930886   -0.397080
      5         11           0        3.733636   -1.324258    0.037482
      6         11           0       -1.210097    2.327246    0.959252
      7         11           0       -2.098950    1.066396   -2.070193
 ---------------------------------------------------------------------

 SCF Done:  E(UB3LYP) =  -1136.11750157     A.U. after   23 cycles

 The electronic state is 2-A.
 Alpha  occ. eigenvalues --  -38.44903 -38.44842 -38.44725 -38.44561 -38.44218
 Alpha  occ. eigenvalues --  -38.43966 -38.42842  -2.20686  -2.20682  -2.20464
 Alpha  occ. eigenvalues --   -2.20382  -2.19983  -2.19731  -2.18665  -1.14374
 Alpha  occ. eigenvalues --   -1.14348  -1.14334  -1.14327  -1.14308  -1.14289
 Alpha  occ. eigenvalues --   -1.14148  -1.14124  -1.14101  -1.14042  -1.14018
 Alpha  occ. eigenvalues --   -1.13993  -1.13658  -1.13636  -1.13627  -1.13424
 Alpha  occ. eigenvalues --   -1.13411  -1.13340  -1.12360  -1.12333  -1.12296
 Alpha  occ. eigenvalues --   -0.17308  -0.13182  -0.11660  -0.11210
 Alpha virt. eigenvalues --   -0.06484  -0.05717  -0.04427  -0.03283  -0.03235
 Alpha virt. eigenvalues --   -0.03087  -0.01972  -0.01359  -0.00574  -0.00449
 Alpha virt. eigenvalues --   -0.00130   0.00056   0.00265   0.00522   0.00545

  Beta  occ. eigenvalues --  -38.44897 -38.44747 -38.44727 -38.44477 -38.44220
  Beta  occ. eigenvalues --  -38.43955 -38.42833  -2.20678  -2.20508  -2.20467
  Beta  occ. eigenvalues --   -2.20226  -2.19988  -2.19711  -2.18653  -1.14341
  Beta  occ. eigenvalues --   -1.14336  -1.14318  -1.14230  -1.14181  -1.14171
  Beta  occ. eigenvalues --   -1.14148  -1.14127  -1.14105  -1.13934  -1.13919
  Beta  occ. eigenvalues --   -1.13880  -1.13659  -1.13641  -1.13632  -1.13412
  Beta  occ. eigenvalues --   -1.13384  -1.13328  -1.12346  -1.12304  -1.12291
  Beta  occ. eigenvalues --   -0.16510  -0.13032  -0.11042
  Beta virt. eigenvalues --   -0.07718  -0.06336  -0.05655  -0.03765  -0.03065
  Beta virt. eigenvalues --   -0.02601  -0.02334  -0.01927  -0.01172  -0.00554
  Beta virt. eigenvalues --   -0.00189  -0.00085   0.00305   0.00342   0.00577

 Mulliken charges and spin densities:
               1          2
     1  Na  -0.067040   0.655607
     2  Na  -0.287301   0.040838
     3  Na   0.427550  -0.030789
     4  Na  -0.010861  -0.060290
     5  Na   0.117540  -0.024753
     6  Na  -0.180156  -0.100399
     7  Na   0.000267   0.519785
 Sum of Mulliken charges =  -0.00000   1.00000

 Dipole moment (field-independent basis, Debye):
    X=             -0.1273    Y=             -0.4597    Z=             -0.0191  Tot=              0.4773
 Quadrupole moment (field-independent basis, Debye-Ang):
   XX=            -55.9550   YY=            -74.0386   ZZ=            -67.7502
   XY=              1.2799   XZ=              0.2369   YZ=             -3.6720

 Normal termination of Gaussian 16 at Sun Dec  3 21:53:16 2023.
