 Gaussian 16, Revision B.01,
 Gaussian 16:  ES64L-G16RevB.01 20-Dec-2017

 -------------------------
 #P B3LYP/6-311+g(d) force
 -------------------------

 -----
 DPGEN
 -----
 Symbolic Z-matrix:
 Charge =  0 Multiplicity = 2

                         Standard orientation:
 ---------------------------------------------------------------------
 Center     Atomic      Atomic             Coordinates (Angstroms)
 Number     Number       Type             X           Y           Z
 ---------------------------------------------------------------------
      1         11           0       -2.823499   -1.610912    0.840364
      2         11           0        0.159325   -1.454824   -1.018956
      3         11           0        2.666407    2.308724    0.387744
      4         11           0       -0.664186    1.083907   -0.082959
      5         11           0        1.451314   -0.669264    1.850786
      6         11           0        3.290310   -1.001988   -1.262604
      7         11           0       -4.079671    1.344358   -0.714375
 ---------------------------------------------------------------------

 SCF Done:  E(UB3LYP) =  -1136.11241678     A.U. after   28 cycles

 The electronic state is 2-A.
 Alpha  occ. eigenvalues --  -38.45060 -38.44487 -38.44269 -38.44248 -38.44080
 Alpha  occ. eigenvalues --  -38.43466 -38.43283  -2.20864  -2.20387  -2.20197
 Alpha  occ. eigenvalues --   -2.20132  -2.19884  -2.19445  -2.19091  -1.14551
 Alpha  occ. eigenvalues --   -1.14521  -1.14490  -1.14105  -1.14044  -1.14026
 Alpha  occ. eigenvalues --   -1.13982  -1.13869  -1.13806  -1.13772  -1.13755
 Alpha  occ. eigenvalues --   -1.13738  -1.13543  -1.13536  -1.13504  -1.13159
 Alpha  occ. eigenvalues --   -1.13065  -1.13033  -1.12765  -1.12751  -1.12739
 Alpha  occ. eigenvalues --   -0.18501  -0.14315  -0.11146  -0.10741
 Alpha virt. eigenvalues --   -0.07028  -0.05996  -0.04087  -0.03078  -0.02977
 Alpha virt. eigenvalues --   -0.02288  -0.01924  -0.01591  -0.01050  -0.00444
 Alpha virt. eigenvalues --   -0.00083   0.00177   0.00355   0.00497   0.00527

  Beta  occ. eigenvalues --  -38.45054 -38.44436 -38.44241 -38.44192 -38.44040
  Beta  occ. eigenvalues --  -38.43450 -38.43283  -2.20855  -2.20295  -2.20189
  Beta  occ. eigenvalues --   -2.19989  -2.19809  -2.19420  -2.19095  -1.14545
  Beta  occ. eigenvalues --   -1.14515  -1.14467  -1.14056  -1.14011  -1.13970
  Beta  occ. eigenvalues --   -1.13912  -1.13830  -1.13750  -1.13702  -1.13681
  Beta  occ. eigenvalues --   -1.13638  -1.13490  -1.13484  -1.13457  -1.13148
  Beta  occ. eigenvalues --   -1.13055  -1.12973  -1.12769  -1.12745  -1.12735
  Beta  occ. eigenvalues --   -0.17909  -0.13894  -0.10756
  Beta virt. eigenvalues --   -0.07174  -0.06831  -0.05778  -0.03592  -0.02894
  Beta virt. eigenvalues --   -0.02778  -0.01695  -0.01631  -0.01196  -0.00591
  Beta virt. eigenvalues --   -0.00341   0.00027   0.00209   0.00483   0.00548

 Mulliken charges and spin densities:
               1          2
     1  Na   0.442145   0.075022
     2  Na   0.443663   0.182466
     3  Na   1.108429   0.041416
     4  Na  -2.651337  -0.049213
     5  Na   0.335089   0.334635
     6  Na  -0.005419   0.222120
     7  Na   0.327430   0.193555
 Sum of Mulliken charges =  -0.00000   1.00000

 Dipole moment (field-independent basis, Debye):
    X=             -0.4875    Y=             -0.9998    Z=              0.9839  Tot=              1.4851
 Quadrupole moment (field-independent basis, Debye-Ang):
   XX=            -52.4068   YY=            -74.7204   ZZ=            -68.6640
   XY=              3.5190   XZ=              0.0512   YZ=             -5.0994

 Normal termination of Gaussian 16 at Tue Dec  5 19:36:56 2023.
