 Gaussian 16, Revision B.01,
 Gaussian 16:  ES64L-G16RevB.01 20-Dec-2017

 -------------------------
 #P B3LYP/6-311+g(d) force
 -------------------------

 -----
 DPGEN
 -----
 Symbolic Z-matrix:
 Charge =  0 Multiplicity = 2

                         Standard orientation:
 ---------------------------------------------------------------------
 Center     Atomic      Atomic             Coordinates (Angstroms)
 Number     Number       Type             X           Y           Z
 ---------------------------------------------------------------------
      1         11           0        3.700794   -2.275146   -0.046222
      2         11           0       -1.339953    3.368496   -0.867537
      3         11           0        3.985355    0.515895   -0.568403
      4         11           0       -3.816696    0.741856    0.298516
      5         11           0       -0.280618   -2.593433    0.345582
      6         11           0        1.367775    2.780168    1.111701
      7         11           0       -3.616657   -2.537835   -0.273637
 ---------------------------------------------------------------------

 SCF Done:  E(UB3LYP) =  -1136.10730212     A.U. after   22 cycles

 The electronic state is 2-A.
 Alpha  occ. eigenvalues --  -38.44996 -38.44650 -38.44559 -38.44430 -38.44416
 Alpha  occ. eigenvalues --  -38.44140 -38.43977  -2.20833  -2.20401  -2.20337
 Alpha  occ. eigenvalues --   -2.20259  -2.20223  -2.19927  -2.19780  -1.14606
 Alpha  occ. eigenvalues --   -1.14479  -1.14455  -1.14085  -1.14073  -1.14050
 Alpha  occ. eigenvalues --   -1.14004  -1.13991  -1.13964  -1.13915  -1.13898
 Alpha  occ. eigenvalues --   -1.13894  -1.13893  -1.13876  -1.13858  -1.13586
 Alpha  occ. eigenvalues --   -1.13575  -1.13552  -1.13440  -1.13421  -1.13400
 Alpha  occ. eigenvalues --   -0.15766  -0.14133  -0.13048  -0.10263
 Alpha virt. eigenvalues --   -0.07498  -0.05221  -0.04503  -0.03376  -0.03000
 Alpha virt. eigenvalues --   -0.02768  -0.02436  -0.01903  -0.01217  -0.00564
 Alpha virt. eigenvalues --   -0.00203   0.00000   0.00147   0.00451   0.00545

  Beta  occ. eigenvalues --  -38.44972 -38.44664 -38.44491 -38.44441 -38.44391
  Beta  occ. eigenvalues --  -38.44092 -38.43903  -2.20793  -2.20431  -2.20248
  Beta  occ. eigenvalues --   -2.20218  -2.20211  -2.19837  -2.19644  -1.14564
  Beta  occ. eigenvalues --   -1.14455  -1.14414  -1.14109  -1.14096  -1.14043
  Beta  occ. eigenvalues --   -1.13928  -1.13921  -1.13913  -1.13900  -1.13890
  Beta  occ. eigenvalues --   -1.13880  -1.13867  -1.13839  -1.13823  -1.13523
  Beta  occ. eigenvalues --   -1.13514  -1.13497  -1.13345  -1.13327  -1.13314
  Beta  occ. eigenvalues --   -0.15255  -0.13536  -0.12560
  Beta virt. eigenvalues --   -0.07374  -0.07045  -0.04869  -0.04253  -0.03005
  Beta virt. eigenvalues --   -0.02706  -0.02359  -0.02187  -0.01817  -0.01129
  Beta virt. eigenvalues --   -0.00374  -0.00090   0.00277   0.00419   0.00467

 Mulliken charges and spin densities:
               1          2
     1  Na   0.475053   0.128433
     2  Na   0.133506  -0.087715
     3  Na  -0.242463   0.111514
     4  Na  -0.225872   0.386119
     5  Na  -0.566724   0.291176
     6  Na  -0.143638   0.270540
     7  Na   0.570137  -0.100066
 Sum of Mulliken charges =  -0.00000   1.00000

 Dipole moment (field-independent basis, Debye):
    X=              0.5032    Y=             -0.2527    Z=             -0.2361  Tot=              0.6105
 Quadrupole moment (field-independent basis, Debye-Ang):
   XX=            -66.0152   YY=            -66.0369   ZZ=            -69.8373
   XY=              3.4775   XZ=              2.0004   YZ=             -1.9242

 Normal termination of Gaussian 16 at Mon Dec  4 02:14:32 2023.
