 Gaussian 16, Revision B.01,
 Gaussian 16:  ES64L-G16RevB.01 20-Dec-2017

 -------------------------
 #P B3LYP/6-311+g(d) force
 -------------------------

 -----
 DPGEN
 -----
 Symbolic Z-matrix:
 Charge =  0 Multiplicity = 2

                         Standard orientation:
 ---------------------------------------------------------------------
 Center     Atomic      Atomic             Coordinates (Angstroms)
 Number     Number       Type             X           Y           Z
 ---------------------------------------------------------------------
      1         11           0        0.025846   -1.961512    0.592305
      2         11           0       -3.610326   -3.060176   -0.514717
      3         11           0       -3.235487    0.311933    0.090969
      4         11           0        0.079755    1.514969   -0.751886
      5         11           0        2.586211   -0.301298    0.915633
      6         11           0       -2.054022    3.756171    0.220814
      7         11           0        6.208022   -0.260087   -0.553119
 ---------------------------------------------------------------------

 SCF Done:  E(UB3LYP) =  -1136.12191498     A.U. after   19 cycles

 The electronic state is 2-A.
 Alpha  occ. eigenvalues --  -38.45207 -38.44346 -38.44165 -38.44087 -38.43813
 Alpha  occ. eigenvalues --  -38.43659 -38.43394  -2.20994  -2.20195  -2.20008
 Alpha  occ. eigenvalues --   -2.19901  -2.19623  -2.19440  -2.19241  -1.14620
 Alpha  occ. eigenvalues --   -1.14620  -1.14595  -1.13897  -1.13880  -1.13804
 Alpha  occ. eigenvalues --   -1.13692  -1.13682  -1.13638  -1.13609  -1.13601
 Alpha  occ. eigenvalues --   -1.13482  -1.13289  -1.13282  -1.13250  -1.13106
 Alpha  occ. eigenvalues --   -1.13102  -1.13063  -1.12926  -1.12900  -1.12887
 Alpha  occ. eigenvalues --   -0.16735  -0.13719  -0.12383  -0.11509
 Alpha virt. eigenvalues --   -0.05761  -0.05492  -0.04953  -0.03786  -0.02601
 Alpha virt. eigenvalues --   -0.02133  -0.01952  -0.01791  -0.01535  -0.00878
 Alpha virt. eigenvalues --   -0.00518  -0.00103   0.00162   0.00431   0.00592

  Beta  occ. eigenvalues --  -38.45059 -38.44337 -38.44137 -38.44077 -38.43809
  Beta  occ. eigenvalues --  -38.43646 -38.43392  -2.20717  -2.20181  -2.19959
  Beta  occ. eigenvalues --   -2.19882  -2.19616  -2.19415  -2.19246  -1.14433
  Beta  occ. eigenvalues --   -1.14432  -1.14409  -1.13890  -1.13870  -1.13787
  Beta  occ. eigenvalues --   -1.13659  -1.13647  -1.13600  -1.13597  -1.13586
  Beta  occ. eigenvalues --   -1.13466  -1.13284  -1.13278  -1.13245  -1.13090
  Beta  occ. eigenvalues --   -1.13082  -1.13049  -1.12929  -1.12909  -1.12846
  Beta  occ. eigenvalues --   -0.16407  -0.12820  -0.12253
  Beta virt. eigenvalues --   -0.07593  -0.05625  -0.05396  -0.04487  -0.03571
  Beta virt. eigenvalues --   -0.02330  -0.01863  -0.01739  -0.01265  -0.01040
  Beta virt. eigenvalues --   -0.00483  -0.00259   0.00088   0.00341   0.00544

 Mulliken charges and spin densities:
               1          2
     1  Na  -0.382698  -0.009404
     2  Na   0.515253   0.037147
     3  Na  -0.311158   0.173498
     4  Na  -1.037668  -0.045427
     5  Na   0.375447   0.081482
     6  Na   0.832811   0.022082
     7  Na   0.008014   0.740622
 Sum of Mulliken charges =  -0.00000   1.00000

 Dipole moment (field-independent basis, Debye):
    X=             -0.2600    Y=              0.4041    Z=             -0.0627  Tot=              0.4846
 Quadrupole moment (field-independent basis, Debye-Ang):
   XX=            -66.8339   YY=            -61.4112   ZZ=            -70.1927
   XY=             -0.4142   XZ=             -1.5666   YZ=              1.9054

 Normal termination of Gaussian 16 at Wed Nov 29 03:57:54 2023.
