 Gaussian 16, Revision B.01,
 Gaussian 16:  ES64L-G16RevB.01 20-Dec-2017

 -------------------------
 #P B3LYP/6-311+g(d) force
 -------------------------

 -----
 DPGEN
 -----
 Symbolic Z-matrix:
 Charge =  0 Multiplicity = 2

                         Standard orientation:
 ---------------------------------------------------------------------
 Center     Atomic      Atomic             Coordinates (Angstroms)
 Number     Number       Type             X           Y           Z
 ---------------------------------------------------------------------
      1         11           0       -1.370740    2.462417   -0.154363
      2         11           0        0.230167   -0.147325    2.122895
      3         11           0       -0.099700   -0.145566   -1.600992
      4         11           0       -0.323099   -2.831910    0.078691
      5         11           0        2.145868    2.505745    0.026965
      6         11           0        2.852614   -1.467844   -0.400423
      7         11           0       -3.435110   -0.375517   -0.072773
 ---------------------------------------------------------------------

 SCF Done:  E(UB3LYP) =  -1136.13622940     A.U. after   19 cycles

 The electronic state is 2-A.
 Alpha  occ. eigenvalues --  -38.44119 -38.44091 -38.43738 -38.43652 -38.43563
 Alpha  occ. eigenvalues --  -38.43484 -38.43301  -2.19932  -2.19876  -2.19526
 Alpha  occ. eigenvalues --   -2.19517  -2.19432  -2.19341  -2.19263  -1.13610
 Alpha  occ. eigenvalues --   -1.13586  -1.13570  -1.13549  -1.13536  -1.13520
 Alpha  occ. eigenvalues --   -1.13199  -1.13198  -1.13186  -1.13178  -1.13156
 Alpha  occ. eigenvalues --   -1.13149  -1.13134  -1.13085  -1.13072  -1.13039
 Alpha  occ. eigenvalues --   -1.13008  -1.12946  -1.12938  -1.12891  -1.12864
 Alpha  occ. eigenvalues --   -0.18327  -0.12827  -0.12399  -0.10634
 Alpha virt. eigenvalues --   -0.05737  -0.05325  -0.04772  -0.03050  -0.02840
 Alpha virt. eigenvalues --   -0.02562  -0.01733  -0.01289  -0.00488  -0.00383
 Alpha virt. eigenvalues --   -0.00039   0.00319   0.00737   0.00825   0.00867

  Beta  occ. eigenvalues --  -38.44109 -38.44093 -38.43739 -38.43554 -38.43550
  Beta  occ. eigenvalues --  -38.43479 -38.43243  -2.19915  -2.19881  -2.19529
  Beta  occ. eigenvalues --   -2.19421  -2.19335  -2.19328  -2.19159  -1.13588
  Beta  occ. eigenvalues --   -1.13567  -1.13561  -1.13547  -1.13533  -1.13524
  Beta  occ. eigenvalues --   -1.13190  -1.13183  -1.13181  -1.13155  -1.13086
  Beta  occ. eigenvalues --   -1.13058  -1.13042  -1.13035  -1.13008  -1.12992
  Beta  occ. eigenvalues --   -1.12983  -1.12944  -1.12869  -1.12823  -1.12787
  Beta  occ. eigenvalues --   -0.17605  -0.12590  -0.12216
  Beta virt. eigenvalues --   -0.06700  -0.05689  -0.05324  -0.04710  -0.02288
  Beta virt. eigenvalues --   -0.02123  -0.01649  -0.01494  -0.01220  -0.00535
  Beta virt. eigenvalues --   -0.00412   0.00115   0.00351   0.00787   0.00832

 Mulliken charges and spin densities:
               1          2
     1  Na   0.113832  -0.057167
     2  Na  -0.467067   0.771882
     3  Na  -0.152640   0.448930
     4  Na   0.278890  -0.008065
     5  Na  -0.005557  -0.069205
     6  Na   0.145719  -0.029597
     7  Na   0.086823  -0.056778
 Sum of Mulliken charges =  -0.00000   1.00000

 Dipole moment (field-independent basis, Debye):
    X=              0.0904    Y=             -0.1654    Z=              0.1013  Tot=              0.2140
 Quadrupole moment (field-independent basis, Debye-Ang):
   XX=            -54.9076   YY=            -62.6595   ZZ=            -75.2494
   XY=              0.6587   XZ=             -0.8316   YZ=              0.1465

 Normal termination of Gaussian 16 at Thu Dec  7 07:54:08 2023.
