 Gaussian 16, Revision B.01,
 Gaussian 16:  ES64L-G16RevB.01 20-Dec-2017

 -------------------------
 #P B3LYP/6-311+g(d) force
 -------------------------

 -----
 DPGEN
 -----
 Symbolic Z-matrix:
 Charge =  0 Multiplicity = 2

                         Standard orientation:
 ---------------------------------------------------------------------
 Center     Atomic      Atomic             Coordinates (Angstroms)
 Number     Number       Type             X           Y           Z
 ---------------------------------------------------------------------
      1         11           0       -2.614694    1.490773    0.339667
      2         11           0        1.594570   -2.666502    0.080824
      3         11           0        3.018007    0.493164   -0.072977
      4         11           0        0.071439   -0.197118   -1.629353
      5         11           0       -2.905410   -1.803363   -0.231374
      6         11           0        0.313813   -0.166687    1.758887
      7         11           0        0.522275    2.849735   -0.245673
 ---------------------------------------------------------------------

 SCF Done:  E(UB3LYP) =  -1136.13624164     A.U. after   20 cycles

 The electronic state is 2-A.
 Alpha  occ. eigenvalues --  -38.44214 -38.44208 -38.43828 -38.43687 -38.43199
 Alpha  occ. eigenvalues --  -38.43070 -38.42940  -2.20090  -2.20003  -2.19672
 Alpha  occ. eigenvalues --   -2.19542  -2.19153  -2.19041  -2.18812  -1.13774
 Alpha  occ. eigenvalues --   -1.13762  -1.13716  -1.13672  -1.13670  -1.13645
 Alpha  occ. eigenvalues --   -1.13344  -1.13336  -1.13308  -1.13231  -1.13212
 Alpha  occ. eigenvalues --   -1.13171  -1.12855  -1.12778  -1.12766  -1.12728
 Alpha  occ. eigenvalues --   -1.12678  -1.12654  -1.12483  -1.12467  -1.12456
 Alpha  occ. eigenvalues --   -0.18744  -0.13344  -0.12291  -0.10382
 Alpha virt. eigenvalues --   -0.05953  -0.05372  -0.04583  -0.03177  -0.02633
 Alpha virt. eigenvalues --   -0.02174  -0.01736  -0.01251  -0.00598  -0.00301
 Alpha virt. eigenvalues --    0.00019   0.00339   0.00781   0.00811   0.00871

  Beta  occ. eigenvalues --  -38.44213 -38.44199 -38.43821 -38.43681 -38.43120
  Beta  occ. eigenvalues --  -38.43000 -38.42934  -2.20078  -2.20003  -2.19662
  Beta  occ. eigenvalues --   -2.19535  -2.19008  -2.18913  -2.18805  -1.13767
  Beta  occ. eigenvalues --   -1.13728  -1.13704  -1.13673  -1.13657  -1.13647
  Beta  occ. eigenvalues --   -1.13333  -1.13318  -1.13303  -1.13226  -1.13182
  Beta  occ. eigenvalues --   -1.13166  -1.12759  -1.12677  -1.12659  -1.12637
  Beta  occ. eigenvalues --   -1.12590  -1.12558  -1.12472  -1.12461  -1.12430
  Beta  occ. eigenvalues --   -0.18026  -0.13115  -0.12032
  Beta virt. eigenvalues --   -0.06518  -0.05911  -0.05312  -0.04569  -0.02418
  Beta virt. eigenvalues --   -0.01910  -0.01668  -0.01208  -0.01098  -0.00651
  Beta virt. eigenvalues --   -0.00330   0.00157   0.00368   0.00794   0.00852

 Mulliken charges and spin densities:
               1          2
     1  Na   0.073989   0.021536
     2  Na   0.084344  -0.136305
     3  Na   0.356530   0.013750
     4  Na  -0.270911   0.609846
     5  Na  -0.018180  -0.097828
     6  Na  -0.230532   0.606443
     7  Na   0.004760  -0.017442
 Sum of Mulliken charges =  -0.00000   1.00000

 Dipole moment (field-independent basis, Debye):
    X=              0.0278    Y=             -0.3360    Z=              0.0407  Tot=              0.3396
 Quadrupole moment (field-independent basis, Debye-Ang):
   XX=            -54.3241   YY=            -61.3174   ZZ=            -76.4299
   XY=              0.3280   XZ=             -0.5832   YZ=              0.2408

 Normal termination of Gaussian 16 at Tue Dec  5 12:42:29 2023.
