 Gaussian 16, Revision B.01,
 Gaussian 16:  ES64L-G16RevB.01 20-Dec-2017

 -------------------------
 #P B3LYP/6-311+g(d) force
 -------------------------

 -----
 DPGEN
 -----
 Symbolic Z-matrix:
 Charge =  0 Multiplicity = 2

                         Standard orientation:
 ---------------------------------------------------------------------
 Center     Atomic      Atomic             Coordinates (Angstroms)
 Number     Number       Type             X           Y           Z
 ---------------------------------------------------------------------
      1         11           0       -2.596710    1.644366   -0.445322
      2         11           0       -2.230761   -1.618675   -0.139454
      3         11           0        0.858936   -2.442083   -0.043518
      4         11           0       -0.476937   -0.277418    2.264223
      5         11           0        0.832477    2.880420    0.130580
      6         11           0        3.063271    0.130910    0.203774
      7         11           0        0.549723   -0.317520   -1.970283
 ---------------------------------------------------------------------

 SCF Done:  E(UB3LYP) =  -1136.13314653     A.U. after   18 cycles

 The electronic state is 2-A.
 Alpha  occ. eigenvalues --  -38.44321 -38.44046 -38.43817 -38.43716 -38.43501
 Alpha  occ. eigenvalues --  -38.43324 -38.43138  -2.20193  -2.19996  -2.19661
 Alpha  occ. eigenvalues --   -2.19528  -2.19294  -2.19244  -2.19110  -1.13861
 Alpha  occ. eigenvalues --   -1.13823  -1.13808  -1.13752  -1.13615  -1.13605
 Alpha  occ. eigenvalues --   -1.13328  -1.13326  -1.13301  -1.13208  -1.13190
 Alpha  occ. eigenvalues --   -1.13171  -1.12972  -1.12959  -1.12944  -1.12930
 Alpha  occ. eigenvalues --   -1.12904  -1.12888  -1.12805  -1.12753  -1.12700
 Alpha  occ. eigenvalues --   -0.18760  -0.12953  -0.12377  -0.11453
 Alpha virt. eigenvalues --   -0.05425  -0.04939  -0.04589  -0.03622  -0.03164
 Alpha virt. eigenvalues --   -0.03070  -0.01203  -0.00808  -0.00222  -0.00141
 Alpha virt. eigenvalues --   -0.00002   0.00396   0.00832   0.00864   0.00940

  Beta  occ. eigenvalues --  -38.44225 -38.43974 -38.43814 -38.43709 -38.43502
  Beta  occ. eigenvalues --  -38.43316 -38.43126  -2.20017  -2.19864  -2.19658
  Beta  occ. eigenvalues --   -2.19517  -2.19296  -2.19235  -2.19095  -1.13745
  Beta  occ. eigenvalues --   -1.13697  -1.13681  -1.13668  -1.13522  -1.13510
  Beta  occ. eigenvalues --   -1.13325  -1.13310  -1.13297  -1.13201  -1.13171
  Beta  occ. eigenvalues --   -1.13166  -1.12962  -1.12960  -1.12942  -1.12935
  Beta  occ. eigenvalues --   -1.12888  -1.12858  -1.12786  -1.12708  -1.12694
  Beta  occ. eigenvalues --   -0.17969  -0.12744  -0.12159
  Beta virt. eigenvalues --   -0.07498  -0.05377  -0.04887  -0.04445  -0.02845
  Beta virt. eigenvalues --   -0.02375  -0.02089  -0.01124  -0.00758  -0.00248
  Beta virt. eigenvalues --   -0.00062   0.00054   0.00427   0.00935   0.00943

 Mulliken charges and spin densities:
               1          2
     1  Na  -0.086324  -0.048224
     2  Na   0.423252   0.051603
     3  Na   0.680899   0.051580
     4  Na  -0.634201   0.589065
     5  Na  -0.096329  -0.064153
     6  Na   0.069953  -0.046364
     7  Na  -0.357249   0.466494
 Sum of Mulliken charges =  -0.00000   1.00000

 Dipole moment (field-independent basis, Debye):
    X=              0.1124    Y=              0.1539    Z=              0.1814  Tot=              0.2631
 Quadrupole moment (field-independent basis, Debye-Ang):
   XX=            -60.9247   YY=            -66.7444   ZZ=            -69.0389
   XY=             -0.0876   XZ=              1.8940   YZ=             -0.1986

 Normal termination of Gaussian 16 at Thu Dec  7 04:21:38 2023.
