 Gaussian 16, Revision B.01,
 Gaussian 16:  ES64L-G16RevB.01 20-Dec-2017

 -------------------------
 #P B3LYP/6-311+g(d) force
 -------------------------

 -----
 DPGEN
 -----
 Symbolic Z-matrix:
 Charge =  0 Multiplicity = 2

                         Standard orientation:
 ---------------------------------------------------------------------
 Center     Atomic      Atomic             Coordinates (Angstroms)
 Number     Number       Type             X           Y           Z
 ---------------------------------------------------------------------
      1         11           0       -0.180261   -0.074518   -1.963270
      2         11           0       -0.308962    2.503518    0.391339
      3         11           0       -2.895981    0.405980   -0.414334
      4         11           0       -1.450449   -1.982774    0.802613
      5         11           0        0.707845    0.088668    2.009974
      6         11           0        1.750338   -1.967677   -0.435414
      7         11           0        2.377469    1.026803   -0.390908
 ---------------------------------------------------------------------

 SCF Done:  E(UB3LYP) =  -1136.12773713     A.U. after   20 cycles

 The electronic state is 2-A.
 Alpha  occ. eigenvalues --  -38.44138 -38.44055 -38.43613 -38.43446 -38.43317
 Alpha  occ. eigenvalues --  -38.43095 -38.42825  -2.20153  -2.20071  -2.19519
 Alpha  occ. eigenvalues --   -2.19456  -2.19248  -2.19058  -2.18766  -1.13842
 Alpha  occ. eigenvalues --   -1.13804  -1.13776  -1.13765  -1.13724  -1.13691
 Alpha  occ. eigenvalues --   -1.13236  -1.13191  -1.13156  -1.13143  -1.13115
 Alpha  occ. eigenvalues --   -1.13100  -1.12931  -1.12882  -1.12865  -1.12744
 Alpha  occ. eigenvalues --   -1.12701  -1.12668  -1.12469  -1.12424  -1.12376
 Alpha  occ. eigenvalues --   -0.19882  -0.13309  -0.12397  -0.12183
 Alpha virt. eigenvalues --   -0.05095  -0.04480  -0.04110  -0.03741  -0.03439
 Alpha virt. eigenvalues --   -0.03327  -0.01020  -0.00620  -0.00221   0.00363
 Alpha virt. eigenvalues --    0.00455   0.00610   0.00945   0.00981   0.01028

  Beta  occ. eigenvalues --  -38.44049 -38.43970 -38.43609 -38.43433 -38.43296
  Beta  occ. eigenvalues --  -38.43084 -38.42816  -2.19992  -2.19918  -2.19514
  Beta  occ. eigenvalues --   -2.19437  -2.19212  -2.19042  -2.18755  -1.13741
  Beta  occ. eigenvalues --   -1.13688  -1.13662  -1.13653  -1.13613  -1.13586
  Beta  occ. eigenvalues --   -1.13233  -1.13167  -1.13147  -1.13140  -1.13097
  Beta  occ. eigenvalues --   -1.13053  -1.12898  -1.12851  -1.12840  -1.12727
  Beta  occ. eigenvalues --   -1.12681  -1.12642  -1.12455  -1.12400  -1.12366
  Beta  occ. eigenvalues --   -0.19065  -0.13045  -0.12103
  Beta virt. eigenvalues --   -0.08092  -0.05031  -0.04444  -0.04043  -0.03011
  Beta virt. eigenvalues --   -0.02498  -0.02298  -0.00948  -0.00575  -0.00033
  Beta virt. eigenvalues --    0.00375   0.00465   0.00575   0.00983   0.01031

 Mulliken charges and spin densities:
               1          2
     1  Na  -0.550716   0.463747
     2  Na   0.005795   0.003338
     3  Na   0.213348   0.005570
     4  Na  -0.012368   0.060802
     5  Na  -0.373627   0.448083
     6  Na   0.293789   0.016602
     7  Na   0.423780   0.001858
 Sum of Mulliken charges =  -0.00000   1.00000

 Dipole moment (field-independent basis, Debye):
    X=             -0.0819    Y=             -0.0428    Z=             -0.0112  Tot=              0.0930
 Quadrupole moment (field-independent basis, Debye-Ang):
   XX=            -61.6602   YY=            -68.8105   ZZ=            -66.7115
   XY=             -0.5960   XZ=             -0.8345   YZ=             -0.6882

 Normal termination of Gaussian 16 at Tue Dec  5 21:02:21 2023.
