 Gaussian 16, Revision B.01,
 Gaussian 16:  ES64L-G16RevB.01 20-Dec-2017

 -------------------------
 #P B3LYP/6-311+g(d) force
 -------------------------

 -----
 DPGEN
 -----
 Symbolic Z-matrix:
 Charge =  0 Multiplicity = 2

                         Standard orientation:
 ---------------------------------------------------------------------
 Center     Atomic      Atomic             Coordinates (Angstroms)
 Number     Number       Type             X           Y           Z
 ---------------------------------------------------------------------
      1         11           0       -0.365353    0.199274   -1.755037
      2         11           0        0.227206   -0.127378    1.914513
      3         11           0        2.552099    1.268016   -0.206228
      4         11           0       -0.325507    2.741872    0.149418
      5         11           0       -3.195298    0.159126    0.102826
      6         11           0        2.198236   -1.933921   -0.120670
      7         11           0       -1.091384   -2.306990   -0.084823
 ---------------------------------------------------------------------

 SCF Done:  E(UB3LYP) =  -1136.13684468     A.U. after   19 cycles

 The electronic state is 2-A.
 Alpha  occ. eigenvalues --  -38.44111 -38.43598 -38.43415 -38.43305 -38.43292
 Alpha  occ. eigenvalues --  -38.43152 -38.43117  -2.19954  -2.19507  -2.19385
 Alpha  occ. eigenvalues --   -2.19302  -2.19203  -2.19076  -2.19049  -1.13632
 Alpha  occ. eigenvalues --   -1.13617  -1.13593  -1.13203  -1.13174  -1.13167
 Alpha  occ. eigenvalues --   -1.13082  -1.13024  -1.13015  -1.13005  -1.12981
 Alpha  occ. eigenvalues --   -1.12907  -1.12867  -1.12856  -1.12850  -1.12744
 Alpha  occ. eigenvalues --   -1.12734  -1.12716  -1.12707  -1.12673  -1.12665
 Alpha  occ. eigenvalues --   -0.19359  -0.13237  -0.12603  -0.11005
 Alpha virt. eigenvalues --   -0.05629  -0.04780  -0.04491  -0.03290  -0.02976
 Alpha virt. eigenvalues --   -0.02576  -0.01540  -0.00889  -0.00065  -0.00017
 Alpha virt. eigenvalues --    0.00073   0.00364   0.00854   0.00945   0.00979

  Beta  occ. eigenvalues --  -38.44109 -38.43591 -38.43327 -38.43300 -38.43218
  Beta  occ. eigenvalues --  -38.43144 -38.43106  -2.19954  -2.19497  -2.19224
  Beta  occ. eigenvalues --   -2.19198  -2.19167  -2.19061  -2.19040  -1.13633
  Beta  occ. eigenvalues --   -1.13604  -1.13589  -1.13196  -1.13170  -1.13131
  Beta  occ. eigenvalues --   -1.12991  -1.12929  -1.12919  -1.12901  -1.12892
  Beta  occ. eigenvalues --   -1.12862  -1.12847  -1.12815  -1.12803  -1.12726
  Beta  occ. eigenvalues --   -1.12706  -1.12681  -1.12670  -1.12664  -1.12660
  Beta  occ. eigenvalues --   -0.18592  -0.12990  -0.12332
  Beta virt. eigenvalues --   -0.07036  -0.05591  -0.04787  -0.04480  -0.02472
  Beta virt. eigenvalues --   -0.02144  -0.01514  -0.01447  -0.00832  -0.00112
  Beta virt. eigenvalues --    0.00019   0.00119   0.00381   0.00899   0.00933

 Mulliken charges and spin densities:
               1          2
     1  Na  -0.507579   0.568037
     2  Na  -0.616238   0.704332
     3  Na   0.243941  -0.019804
     4  Na   0.176439  -0.100803
     5  Na   0.143734  -0.096851
     6  Na   0.192415  -0.028391
     7  Na   0.367289  -0.026521
 Sum of Mulliken charges =  -0.00000   1.00000

 Dipole moment (field-independent basis, Debye):
    X=             -0.2534    Y=              0.1434    Z=              0.0996  Tot=              0.3077
 Quadrupole moment (field-independent basis, Debye-Ang):
   XX=            -55.9626   YY=            -65.1341   ZZ=            -72.8665
   XY=             -0.9217   XZ=             -1.4244   YZ=              0.7033

 Normal termination of Gaussian 16 at Thu Dec  7 21:57:25 2023.
