 Gaussian 16, Revision B.01,
 Gaussian 16:  ES64L-G16RevB.01 20-Dec-2017

 -------------------------
 #P B3LYP/6-311+g(d) force
 -------------------------

 -----
 DPGEN
 -----
 Symbolic Z-matrix:
 Charge =  0 Multiplicity = 2

                         Standard orientation:
 ---------------------------------------------------------------------
 Center     Atomic      Atomic             Coordinates (Angstroms)
 Number     Number       Type             X           Y           Z
 ---------------------------------------------------------------------
      1         11           0       -2.533335   -1.747078   -0.346807
      2         11           0       -0.364457    0.479117    1.985200
      3         11           0       -2.654716    1.538144   -0.137961
      4         11           0        1.274210    2.564359   -0.161090
      5         11           0        0.173013   -0.144927   -1.685267
      6         11           0        3.096885   -0.334324   -0.178741
      7         11           0        1.008400   -2.355292    0.524666
 ---------------------------------------------------------------------

 SCF Done:  E(UB3LYP) =  -1136.13467075     A.U. after   20 cycles

 The electronic state is 2-A.
 Alpha  occ. eigenvalues --  -38.44163 -38.44091 -38.43749 -38.43537 -38.43359
 Alpha  occ. eigenvalues --  -38.43168 -38.42988  -2.20062  -2.19941  -2.19597
 Alpha  occ. eigenvalues --   -2.19457  -2.19354  -2.19030  -2.18917  -1.13776
 Alpha  occ. eigenvalues --   -1.13724  -1.13690  -1.13632  -1.13610  -1.13575
 Alpha  occ. eigenvalues --   -1.13277  -1.13248  -1.13238  -1.13127  -1.13088
 Alpha  occ. eigenvalues --   -1.13078  -1.13046  -1.13001  -1.12974  -1.12707
 Alpha  occ. eigenvalues --   -1.12699  -1.12653  -1.12600  -1.12560  -1.12549
 Alpha  occ. eigenvalues --   -0.19008  -0.13523  -0.12149  -0.10986
 Alpha virt. eigenvalues --   -0.05816  -0.05237  -0.04099  -0.03484  -0.02881
 Alpha virt. eigenvalues --   -0.02583  -0.01648  -0.01038  -0.00213  -0.00093
 Alpha virt. eigenvalues --    0.00052   0.00363   0.00767   0.00877   0.00958

  Beta  occ. eigenvalues --  -38.44159 -38.44086 -38.43741 -38.43447 -38.43295
  Beta  occ. eigenvalues --  -38.43163 -38.42972  -2.20058  -2.19936  -2.19586
  Beta  occ. eigenvalues --   -2.19293  -2.19236  -2.19024  -2.18890  -1.13777
  Beta  occ. eigenvalues --   -1.13701  -1.13686  -1.13626  -1.13585  -1.13574
  Beta  occ. eigenvalues --   -1.13260  -1.13238  -1.13224  -1.13022  -1.12970
  Beta  occ. eigenvalues --   -1.12964  -1.12961  -1.12921  -1.12886  -1.12700
  Beta  occ. eigenvalues --   -1.12675  -1.12645  -1.12585  -1.12538  -1.12507
  Beta  occ. eigenvalues --   -0.18272  -0.13265  -0.11902
  Beta virt. eigenvalues --   -0.07054  -0.05756  -0.05223  -0.04058  -0.02690
  Beta virt. eigenvalues --   -0.02109  -0.01565  -0.01519  -0.00988  -0.00256
  Beta virt. eigenvalues --   -0.00037   0.00123   0.00392   0.00839   0.00877

 Mulliken charges and spin densities:
               1          2
     1  Na   0.094394   0.016340
     2  Na  -0.430962   0.632564
     3  Na   0.177424  -0.086835
     4  Na   0.113359  -0.107876
     5  Na  -0.350489   0.458624
     6  Na   0.183873  -0.024199
     7  Na   0.212400   0.111381
 Sum of Mulliken charges =  -0.00000   1.00000

 Dipole moment (field-independent basis, Debye):
    X=             -0.2224    Y=              0.1907    Z=              0.0103  Tot=              0.2932
 Quadrupole moment (field-independent basis, Debye-Ang):
   XX=            -54.6308   YY=            -66.5059   ZZ=            -72.9872
   XY=              0.1693   XZ=              0.7259   YZ=             -1.0152

 Normal termination of Gaussian 16 at Tue Dec  5 14:59:32 2023.
