 Gaussian 16, Revision B.01,
 Gaussian 16:  ES64L-G16RevB.01 20-Dec-2017

 -------------------------
 #P B3LYP/6-311+g(d) force
 -------------------------

 -----
 DPGEN
 -----
 Symbolic Z-matrix:
 Charge =  0 Multiplicity = 2

                         Standard orientation:
 ---------------------------------------------------------------------
 Center     Atomic      Atomic             Coordinates (Angstroms)
 Number     Number       Type             X           Y           Z
 ---------------------------------------------------------------------
      1         11           0       -3.914327    1.348095    0.535304
      2         11           0        2.861703   -2.508771    0.364346
      3         11           0        4.795117    0.172777    0.221131
      4         11           0       -3.841874   -2.158654   -0.167272
      5         11           0       -1.370559    3.255660   -0.048825
      6         11           0       -0.720047   -2.761306   -0.434375
      7         11           0        2.189988    2.652199   -0.470309
 ---------------------------------------------------------------------

 SCF Done:  E(UB3LYP) =  -1136.10788066     A.U. after   26 cycles

 The electronic state is 2-A.
 Alpha  occ. eigenvalues --  -38.45343 -38.45152 -38.44863 -38.44438 -38.44369
 Alpha  occ. eigenvalues --  -38.43977 -38.43793  -2.21123  -2.20949  -2.20648
 Alpha  occ. eigenvalues --   -2.20217  -2.20160  -2.19764  -2.19616  -1.14793
 Alpha  occ. eigenvalues --   -1.14785  -1.14771  -1.14623  -1.14612  -1.14593
 Alpha  occ. eigenvalues --   -1.14316  -1.14305  -1.14282  -1.13901  -1.13897
 Alpha  occ. eigenvalues --   -1.13870  -1.13824  -1.13816  -1.13802  -1.13423
 Alpha  occ. eigenvalues --   -1.13414  -1.13381  -1.13266  -1.13263  -1.13242
 Alpha  occ. eigenvalues --   -0.15763  -0.14312  -0.13258  -0.10577
 Alpha virt. eigenvalues --   -0.08123  -0.04695  -0.04510  -0.03764  -0.03500
 Alpha virt. eigenvalues --   -0.02540  -0.02301  -0.01757  -0.01013  -0.00804
 Alpha virt. eigenvalues --   -0.00713  -0.00152   0.00179   0.00411   0.00614

  Beta  occ. eigenvalues --  -38.45329 -38.45138 -38.44835 -38.44431 -38.44344
  Beta  occ. eigenvalues --  -38.43905 -38.43729  -2.21102  -2.20926  -2.20599
  Beta  occ. eigenvalues --   -2.20213  -2.20117  -2.19630  -2.19498  -1.14782
  Beta  occ. eigenvalues --   -1.14770  -1.14733  -1.14601  -1.14600  -1.14559
  Beta  occ. eigenvalues --   -1.14283  -1.14273  -1.14238  -1.13903  -1.13901
  Beta  occ. eigenvalues --   -1.13817  -1.13796  -1.13789  -1.13765  -1.13333
  Beta  occ. eigenvalues --   -1.13324  -1.13290  -1.13189  -1.13184  -1.13163
  Beta  occ. eigenvalues --   -0.15283  -0.13642  -0.12473
  Beta virt. eigenvalues --   -0.08348  -0.07413  -0.04151  -0.04011  -0.03611
  Beta virt. eigenvalues --   -0.03216  -0.02348  -0.02099  -0.01556  -0.00902
  Beta virt. eigenvalues --   -0.00555  -0.00368  -0.00020   0.00303   0.00558

 Mulliken charges and spin densities:
               1          2
     1  Na  -0.217292   0.287428
     2  Na   0.092665   0.215948
     3  Na   0.312476   0.137671
     4  Na   0.639179   0.005377
     5  Na   0.100386  -0.091204
     6  Na  -0.699672   0.115165
     7  Na  -0.227742   0.329616
 Sum of Mulliken charges =  -0.00000   1.00000

 Dipole moment (field-independent basis, Debye):
    X=              0.5166    Y=             -0.8996    Z=              0.0781  Tot=              1.0403
 Quadrupole moment (field-independent basis, Debye-Ang):
   XX=            -52.3932   YY=            -71.8897   ZZ=            -74.0754
   XY=              5.4114   XZ=              0.3231   YZ=             -0.3371

 Normal termination of Gaussian 16 at Sun Dec  3 12:23:24 2023.
