 Gaussian 16, Revision B.01,
 Gaussian 16:  ES64L-G16RevB.01 20-Dec-2017

 -------------------------
 #P B3LYP/6-311+g(d) force
 -------------------------

 -----
 DPGEN
 -----
 Symbolic Z-matrix:
 Charge =  0 Multiplicity = 2

                         Standard orientation:
 ---------------------------------------------------------------------
 Center     Atomic      Atomic             Coordinates (Angstroms)
 Number     Number       Type             X           Y           Z
 ---------------------------------------------------------------------
      1         11           0       -0.653451   -1.169187    1.919205
      2         11           0       -1.846567    0.946840   -0.793077
      3         11           0        0.483848   -1.907745   -1.334703
      4         11           0        2.000714    1.454949    0.078573
      5         11           0       -4.003868   -1.524340   -0.021744
      6         11           0        4.220201   -1.507532    0.050135
      7         11           0       -0.200876    3.707016    0.101610
 ---------------------------------------------------------------------

 SCF Done:  E(UB3LYP) =  -1136.11895456     A.U. after   24 cycles

 The electronic state is 2-A.
 Alpha  occ. eigenvalues --  -38.45838 -38.44541 -38.44314 -38.43911 -38.43683
 Alpha  occ. eigenvalues --  -38.43628 -38.43244  -2.21590  -2.20331  -2.20075
 Alpha  occ. eigenvalues --   -2.19743  -2.19558  -2.19478  -2.19086  -1.15307
 Alpha  occ. eigenvalues --   -1.15271  -1.15179  -1.14001  -1.13989  -1.13949
 Alpha  occ. eigenvalues --   -1.13743  -1.13738  -1.13687  -1.13447  -1.13427
 Alpha  occ. eigenvalues --   -1.13369  -1.13276  -1.13242  -1.13161  -1.13121
 Alpha  occ. eigenvalues --   -1.13119  -1.13081  -1.12754  -1.12731  -1.12728
 Alpha  occ. eigenvalues --   -0.17459  -0.13215  -0.12511  -0.09890
 Alpha virt. eigenvalues --   -0.07315  -0.05350  -0.05012  -0.02936  -0.02898
 Alpha virt. eigenvalues --   -0.02537  -0.02064  -0.01742  -0.00927  -0.00566
 Alpha virt. eigenvalues --   -0.00381  -0.00072   0.00318   0.00463   0.00521

  Beta  occ. eigenvalues --  -38.45846 -38.44503 -38.44283 -38.43910 -38.43665
  Beta  occ. eigenvalues --  -38.43524 -38.43247  -2.21608  -2.20263  -2.20015
  Beta  occ. eigenvalues --   -2.19744  -2.19528  -2.19284  -2.19091  -1.15321
  Beta  occ. eigenvalues --   -1.15262  -1.15197  -1.13955  -1.13930  -1.13903
  Beta  occ. eigenvalues --   -1.13702  -1.13694  -1.13650  -1.13448  -1.13415
  Beta  occ. eigenvalues --   -1.13370  -1.13261  -1.13203  -1.13131  -1.12988
  Beta  occ. eigenvalues --   -1.12987  -1.12953  -1.12757  -1.12732  -1.12730
  Beta  occ. eigenvalues --   -0.16989  -0.12788  -0.12330
  Beta virt. eigenvalues --   -0.07081  -0.06284  -0.05112  -0.04918  -0.02784
  Beta virt. eigenvalues --   -0.02424  -0.02152  -0.01605  -0.01428  -0.00767
  Beta virt. eigenvalues --   -0.00459  -0.00136   0.00153   0.00469   0.00594

 Mulliken charges and spin densities:
               1          2
     1  Na  -0.138230   0.388970
     2  Na  -0.558407   0.287153
     3  Na   0.187883  -0.006487
     4  Na  -1.115427  -0.016131
     5  Na   0.193898   0.114197
     6  Na   0.359196   0.157428
     7  Na   1.071087   0.074870
 Sum of Mulliken charges =  -0.00000   1.00000

 Dipole moment (field-independent basis, Debye):
    X=             -0.0833    Y=             -0.8537    Z=              0.3862  Tot=              0.9407
 Quadrupole moment (field-independent basis, Debye-Ang):
   XX=            -63.8171   YY=            -64.1906   ZZ=            -70.9038
   XY=              1.8618   XZ=             -0.2034   YZ=              2.6195

 Normal termination of Gaussian 16 at Mon Dec  4 02:56:51 2023.
