 Gaussian 16, Revision B.01,
 Gaussian 16:  ES64L-G16RevB.01 20-Dec-2017

 -------------------------
 #P B3LYP/6-311+g(d) force
 -------------------------

 -----
 DPGEN
 -----
 Symbolic Z-matrix:
 Charge =  0 Multiplicity = 2

                         Standard orientation:
 ---------------------------------------------------------------------
 Center     Atomic      Atomic             Coordinates (Angstroms)
 Number     Number       Type             X           Y           Z
 ---------------------------------------------------------------------
      1         11           0       -4.220059   -1.836312   -0.787536
      2         11           0        0.507359    0.141868    2.006191
      3         11           0        3.945220    0.594543   -0.737963
      4         11           0        1.251806    0.307058   -1.433268
      5         11           0        2.349563   -2.315202    0.525334
      6         11           0       -1.648527    3.130593    0.118599
      7         11           0       -2.185363   -0.022548    0.308644
 ---------------------------------------------------------------------

 SCF Done:  E(UB3LYP) =  -1136.10466342     A.U. after   25 cycles

 The electronic state is 2-A.
 Alpha  occ. eigenvalues --  -38.45334 -38.45192 -38.45047 -38.44798 -38.44017
 Alpha  occ. eigenvalues --  -38.42847 -38.42526  -2.21223  -2.21114  -2.20931
 Alpha  occ. eigenvalues --   -2.20639  -2.19795  -2.18684  -2.18495  -1.15145
 Alpha  occ. eigenvalues --   -1.14845  -1.14822  -1.14757  -1.14726  -1.14641
 Alpha  occ. eigenvalues --   -1.14624  -1.14582  -1.14512  -1.14310  -1.14293
 Alpha  occ. eigenvalues --   -1.14256  -1.13496  -1.13460  -1.13418  -1.12466
 Alpha  occ. eigenvalues --   -1.12310  -1.12304  -1.12186  -1.12162  -1.12066
 Alpha  occ. eigenvalues --   -0.18232  -0.14249  -0.11600  -0.10942
 Alpha virt. eigenvalues --   -0.06475  -0.06245  -0.04322  -0.03374  -0.02960
 Alpha virt. eigenvalues --   -0.02248  -0.02019  -0.01615  -0.00772  -0.00544
 Alpha virt. eigenvalues --   -0.00126  -0.00048   0.00365   0.00457   0.00496

  Beta  occ. eigenvalues --  -38.45283 -38.45160 -38.44966 -38.44765 -38.44033
  Beta  occ. eigenvalues --  -38.42800 -38.42519  -2.21134  -2.21056  -2.20783
  Beta  occ. eigenvalues --   -2.20582  -2.19826  -2.18597  -2.18489  -1.15082
  Beta  occ. eigenvalues --   -1.14780  -1.14761  -1.14698  -1.14688  -1.14592
  Beta  occ. eigenvalues --   -1.14530  -1.14489  -1.14390  -1.14275  -1.14241
  Beta  occ. eigenvalues --   -1.14208  -1.13518  -1.13479  -1.13437  -1.12408
  Beta  occ. eigenvalues --   -1.12253  -1.12248  -1.12167  -1.12160  -1.12040
  Beta  occ. eigenvalues --   -0.17587  -0.13842  -0.10563
  Beta virt. eigenvalues --   -0.07874  -0.06282  -0.06022  -0.03933  -0.02938
  Beta virt. eigenvalues --   -0.02633  -0.01778  -0.01728  -0.01349  -0.00521
  Beta virt. eigenvalues --   -0.00388  -0.00003   0.00007   0.00432   0.00518

 Mulliken charges and spin densities:
               1          2
     1  Na   0.105421   0.237994
     2  Na   0.089796   0.378881
     3  Na   0.337834   0.053655
     4  Na  -0.303786   0.351364
     5  Na   0.171030   0.083671
     6  Na   0.134793  -0.144597
     7  Na  -0.535088   0.039032
 Sum of Mulliken charges =  -0.00000   1.00000

 Dipole moment (field-independent basis, Debye):
    X=              3.1369    Y=              0.6066    Z=              0.4116  Tot=              3.2214
 Quadrupole moment (field-independent basis, Debye-Ang):
   XX=            -62.4107   YY=            -67.7341   ZZ=            -69.4501
   XY=             -6.2320   XZ=              2.5925   YZ=              1.8296

 Normal termination of Gaussian 16 at Tue Dec  5 16:54:37 2023.
