 Gaussian 16, Revision B.01,
 Gaussian 16:  ES64L-G16RevB.01 20-Dec-2017

 -------------------------
 #P B3LYP/6-311+g(d) force
 -------------------------

 -----
 DPGEN
 -----
 Symbolic Z-matrix:
 Charge =  0 Multiplicity = 2

                         Standard orientation:
 ---------------------------------------------------------------------
 Center     Atomic      Atomic             Coordinates (Angstroms)
 Number     Number       Type             X           Y           Z
 ---------------------------------------------------------------------
      1         11           0        0.236759   -0.481654    1.979264
      2         11           0       -1.008189   -1.852606   -1.488201
      3         11           0        1.030966    2.979743    0.531016
      4         11           0       -3.214233   -0.391989    0.893866
      5         11           0       -1.207933    1.442961   -1.021545
      6         11           0        2.496268   -1.826461    0.738732
      7         11           0        1.666362    0.130007   -1.633133
 ---------------------------------------------------------------------

 SCF Done:  E(UB3LYP) =  -1136.12917461     A.U. after   21 cycles

 The electronic state is 2-A.
 Alpha  occ. eigenvalues --  -38.44264 -38.44190 -38.43830 -38.43780 -38.43465
 Alpha  occ. eigenvalues --  -38.43117 -38.42932  -2.20184  -2.20065  -2.19774
 Alpha  occ. eigenvalues --   -2.19612  -2.19351  -2.18957  -2.18905  -1.13912
 Alpha  occ. eigenvalues --   -1.13819  -1.13797  -1.13783  -1.13699  -1.13672
 Alpha  occ. eigenvalues --   -1.13484  -1.13432  -1.13376  -1.13281  -1.13274
 Alpha  occ. eigenvalues --   -1.13241  -1.13045  -1.12990  -1.12954  -1.12689
 Alpha  occ. eigenvalues --   -1.12623  -1.12611  -1.12590  -1.12555  -1.12472
 Alpha  occ. eigenvalues --   -0.18863  -0.12872  -0.12199  -0.12021
 Alpha virt. eigenvalues --   -0.05277  -0.04648  -0.04529  -0.03505  -0.03419
 Alpha virt. eigenvalues --   -0.03096  -0.01233  -0.00905  -0.00550   0.00323
 Alpha virt. eigenvalues --    0.00358   0.00500   0.00563   0.00850   0.00897

  Beta  occ. eigenvalues --  -38.44188 -38.44139 -38.43781 -38.43767 -38.43457
  Beta  occ. eigenvalues --  -38.43110 -38.42917  -2.20045  -2.19974  -2.19688
  Beta  occ. eigenvalues --   -2.19589  -2.19340  -2.18944  -2.18881  -1.13814
  Beta  occ. eigenvalues --   -1.13725  -1.13706  -1.13697  -1.13631  -1.13608
  Beta  occ. eigenvalues --   -1.13416  -1.13377  -1.13306  -1.13267  -1.13247
  Beta  occ. eigenvalues --   -1.13228  -1.13019  -1.12982  -1.12943  -1.12679
  Beta  occ. eigenvalues --   -1.12600  -1.12591  -1.12576  -1.12522  -1.12463
  Beta  occ. eigenvalues --   -0.18011  -0.12692  -0.11849
  Beta virt. eigenvalues --   -0.08108  -0.05065  -0.04453  -0.04173  -0.03038
  Beta virt. eigenvalues --   -0.02753  -0.02325  -0.01143  -0.00786  -0.00270
  Beta virt. eigenvalues --    0.00370   0.00408   0.00595   0.00683   0.00884

 Mulliken charges and spin densities:
               1          2
     1  Na  -0.219210   0.605760
     2  Na  -0.307909   0.136864
     3  Na  -0.105963  -0.202548
     4  Na   0.336574  -0.147491
     5  Na  -0.098874   0.390534
     6  Na  -0.016014  -0.080271
     7  Na   0.411396   0.297153
 Sum of Mulliken charges =  -0.00000   1.00000

 Dipole moment (field-independent basis, Debye):
    X=             -0.1792    Y=             -0.3801    Z=              0.1743  Tot=              0.4549
 Quadrupole moment (field-independent basis, Debye-Ang):
   XX=            -61.7193   YY=            -69.0436   ZZ=            -65.3106
   XY=              0.6622   XZ=             -1.4595   YZ=              3.3459

 Normal termination of Gaussian 16 at Mon Dec  4 05:25:30 2023.
