 Gaussian 16, Revision B.01,
 Gaussian 16:  ES64L-G16RevB.01 20-Dec-2017

 -------------------------
 #P B3LYP/6-311+g(d) force
 -------------------------

 -----
 DPGEN
 -----
 Symbolic Z-matrix:
 Charge =  0 Multiplicity = 2

                         Standard orientation:
 ---------------------------------------------------------------------
 Center     Atomic      Atomic             Coordinates (Angstroms)
 Number     Number       Type             X           Y           Z
 ---------------------------------------------------------------------
      1         11           0       -0.991050    0.098116    1.758975
      2         11           0        2.139264   -1.480333    0.869021
      3         11           0       -3.678581   -0.998088   -0.160680
      4         11           0        1.338157    1.220457   -0.864458
      5         11           0       -2.598317    2.276533   -0.132254
      6         11           0       -0.517772   -1.799708   -1.334842
      7         11           0        4.308300    0.683023   -0.135763
 ---------------------------------------------------------------------

 SCF Done:  E(UB3LYP) =  -1136.11502430     A.U. after   32 cycles

 The electronic state is 2-A.
 Alpha  occ. eigenvalues --  -38.44898 -38.44482 -38.44177 -38.44016 -38.43887
 Alpha  occ. eigenvalues --  -38.43456 -38.43321  -2.20773  -2.20331  -2.20081
 Alpha  occ. eigenvalues --   -2.19890  -2.19807  -2.19278  -2.19176  -1.14481
 Alpha  occ. eigenvalues --   -1.14447  -1.14413  -1.14004  -1.13973  -1.13948
 Alpha  occ. eigenvalues --   -1.13760  -1.13757  -1.13731  -1.13539  -1.13519
 Alpha  occ. eigenvalues --   -1.13513  -1.13489  -1.13466  -1.13410  -1.12950
 Alpha  occ. eigenvalues --   -1.12938  -1.12924  -1.12878  -1.12818  -1.12799
 Alpha  occ. eigenvalues --   -0.18391  -0.14739  -0.11138  -0.10560
 Alpha virt. eigenvalues --   -0.07690  -0.05480  -0.04010  -0.03684  -0.03057
 Alpha virt. eigenvalues --   -0.02234  -0.01799  -0.01590  -0.00761  -0.00573
 Alpha virt. eigenvalues --   -0.00441   0.00162   0.00262   0.00614   0.00667

  Beta  occ. eigenvalues --  -38.44902 -38.44421 -38.44164 -38.43972 -38.43820
  Beta  occ. eigenvalues --  -38.43453 -38.43303  -2.20785  -2.20219  -2.20062
  Beta  occ. eigenvalues --   -2.19805  -2.19688  -2.19276  -2.19144  -1.14493
  Beta  occ. eigenvalues --   -1.14449  -1.14397  -1.13924  -1.13900  -1.13864
  Beta  occ. eigenvalues --   -1.13751  -1.13732  -1.13695  -1.13483  -1.13470
  Beta  occ. eigenvalues --   -1.13454  -1.13406  -1.13376  -1.13321  -1.12949
  Beta  occ. eigenvalues --   -1.12937  -1.12906  -1.12859  -1.12800  -1.12757
  Beta  occ. eigenvalues --   -0.17818  -0.14204  -0.10859
  Beta virt. eigenvalues --   -0.07492  -0.06957  -0.05414  -0.03387  -0.03261
  Beta virt. eigenvalues --   -0.02932  -0.01965  -0.01509  -0.01224  -0.00413
  Beta virt. eigenvalues --   -0.00320  -0.00220   0.00205   0.00435   0.00637

 Mulliken charges and spin densities:
               1          2
     1  Na  -0.152716   0.211876
     2  Na   0.319885   0.191687
     3  Na   0.106586   0.266446
     4  Na  -0.458091   0.021442
     5  Na   0.154028   0.148210
     6  Na  -0.126361   0.130472
     7  Na   0.156668   0.029867
 Sum of Mulliken charges =  -0.00000   1.00000

 Dipole moment (field-independent basis, Debye):
    X=              0.3475    Y=             -0.4450    Z=              0.6171  Tot=              0.8364
 Quadrupole moment (field-independent basis, Debye-Ang):
   XX=            -59.8936   YY=            -76.0393   ZZ=            -66.1240
   XY=             -3.0562   XZ=              1.1408   YZ=             -4.9179

 Normal termination of Gaussian 16 at Wed Nov 29 02:54:37 2023.
