 Gaussian 16, Revision B.01,
 Gaussian 16:  ES64L-G16RevB.01 20-Dec-2017

 -------------------------
 #P B3LYP/6-311+g(d) force
 -------------------------

 -----
 DPGEN
 -----
 Symbolic Z-matrix:
 Charge =  0 Multiplicity = 2

                         Standard orientation:
 ---------------------------------------------------------------------
 Center     Atomic      Atomic             Coordinates (Angstroms)
 Number     Number       Type             X           Y           Z
 ---------------------------------------------------------------------
      1         11           0       -3.016398    2.623153    0.473397
      2         11           0       -3.861928   -1.424641   -0.184987
      3         11           0       -0.453296    3.651056   -0.708844
      4         11           0        2.689847    1.466519    0.711445
      5         11           0        1.647109   -2.167856   -0.120394
      6         11           0       -1.533443   -3.707836    0.090831
      7         11           0        4.528109   -0.440394   -0.261447
 ---------------------------------------------------------------------

 SCF Done:  E(UB3LYP) =  -1136.10820938     A.U. after   22 cycles

 The electronic state is 2-A.
 Alpha  occ. eigenvalues --  -38.45824 -38.45042 -38.44983 -38.44254 -38.43834
 Alpha  occ. eigenvalues --  -38.43522 -38.43369  -2.21669  -2.20876  -2.20827
 Alpha  occ. eigenvalues --   -2.20081  -2.19657  -2.19316  -2.19171  -1.15422
 Alpha  occ. eigenvalues --   -1.15316  -1.15305  -1.14542  -1.14527  -1.14498
 Alpha  occ. eigenvalues --   -1.14495  -1.14491  -1.14469  -1.13760  -1.13751
 Alpha  occ. eigenvalues --   -1.13675  -1.13327  -1.13297  -1.13292  -1.13003
 Alpha  occ. eigenvalues --   -1.12993  -1.12974  -1.12825  -1.12811  -1.12786
 Alpha  occ. eigenvalues --   -0.16442  -0.14038  -0.13215  -0.10179
 Alpha virt. eigenvalues --   -0.07326  -0.05406  -0.04745  -0.03446  -0.02772
 Alpha virt. eigenvalues --   -0.02636  -0.02346  -0.02094  -0.01433  -0.00257
 Alpha virt. eigenvalues --   -0.00151   0.00130   0.00194   0.00379   0.00505

  Beta  occ. eigenvalues --  -38.45803 -38.45043 -38.44958 -38.44189 -38.43809
  Beta  occ. eigenvalues --  -38.43529 -38.43300  -2.21635  -2.20833  -2.20832
  Beta  occ. eigenvalues --   -2.19963  -2.19611  -2.19333  -2.19041  -1.15385
  Beta  occ. eigenvalues --   -1.15296  -1.15273  -1.14525  -1.14500  -1.14497
  Beta  occ. eigenvalues --   -1.14470  -1.14464  -1.14456  -1.13681  -1.13673
  Beta  occ. eigenvalues --   -1.13584  -1.13299  -1.13265  -1.13259  -1.13013
  Beta  occ. eigenvalues --   -1.13010  -1.12949  -1.12736  -1.12723  -1.12709
  Beta  occ. eigenvalues --   -0.16033  -0.13605  -0.12689
  Beta virt. eigenvalues --   -0.07243  -0.06774  -0.05122  -0.04366  -0.03059
  Beta virt. eigenvalues --   -0.02587  -0.02296  -0.02034  -0.01874  -0.01347
  Beta virt. eigenvalues --   -0.00126   0.00188   0.00195   0.00341   0.00532

 Mulliken charges and spin densities:
               1          2
     1  Na  -0.014568   0.002777
     2  Na  -0.189180   0.375997
     3  Na   0.014752   0.097342
     4  Na  -0.534042   0.139227
     5  Na  -1.105855   0.336264
     6  Na   0.193535  -0.384546
     7  Na   1.635358   0.432939
 Sum of Mulliken charges =  -0.00000   1.00000

 Dipole moment (field-independent basis, Debye):
    X=              2.4083    Y=              0.9962    Z=              0.0993  Tot=              2.6081
 Quadrupole moment (field-independent basis, Debye-Ang):
   XX=            -61.0824   YY=            -69.4668   ZZ=            -71.1375
   XY=             -4.0030   XZ=             -3.2203   YZ=              1.0231

 Normal termination of Gaussian 16 at Mon Dec  4 01:01:22 2023.
