 Gaussian 16, Revision B.01,
 Gaussian 16:  ES64L-G16RevB.01 20-Dec-2017

 -------------------------
 #P B3LYP/6-311+g(d) force
 -------------------------

 -----
 DPGEN
 -----
 Symbolic Z-matrix:
 Charge =  0 Multiplicity = 2

                         Standard orientation:
 ---------------------------------------------------------------------
 Center     Atomic      Atomic             Coordinates (Angstroms)
 Number     Number       Type             X           Y           Z
 ---------------------------------------------------------------------
      1         11           0        0.254903   -2.835054   -0.153732
      2         11           0        3.245219   -0.798640   -0.228865
      3         11           0        1.555473    2.736611    0.451996
      4         11           0       -2.173291    1.926829   -0.218674
      5         11           0       -3.227736   -1.002521    0.106411
      6         11           0        0.190613    0.379964   -1.664322
      7         11           0        0.154818   -0.407188    1.707186
 ---------------------------------------------------------------------

 SCF Done:  E(UB3LYP) =  -1136.13355827     A.U. after   19 cycles

 The electronic state is 2-A.
 Alpha  occ. eigenvalues --  -38.44717 -38.44249 -38.43641 -38.43530 -38.43442
 Alpha  occ. eigenvalues --  -38.43140 -38.43125  -2.20516  -2.20065  -2.19521
 Alpha  occ. eigenvalues --   -2.19342  -2.19307  -2.19095  -2.19075  -1.14192
 Alpha  occ. eigenvalues --   -1.14167  -1.14152  -1.13766  -1.13725  -1.13697
 Alpha  occ. eigenvalues --   -1.13231  -1.13175  -1.13143  -1.13065  -1.13012
 Alpha  occ. eigenvalues --   -1.13007  -1.12981  -1.12975  -1.12911  -1.12801
 Alpha  occ. eigenvalues --   -1.12740  -1.12721  -1.12707  -1.12695  -1.12673
 Alpha  occ. eigenvalues --   -0.18540  -0.13223  -0.12329  -0.10260
 Alpha virt. eigenvalues --   -0.06176  -0.05223  -0.04640  -0.03083  -0.02761
 Alpha virt. eigenvalues --   -0.02053  -0.01976  -0.01256  -0.00542  -0.00367
 Alpha virt. eigenvalues --    0.00001   0.00320   0.00749   0.00824   0.00862

  Beta  occ. eigenvalues --  -38.44709 -38.44250 -38.43633 -38.43518 -38.43434
  Beta  occ. eigenvalues --  -38.43074 -38.43052  -2.20505  -2.20069  -2.19509
  Beta  occ. eigenvalues --   -2.19322  -2.19297  -2.18974  -2.18939  -1.14166
  Beta  occ. eigenvalues --   -1.14160  -1.14145  -1.13772  -1.13713  -1.13698
  Beta  occ. eigenvalues --   -1.13215  -1.13158  -1.13130  -1.13046  -1.12995
  Beta  occ. eigenvalues --   -1.12978  -1.12969  -1.12948  -1.12903  -1.12717
  Beta  occ. eigenvalues --   -1.12649  -1.12631  -1.12623  -1.12603  -1.12574
  Beta  occ. eigenvalues --   -0.17847  -0.12990  -0.12076
  Beta virt. eigenvalues --   -0.06451  -0.06116  -0.05185  -0.04586  -0.02359
  Beta virt. eigenvalues --   -0.02030  -0.01884  -0.01166  -0.01075  -0.00572
  Beta virt. eigenvalues --   -0.00404   0.00143   0.00359   0.00785   0.00847

 Mulliken charges and spin densities:
               1          2
     1  Na   0.093463  -0.096539
     2  Na   0.136094  -0.045660
     3  Na  -0.090191  -0.041079
     4  Na   0.296134  -0.000761
     5  Na  -0.017647  -0.084807
     6  Na  -0.122244   0.537042
     7  Na  -0.295608   0.731803
 Sum of Mulliken charges =  -0.00000   1.00000

 Dipole moment (field-independent basis, Debye):
    X=              0.3339    Y=             -0.1895    Z=              0.0024  Tot=              0.3840
 Quadrupole moment (field-independent basis, Debye-Ang):
   XX=            -51.8684   YY=            -62.8903   ZZ=            -76.7659
   XY=              0.7489   XZ=             -0.1390   YZ=              1.7613

 Normal termination of Gaussian 16 at Sun Dec  3 15:15:53 2023.
