 Gaussian 16, Revision B.01,
 Gaussian 16:  ES64L-G16RevB.01 20-Dec-2017

 -------------------------
 #P B3LYP/6-311+g(d) force
 -------------------------

 -----
 DPGEN
 -----
 Symbolic Z-matrix:
 Charge =  0 Multiplicity = 2

                         Standard orientation:
 ---------------------------------------------------------------------
 Center     Atomic      Atomic             Coordinates (Angstroms)
 Number     Number       Type             X           Y           Z
 ---------------------------------------------------------------------
      1         11           0       -0.513320    3.075928    0.115182
      2         11           0        0.105647   -0.272584    2.196095
      3         11           0       -1.656365   -2.522168   -0.325569
      4         11           0       -3.070598    0.469767   -0.126543
      5         11           0        2.934624    1.044569   -0.161680
      6         11           0        1.957301   -2.191229   -0.124952
      7         11           0        0.242711    0.395717   -1.572532
 ---------------------------------------------------------------------

 SCF Done:  E(UB3LYP) =  -1136.13776847     A.U. after   19 cycles

 The electronic state is 2-A.
 Alpha  occ. eigenvalues --  -38.44032 -38.43923 -38.43759 -38.43645 -38.43574
 Alpha  occ. eigenvalues --  -38.43420 -38.43180  -2.19885  -2.19746  -2.19615
 Alpha  occ. eigenvalues --   -2.19461  -2.19435  -2.19254  -2.19161  -1.13602
 Alpha  occ. eigenvalues --   -1.13536  -1.13512  -1.13425  -1.13413  -1.13387
 Alpha  occ. eigenvalues --   -1.13274  -1.13241  -1.13236  -1.13158  -1.13120
 Alpha  occ. eigenvalues --   -1.13117  -1.13098  -1.13091  -1.13069  -1.12925
 Alpha  occ. eigenvalues --   -1.12915  -1.12896  -1.12840  -1.12794  -1.12783
 Alpha  occ. eigenvalues --   -0.18483  -0.13008  -0.12442  -0.10744
 Alpha virt. eigenvalues --   -0.05619  -0.05158  -0.04880  -0.03135  -0.02961
 Alpha virt. eigenvalues --   -0.02617  -0.01439  -0.01171  -0.00495  -0.00408
 Alpha virt. eigenvalues --   -0.00026   0.00354   0.00811   0.00848   0.00886

  Beta  occ. eigenvalues --  -38.44026 -38.43921 -38.43654 -38.43643 -38.43568
  Beta  occ. eigenvalues --  -38.43414 -38.43127  -2.19878  -2.19745  -2.19459
  Beta  occ. eigenvalues --   -2.19429  -2.19420  -2.19246  -2.19065  -1.13590
  Beta  occ. eigenvalues --   -1.13518  -1.13507  -1.13421  -1.13400  -1.13387
  Beta  occ. eigenvalues --   -1.13154  -1.13150  -1.13116  -1.13106  -1.13101
  Beta  occ. eigenvalues --   -1.13095  -1.13093  -1.13071  -1.13057  -1.12916
  Beta  occ. eigenvalues --   -1.12901  -1.12886  -1.12774  -1.12723  -1.12714
  Beta  occ. eigenvalues --   -0.17767  -0.12783  -0.12240
  Beta virt. eigenvalues --   -0.06798  -0.05606  -0.05147  -0.04790  -0.02365
  Beta virt. eigenvalues --   -0.02191  -0.01548  -0.01357  -0.01095  -0.00543
  Beta virt. eigenvalues --   -0.00460   0.00138   0.00391   0.00843   0.00875

 Mulliken charges and spin densities:
               1          2
     1  Na   0.075208  -0.045384
     2  Na  -0.606346   0.781936
     3  Na   0.045808  -0.011724
     4  Na   0.070259  -0.031545
     5  Na   0.329484  -0.025846
     6  Na   0.262223   0.022020
     7  Na  -0.176636   0.310544
 Sum of Mulliken charges =  -0.00000   1.00000

 Dipole moment (field-independent basis, Debye):
    X=              0.1289    Y=              0.1761    Z=              0.1658  Tot=              0.2740
 Quadrupole moment (field-independent basis, Debye-Ang):
   XX=            -57.9287   YY=            -61.4910   ZZ=            -74.5099
   XY=             -0.0992   XZ=              0.1721   YZ=              1.5405

 Normal termination of Gaussian 16 at Thu Dec  7 10:27:55 2023.
