 Gaussian 16, Revision B.01,
 Gaussian 16:  ES64L-G16RevB.01 20-Dec-2017

 -------------------------
 #P B3LYP/6-311+g(d) force
 -------------------------

 -----
 DPGEN
 -----
 Symbolic Z-matrix:
 Charge =  0 Multiplicity = 2

                         Standard orientation:
 ---------------------------------------------------------------------
 Center     Atomic      Atomic             Coordinates (Angstroms)
 Number     Number       Type             X           Y           Z
 ---------------------------------------------------------------------
      1         11           0       -1.249765   -2.677101   -0.831292
      2         11           0       -3.637575    0.229671    0.138707
      3         11           0        1.692835    1.652852   -1.849112
      4         11           0       -0.852007   -0.038142    2.072902
      5         11           0       -0.727650    2.792568   -0.311892
      6         11           0        1.600509   -1.850487   -1.053582
      7         11           0        3.173651   -0.109361    1.834268
 ---------------------------------------------------------------------

 SCF Done:  E(UB3LYP) =  -1136.12071261     A.U. after   19 cycles

 The electronic state is 2-A.
 Alpha  occ. eigenvalues --  -38.45204 -38.44991 -38.44665 -38.43807 -38.43583
 Alpha  occ. eigenvalues --  -38.43463 -38.43323  -2.20976  -2.20796  -2.20441
 Alpha  occ. eigenvalues --   -2.19636  -2.19416  -2.19283  -2.19181  -1.14623
 Alpha  occ. eigenvalues --   -1.14620  -1.14590  -1.14470  -1.14447  -1.14422
 Alpha  occ. eigenvalues --   -1.14121  -1.14088  -1.14078  -1.13345  -1.13289
 Alpha  occ. eigenvalues --   -1.13256  -1.13187  -1.13069  -1.13031  -1.12959
 Alpha  occ. eigenvalues --   -1.12949  -1.12901  -1.12844  -1.12825  -1.12796
 Alpha  occ. eigenvalues --   -0.17249  -0.13038  -0.12189  -0.11627
 Alpha virt. eigenvalues --   -0.06263  -0.05144  -0.04865  -0.03575  -0.03028
 Alpha virt. eigenvalues --   -0.02902  -0.02074  -0.00703  -0.00577  -0.00306
 Alpha virt. eigenvalues --   -0.00140   0.00152   0.00346   0.00558   0.00628

  Beta  occ. eigenvalues --  -38.45121 -38.44945 -38.44669 -38.43767 -38.43562
  Beta  occ. eigenvalues --  -38.43457 -38.43307  -2.20823  -2.20710  -2.20449
  Beta  occ. eigenvalues --   -2.19562  -2.19378  -2.19275  -2.19155  -1.14518
  Beta  occ. eigenvalues --   -1.14508  -1.14491  -1.14415  -1.14393  -1.14350
  Beta  occ. eigenvalues --   -1.14122  -1.14093  -1.14086  -1.13295  -1.13235
  Beta  occ. eigenvalues --   -1.13207  -1.13158  -1.13042  -1.13004  -1.12949
  Beta  occ. eigenvalues --   -1.12942  -1.12887  -1.12822  -1.12804  -1.12768
  Beta  occ. eigenvalues --   -0.16686  -0.12774  -0.11799
  Beta virt. eigenvalues --   -0.07914  -0.05999  -0.04780  -0.04587  -0.03354
  Beta virt. eigenvalues --   -0.02544  -0.02169  -0.01714  -0.00589  -0.00354
  Beta virt. eigenvalues --   -0.00241  -0.00127   0.00298   0.00417   0.00729

 Mulliken charges and spin densities:
               1          2
     1  Na  -0.261694  -0.019469
     2  Na   0.479899   0.030657
     3  Na   0.095106   0.090773
     4  Na  -0.217966   0.279087
     5  Na  -0.242784   0.023599
     6  Na   0.102738   0.286312
     7  Na   0.044702   0.309041
 Sum of Mulliken charges =  -0.00000   1.00000

 Dipole moment (field-independent basis, Debye):
    X=             -0.4561    Y=              0.1851    Z=              0.5107  Tot=              0.7093
 Quadrupole moment (field-independent basis, Debye-Ang):
   XX=            -55.0035   YY=            -74.7525   ZZ=            -68.1552
   XY=              0.0627   XZ=              2.7116   YZ=              0.3386

 Normal termination of Gaussian 16 at Sun Dec  3 12:21:19 2023.
