 Gaussian 16, Revision B.01,
 Gaussian 16:  ES64L-G16RevB.01 20-Dec-2017

 -------------------------
 #P B3LYP/6-311+g(d) force
 -------------------------

 -----
 DPGEN
 -----
 Symbolic Z-matrix:
 Charge =  0 Multiplicity = 2

                         Standard orientation:
 ---------------------------------------------------------------------
 Center     Atomic      Atomic             Coordinates (Angstroms)
 Number     Number       Type             X           Y           Z
 ---------------------------------------------------------------------
      1         11           0        3.601838   -1.547910    0.003252
      2         11           0       -1.444320    2.098782   -0.322366
      3         11           0        0.115988   -0.746660    1.811043
      4         11           0       -1.993899   -1.738173   -1.191187
      5         11           0        0.788754    0.350318   -1.262923
      6         11           0       -4.088901   -0.023592    0.699443
      7         11           0        3.020540    1.607234    0.262738
 ---------------------------------------------------------------------

 SCF Done:  E(UB3LYP) =  -1136.10743207     A.U. after   29 cycles

 The electronic state is 2-A.
 Alpha  occ. eigenvalues --  -38.46804 -38.44666 -38.44293 -38.44270 -38.43977
 Alpha  occ. eigenvalues --  -38.42867 -38.42688  -2.22564  -2.20546  -2.20106
 Alpha  occ. eigenvalues --   -2.20102  -2.19830  -2.18758  -2.18738  -1.16274
 Alpha  occ. eigenvalues --   -1.16231  -1.16168  -1.14275  -1.14200  -1.14151
 Alpha  occ. eigenvalues --   -1.13781  -1.13772  -1.13769  -1.13743  -1.13737
 Alpha  occ. eigenvalues --   -1.13727  -1.13494  -1.13478  -1.13465  -1.12578
 Alpha  occ. eigenvalues --   -1.12437  -1.12406  -1.12397  -1.12351  -1.12276
 Alpha  occ. eigenvalues --   -0.18413  -0.14605  -0.10707  -0.10560
 Alpha virt. eigenvalues --   -0.07760  -0.05728  -0.04322  -0.03288  -0.02922
 Alpha virt. eigenvalues --   -0.02153  -0.02099  -0.01514  -0.01149  -0.00492
 Alpha virt. eigenvalues --   -0.00093   0.00086   0.00284   0.00510   0.00606

  Beta  occ. eigenvalues --  -38.46802 -38.44649 -38.44295 -38.44204 -38.43933
  Beta  occ. eigenvalues --  -38.42854 -38.42637  -2.22561  -2.20513  -2.20112
  Beta  occ. eigenvalues --   -2.19979  -2.19753  -2.18723  -2.18663  -1.16264
  Beta  occ. eigenvalues --   -1.16219  -1.16171  -1.14255  -1.14178  -1.14124
  Beta  occ. eigenvalues --   -1.13786  -1.13760  -1.13742  -1.13690  -1.13652
  Beta  occ. eigenvalues --   -1.13646  -1.13429  -1.13424  -1.13396  -1.12536
  Beta  occ. eigenvalues --   -1.12404  -1.12362  -1.12341  -1.12310  -1.12223
  Beta  occ. eigenvalues --   -0.17849  -0.14136  -0.10553
  Beta virt. eigenvalues --   -0.07569  -0.06826  -0.05544  -0.03818  -0.03074
  Beta virt. eigenvalues --   -0.02786  -0.01881  -0.01449  -0.01257  -0.00720
  Beta virt. eigenvalues --   -0.00324   0.00017   0.00154   0.00434   0.00572

 Mulliken charges and spin densities:
               1          2
     1  Na   0.102288  -0.042455
     2  Na  -0.243253  -0.033452
     3  Na  -0.289112   0.000454
     4  Na  -0.022563  -0.083457
     5  Na   0.018059   0.491781
     6  Na   0.046870   0.494936
     7  Na   0.387712   0.172193
 Sum of Mulliken charges =  -0.00000   1.00000

 Dipole moment (field-independent basis, Debye):
    X=              0.8199    Y=             -0.2970    Z=              0.4489  Tot=              0.9808
 Quadrupole moment (field-independent basis, Debye-Ang):
   XX=            -57.9840   YY=            -75.6436   ZZ=            -66.6412
   XY=              1.4981   XZ=              0.8453   YZ=              4.3293

 Normal termination of Gaussian 16 at Thu Dec  7 08:14:06 2023.
