 Gaussian 16, Revision B.01,
 Gaussian 16:  ES64L-G16RevB.01 20-Dec-2017

 -------------------------
 #P B3LYP/6-311+g(d) force
 -------------------------

 -----
 DPGEN
 -----
 Symbolic Z-matrix:
 Charge =  0 Multiplicity = 2

                         Standard orientation:
 ---------------------------------------------------------------------
 Center     Atomic      Atomic             Coordinates (Angstroms)
 Number     Number       Type             X           Y           Z
 ---------------------------------------------------------------------
      1         11           0        2.312652   -3.114712   -0.150755
      2         11           0       -0.923751   -2.625189   -0.568026
      3         11           0       -3.872726    1.182443   -0.888949
      4         11           0        4.269117   -0.182118    0.213421
      5         11           0       -0.459937    3.300050    0.193785
      6         11           0        2.448140    2.746039    0.014377
      7         11           0       -3.773495   -1.306511    1.186146
 ---------------------------------------------------------------------

 SCF Done:  E(UB3LYP) =  -1136.10937184     A.U. after   22 cycles

 The electronic state is 2-A.
 Alpha  occ. eigenvalues --  -38.45688 -38.45295 -38.44265 -38.44127 -38.44016
 Alpha  occ. eigenvalues --  -38.43770 -38.43677  -2.21460  -2.21091  -2.20069
 Alpha  occ. eigenvalues --   -2.19911  -2.19845  -2.19585  -2.19505  -1.15131
 Alpha  occ. eigenvalues --   -1.15111  -1.15105  -1.14752  -1.14744  -1.14729
 Alpha  occ. eigenvalues --   -1.13738  -1.13735  -1.13700  -1.13600  -1.13587
 Alpha  occ. eigenvalues --   -1.13574  -1.13552  -1.13505  -1.13497  -1.13232
 Alpha  occ. eigenvalues --   -1.13223  -1.13206  -1.13144  -1.13141  -1.13121
 Alpha  occ. eigenvalues --   -0.15848  -0.14149  -0.13170  -0.10561
 Alpha virt. eigenvalues --   -0.07498  -0.05334  -0.04282  -0.03357  -0.03130
 Alpha virt. eigenvalues --   -0.02705  -0.02261  -0.01780  -0.01125  -0.00592
 Alpha virt. eigenvalues --   -0.00477  -0.00101   0.00247   0.00348   0.00603

  Beta  occ. eigenvalues --  -38.45664 -38.45282 -38.44211 -38.44128 -38.44010
  Beta  occ. eigenvalues --  -38.43687 -38.43629  -2.21419  -2.21069  -2.19972
  Beta  occ. eigenvalues --   -2.19919  -2.19841  -2.19429  -2.19417  -1.15101
  Beta  occ. eigenvalues --   -1.15087  -1.15066  -1.14739  -1.14726  -1.14704
  Beta  occ. eigenvalues --   -1.13675  -1.13673  -1.13633  -1.13597  -1.13579
  Beta  occ. eigenvalues --   -1.13560  -1.13512  -1.13509  -1.13482  -1.13126
  Beta  occ. eigenvalues --   -1.13121  -1.13106  -1.13086  -1.13081  -1.13059
  Beta  occ. eigenvalues --   -0.15389  -0.13430  -0.12468
  Beta virt. eigenvalues --   -0.07599  -0.07349  -0.05058  -0.03883  -0.02897
  Beta virt. eigenvalues --   -0.02790  -0.02365  -0.02060  -0.01740  -0.00985
  Beta virt. eigenvalues --   -0.00469  -0.00172   0.00083   0.00376   0.00436

 Mulliken charges and spin densities:
               1          2
     1  Na   0.377620  -0.044063
     2  Na  -0.727111   0.217671
     3  Na   0.248294   0.142357
     4  Na  -0.191730   0.396279
     5  Na  -0.756829   0.121432
     6  Na   0.544671   0.039577
     7  Na   0.505085   0.126746
 Sum of Mulliken charges =  -0.00000   1.00000

 Dipole moment (field-independent basis, Debye):
    X=             -2.2899    Y=             -0.3880    Z=              0.0859  Tot=              2.3241
 Quadrupole moment (field-independent basis, Debye-Ang):
   XX=            -61.1923   YY=            -71.1115   ZZ=            -68.4621
   XY=             -2.2565   XZ=             -0.0418   YZ=             -3.8955

 Normal termination of Gaussian 16 at Sun Dec  3 16:51:28 2023.
