 Gaussian 16, Revision B.01,
 Gaussian 16:  ES64L-G16RevB.01 20-Dec-2017

 -------------------------
 #P B3LYP/6-311+g(d) force
 -------------------------

 -----
 DPGEN
 -----
 Symbolic Z-matrix:
 Charge =  0 Multiplicity = 2

                         Standard orientation:
 ---------------------------------------------------------------------
 Center     Atomic      Atomic             Coordinates (Angstroms)
 Number     Number       Type             X           Y           Z
 ---------------------------------------------------------------------
      1         11           0       -2.149669   -2.823806   -0.531080
      2         11           0        0.056258   -0.361862   -1.900476
      3         11           0        0.732208   -1.355448    1.892515
      4         11           0        3.530819   -0.604859   -0.844534
      5         11           0        1.284740    1.638153    1.189595
      6         11           0       -2.094122    0.347338    0.957931
      7         11           0       -1.360235    3.160484   -0.763952
 ---------------------------------------------------------------------

 SCF Done:  E(UB3LYP) =  -1136.13348508     A.U. after   19 cycles

 The electronic state is 2-A.
 Alpha  occ. eigenvalues --  -38.44283 -38.44193 -38.43971 -38.43698 -38.43489
 Alpha  occ. eigenvalues --  -38.43426 -38.43201  -2.20131  -2.20070  -2.19750
 Alpha  occ. eigenvalues --   -2.19579  -2.19386  -2.19224  -2.19014  -1.13814
 Alpha  occ. eigenvalues --   -1.13801  -1.13769  -1.13753  -1.13694  -1.13671
 Alpha  occ. eigenvalues --   -1.13418  -1.13416  -1.13373  -1.13297  -1.13239
 Alpha  occ. eigenvalues --   -1.13164  -1.13092  -1.13068  -1.12991  -1.12893
 Alpha  occ. eigenvalues --   -1.12886  -1.12854  -1.12680  -1.12673  -1.12647
 Alpha  occ. eigenvalues --   -0.18197  -0.12500  -0.12097  -0.11687
 Alpha virt. eigenvalues --   -0.05453  -0.05044  -0.04610  -0.03350  -0.03155
 Alpha virt. eigenvalues --   -0.02957  -0.01412  -0.01230  -0.00723   0.00073
 Alpha virt. eigenvalues --    0.00271   0.00328   0.00615   0.00694   0.00787

  Beta  occ. eigenvalues --  -38.44214 -38.44124 -38.43953 -38.43671 -38.43473
  Beta  occ. eigenvalues --  -38.43425 -38.43193  -2.20004  -2.19947  -2.19719
  Beta  occ. eigenvalues --   -2.19534  -2.19360  -2.19222  -2.19001  -1.13729
  Beta  occ. eigenvalues --   -1.13707  -1.13676  -1.13657  -1.13600  -1.13588
  Beta  occ. eigenvalues --   -1.13396  -1.13383  -1.13356  -1.13254  -1.13187
  Beta  occ. eigenvalues --   -1.13143  -1.13072  -1.13022  -1.12981  -1.12888
  Beta  occ. eigenvalues --   -1.12879  -1.12855  -1.12671  -1.12656  -1.12641
  Beta  occ. eigenvalues --   -0.17375  -0.12294  -0.11949
  Beta virt. eigenvalues --   -0.07717  -0.05205  -0.04872  -0.04394  -0.02856
  Beta virt. eigenvalues --   -0.02576  -0.02159  -0.01282  -0.01157  -0.00353
  Beta virt. eigenvalues --    0.00049   0.00353   0.00396   0.00717   0.00793

 Mulliken charges and spin densities:
               1          2
     1  Na   0.007516  -0.149530
     2  Na  -0.291105   0.766056
     3  Na   0.079115   0.221685
     4  Na  -0.148025  -0.120084
     5  Na   0.077439   0.233996
     6  Na   0.009536   0.218935
     7  Na   0.265523  -0.171058
 Sum of Mulliken charges =  -0.00000   1.00000

 Dipole moment (field-independent basis, Debye):
    X=              0.3497    Y=             -0.3042    Z=             -0.1362  Tot=              0.4831
 Quadrupole moment (field-independent basis, Debye-Ang):
   XX=            -62.8032   YY=            -64.1373   ZZ=            -67.4856
   XY=              0.1685   XZ=             -0.4129   YZ=             -1.0740

 Normal termination of Gaussian 16 at Tue Dec  5 20:13:09 2023.
