 Gaussian 16, Revision B.01,
 Gaussian 16:  ES64L-G16RevB.01 20-Dec-2017

 -------------------------
 #P B3LYP/6-311+g(d) force
 -------------------------

 -----
 DPGEN
 -----
 Symbolic Z-matrix:
 Charge =  0 Multiplicity = 2

                         Standard orientation:
 ---------------------------------------------------------------------
 Center     Atomic      Atomic             Coordinates (Angstroms)
 Number     Number       Type             X           Y           Z
 ---------------------------------------------------------------------
      1         11           0       -1.939874    2.030816    0.379870
      2         11           0        3.096859   -0.709070   -0.429818
      3         11           0       -0.254576   -0.108148   -1.409287
      4         11           0       -3.107103   -1.015950   -0.313362
      5         11           0        0.198758   -2.520528    0.171679
      6         11           0        1.416071    2.519971   -0.293972
      7         11           0        0.589864   -0.197092    1.894890
 ---------------------------------------------------------------------

 SCF Done:  E(UB3LYP) =  -1136.13158239     A.U. after   20 cycles

 The electronic state is 2-A.
 Alpha  occ. eigenvalues --  -38.44244 -38.43985 -38.43471 -38.43324 -38.43247
 Alpha  occ. eigenvalues --  -38.43208 -38.43020  -2.20093  -2.19837  -2.19352
 Alpha  occ. eigenvalues --   -2.19312  -2.19222  -2.19113  -2.19072  -1.13765
 Alpha  occ. eigenvalues --   -1.13750  -1.13731  -1.13530  -1.13496  -1.13471
 Alpha  occ. eigenvalues --   -1.13172  -1.13059  -1.13033  -1.13012  -1.12982
 Alpha  occ. eigenvalues --   -1.12938  -1.12909  -1.12815  -1.12801  -1.12774
 Alpha  occ. eigenvalues --   -1.12752  -1.12729  -1.12704  -1.12695  -1.12680
 Alpha  occ. eigenvalues --   -0.19225  -0.13364  -0.12479  -0.10671
 Alpha virt. eigenvalues --   -0.05858  -0.05021  -0.04365  -0.03206  -0.02744
 Alpha virt. eigenvalues --   -0.02233  -0.01830  -0.01003  -0.00205  -0.00074
 Alpha virt. eigenvalues --    0.00048   0.00324   0.00800   0.00896   0.00904

  Beta  occ. eigenvalues --  -38.44231 -38.43980 -38.43464 -38.43232 -38.43231
  Beta  occ. eigenvalues --  -38.43202 -38.42968  -2.20072  -2.19831  -2.19340
  Beta  occ. eigenvalues --   -2.19204  -2.19137  -2.19064  -2.19019  -1.13739
  Beta  occ. eigenvalues --   -1.13735  -1.13710  -1.13520  -1.13486  -1.13465
  Beta  occ. eigenvalues --   -1.13113  -1.13047  -1.12990  -1.12973  -1.12963
  Beta  occ. eigenvalues --   -1.12834  -1.12804  -1.12771  -1.12765  -1.12719
  Beta  occ. eigenvalues --   -1.12706  -1.12693  -1.12686  -1.12640  -1.12623
  Beta  occ. eigenvalues --   -0.18512  -0.13112  -0.12203
  Beta virt. eigenvalues --   -0.06750  -0.05779  -0.04981  -0.04349  -0.02481
  Beta virt. eigenvalues --   -0.01971  -0.01740  -0.01184  -0.00955  -0.00169
  Beta virt. eigenvalues --   -0.00103   0.00155   0.00365   0.00848   0.00903

 Mulliken charges and spin densities:
               1          2
     1  Na   0.124596   0.043367
     2  Na   0.103064   0.003736
     3  Na  -0.675137   0.387591
     4  Na   0.269946  -0.008659
     5  Na   0.559116   0.009906
     6  Na   0.000838  -0.001991
     7  Na  -0.382424   0.566051
 Sum of Mulliken charges =  -0.00000   1.00000

 Dipole moment (field-independent basis, Debye):
    X=              0.1068    Y=             -0.0061    Z=              0.1143  Tot=              0.1565
 Quadrupole moment (field-independent basis, Debye-Ang):
   XX=            -52.4204   YY=            -65.1198   ZZ=            -74.5838
   XY=              0.2150   XZ=             -1.6802   YZ=              0.6473

 Normal termination of Gaussian 16 at Sun Dec  3 22:39:33 2023.
