 Gaussian 16, Revision B.01,
 Gaussian 16:  ES64L-G16RevB.01 20-Dec-2017

 -------------------------
 #P B3LYP/6-311+g(d) force
 -------------------------

 -----
 DPGEN
 -----
 Symbolic Z-matrix:
 Charge =  0 Multiplicity = 2

                         Standard orientation:
 ---------------------------------------------------------------------
 Center     Atomic      Atomic             Coordinates (Angstroms)
 Number     Number       Type             X           Y           Z
 ---------------------------------------------------------------------
      1         11           0       -0.461647   -0.125722   -2.424321
      2         11           0        0.657120   -2.158673    0.591060
      3         11           0        3.749156   -0.452763   -0.349173
      4         11           0        1.530366    2.096258    0.031583
      5         11           0       -2.357548    2.087737   -0.353905
      6         11           0       -0.520833    0.488957    2.612379
      7         11           0       -2.596613   -1.935795   -0.107623
 ---------------------------------------------------------------------

 SCF Done:  E(UB3LYP) =  -1136.12856193     A.U. after   21 cycles

 The electronic state is 2-A.
 Alpha  occ. eigenvalues --  -38.45157 -38.45108 -38.44028 -38.43702 -38.43607
 Alpha  occ. eigenvalues --  -38.43408 -38.42964  -2.20974  -2.20929  -2.19810
 Alpha  occ. eigenvalues --   -2.19507  -2.19390  -2.19218  -2.18809  -1.14631
 Alpha  occ. eigenvalues --   -1.14605  -1.14594  -1.14586  -1.14552  -1.14536
 Alpha  occ. eigenvalues --   -1.13474  -1.13474  -1.13453  -1.13176  -1.13173
 Alpha  occ. eigenvalues --   -1.13155  -1.13068  -1.13053  -1.13034  -1.12912
 Alpha  occ. eigenvalues --   -1.12903  -1.12830  -1.12508  -1.12489  -1.12420
 Alpha  occ. eigenvalues --   -0.17797  -0.12680  -0.12018  -0.11573
 Alpha virt. eigenvalues --   -0.05963  -0.05103  -0.04466  -0.03526  -0.03324
 Alpha virt. eigenvalues --   -0.03263  -0.01636  -0.01056  -0.00509  -0.00042
 Alpha virt. eigenvalues --    0.00113   0.00181   0.00333   0.00604   0.00876

  Beta  occ. eigenvalues --  -38.45078 -38.45001 -38.44027 -38.43704 -38.43609
  Beta  occ. eigenvalues --  -38.43404 -38.42951  -2.20828  -2.20730  -2.19809
  Beta  occ. eigenvalues --   -2.19514  -2.19396  -2.19214  -2.18790  -1.14536
  Beta  occ. eigenvalues --   -1.14500  -1.14491  -1.14450  -1.14418  -1.14393
  Beta  occ. eigenvalues --   -1.13475  -1.13469  -1.13453  -1.13183  -1.13167
  Beta  occ. eigenvalues --   -1.13155  -1.13061  -1.13057  -1.13034  -1.12904
  Beta  occ. eigenvalues --   -1.12887  -1.12831  -1.12491  -1.12456  -1.12412
  Beta  occ. eigenvalues --   -0.16973  -0.12531  -0.11407
  Beta virt. eigenvalues --   -0.08060  -0.05714  -0.05114  -0.03696  -0.03072
  Beta virt. eigenvalues --   -0.02852  -0.02462  -0.01580  -0.01022  -0.00195
  Beta virt. eigenvalues --   -0.00018   0.00106   0.00378   0.00438   0.00755

 Mulliken charges and spin densities:
               1          2
     1  Na  -0.346019   0.675182
     2  Na  -0.016099   0.034949
     3  Na   0.123836  -0.033004
     4  Na   0.052827  -0.042679
     5  Na   0.117834  -0.089566
     6  Na  -0.186334   0.539905
     7  Na   0.253955  -0.084787
 Sum of Mulliken charges =  -0.00000   1.00000

 Dipole moment (field-independent basis, Debye):
    X=             -0.2388    Y=              0.0501    Z=             -0.1627  Tot=              0.2933
 Quadrupole moment (field-independent basis, Debye-Ang):
   XX=            -58.1690   YY=            -74.6152   ZZ=            -64.0326
   XY=             -0.4734   XZ=             -1.3091   YZ=              0.6676

 Normal termination of Gaussian 16 at Mon Dec  4 02:25:03 2023.
