 Gaussian 16, Revision B.01,
 Gaussian 16:  ES64L-G16RevB.01 20-Dec-2017

 -------------------------
 #P B3LYP/6-311+g(d) force
 -------------------------

 -----
 DPGEN
 -----
 Symbolic Z-matrix:
 Charge =  0 Multiplicity = 2

                         Standard orientation:
 ---------------------------------------------------------------------
 Center     Atomic      Atomic             Coordinates (Angstroms)
 Number     Number       Type             X           Y           Z
 ---------------------------------------------------------------------
      1         11           0        1.630930   -0.039788    1.490457
      2         11           0       -1.175260   -0.329283    1.424357
      3         11           0       -3.449873    0.041140   -0.410343
      4         11           0       -0.651672    0.004335   -1.326343
      5         11           0        0.368756    2.151270    0.228957
      6         11           0        0.818601   -2.148115   -0.206243
      7         11           0        2.458518    0.320440   -1.200843
 ---------------------------------------------------------------------

 SCF Done:  E(UB3LYP) =  -1136.08408676     A.U. after   25 cycles

 The electronic state is 2-A.
 Alpha  occ. eigenvalues --  -38.44997 -38.44375 -38.44313 -38.43891 -38.43852
 Alpha  occ. eigenvalues --  -38.42493 -38.42463  -2.20894  -2.20558  -2.20431
 Alpha  occ. eigenvalues --   -2.20177  -2.20047  -2.18582  -2.18554  -1.14646
 Alpha  occ. eigenvalues --   -1.14591  -1.14480  -1.14419  -1.14393  -1.14179
 Alpha  occ. eigenvalues --   -1.14136  -1.14059  -1.13999  -1.13976  -1.13833
 Alpha  occ. eigenvalues --   -1.13790  -1.13689  -1.13585  -1.13579  -1.12313
 Alpha  occ. eigenvalues --   -1.12273  -1.12241  -1.12206  -1.12144  -1.12131
 Alpha  occ. eigenvalues --   -0.21127  -0.14157  -0.12452  -0.11735
 Alpha virt. eigenvalues --   -0.06341  -0.04184  -0.03494  -0.03442  -0.02721
 Alpha virt. eigenvalues --   -0.02571  -0.01947  -0.00571  -0.00227   0.00256
 Alpha virt. eigenvalues --    0.00504   0.00624   0.00863   0.01011   0.01027

  Beta  occ. eigenvalues --  -38.44989 -38.44335 -38.44246 -38.43835 -38.43790
  Beta  occ. eigenvalues --  -38.42477 -38.42450  -2.20881  -2.20444  -2.20359
  Beta  occ. eigenvalues --   -2.20078  -2.19939  -2.18561  -2.18538  -1.14633
  Beta  occ. eigenvalues --   -1.14569  -1.14473  -1.14354  -1.14291  -1.14098
  Beta  occ. eigenvalues --   -1.14060  -1.13991  -1.13949  -1.13908  -1.13766
  Beta  occ. eigenvalues --   -1.13714  -1.13593  -1.13507  -1.13492  -1.12304
  Beta  occ. eigenvalues --   -1.12268  -1.12190  -1.12165  -1.12123  -1.12098
  Beta  occ. eigenvalues --   -0.20270  -0.13981  -0.11408
  Beta virt. eigenvalues --   -0.08037  -0.06234  -0.03617  -0.03429  -0.03186
  Beta virt. eigenvalues --   -0.01934  -0.01786  -0.01650  -0.00253  -0.00179
  Beta virt. eigenvalues --    0.00285   0.00564   0.00756   0.00850   0.01036

 Mulliken charges and spin densities:
               1          2
     1  Na   0.980212   0.118533
     2  Na  -0.093407   0.018470
     3  Na  -0.246273   0.125400
     4  Na   0.768318   0.278586
     5  Na  -1.153490   0.121373
     6  Na  -1.021918   0.409816
     7  Na   0.766557  -0.072178
 Sum of Mulliken charges =  -0.00000   1.00000

 Dipole moment (field-independent basis, Debye):
    X=             -0.5913    Y=              0.0737    Z=             -0.3068  Tot=              0.6702
 Quadrupole moment (field-independent basis, Debye-Ang):
   XX=            -51.0938   YY=            -76.2629   ZZ=            -66.2007
   XY=             -0.2098   XZ=             -0.5286   YZ=              0.0295

 Normal termination of Gaussian 16 at Fri Dec  8 18:05:04 2023.
