 Gaussian 16, Revision B.01,
 Gaussian 16:  ES64L-G16RevB.01 20-Dec-2017

 -------------------------
 #P B3LYP/6-311+g(d) force
 -------------------------

 -----
 DPGEN
 -----
 Symbolic Z-matrix:
 Charge =  0 Multiplicity = 2

                         Standard orientation:
 ---------------------------------------------------------------------
 Center     Atomic      Atomic             Coordinates (Angstroms)
 Number     Number       Type             X           Y           Z
 ---------------------------------------------------------------------
      1         11           0        1.494372    3.079942    0.554726
      2         11           0       -1.230092   -1.334814   -2.032907
      3         11           0        1.741613   -2.271147   -0.516530
      4         11           0        3.785503    0.812447   -0.525649
      5         11           0       -4.112747    1.160768   -0.266960
      6         11           0       -1.343876    1.065420    0.599549
      7         11           0       -0.334773   -2.512616    2.187769
 ---------------------------------------------------------------------

 SCF Done:  E(UB3LYP) =  -1136.11394744     A.U. after   21 cycles

 The electronic state is 2-A.
 Alpha  occ. eigenvalues --  -38.45097 -38.44814 -38.44607 -38.44143 -38.43941
 Alpha  occ. eigenvalues --  -38.43691 -38.43600  -2.20901  -2.20607  -2.20374
 Alpha  occ. eigenvalues --   -2.19950  -2.19724  -2.19582  -2.19414  -1.14637
 Alpha  occ. eigenvalues --   -1.14546  -1.14523  -1.14293  -1.14254  -1.14212
 Alpha  occ. eigenvalues --   -1.14047  -1.14029  -1.14015  -1.13598  -1.13588
 Alpha  occ. eigenvalues --   -1.13562  -1.13407  -1.13389  -1.13354  -1.13258
 Alpha  occ. eigenvalues --   -1.13245  -1.13212  -1.13093  -1.13082  -1.13058
 Alpha  occ. eigenvalues --   -0.16897  -0.13152  -0.12512  -0.10774
 Alpha virt. eigenvalues --   -0.07123  -0.05425  -0.04644  -0.03213  -0.02976
 Alpha virt. eigenvalues --   -0.02570  -0.02299  -0.01225  -0.00818  -0.00574
 Alpha virt. eigenvalues --   -0.00292   0.00090   0.00193   0.00488   0.00748

  Beta  occ. eigenvalues --  -38.45104 -38.44757 -38.44597 -38.44046 -38.43938
  Beta  occ. eigenvalues --  -38.43674 -38.43595  -2.20916  -2.20501  -2.20355
  Beta  occ. eigenvalues --   -2.19768  -2.19718  -2.19554  -2.19410  -1.14648
  Beta  occ. eigenvalues --   -1.14556  -1.14527  -1.14221  -1.14181  -1.14136
  Beta  occ. eigenvalues --   -1.14034  -1.14015  -1.14002  -1.13474  -1.13461
  Beta  occ. eigenvalues --   -1.13444  -1.13400  -1.13384  -1.13351  -1.13247
  Beta  occ. eigenvalues --   -1.13202  -1.13193  -1.13086  -1.13074  -1.13039
  Beta  occ. eigenvalues --   -0.16347  -0.13046  -0.12191
  Beta virt. eigenvalues --   -0.07286  -0.06651  -0.04991  -0.04430  -0.02823
  Beta virt. eigenvalues --   -0.02616  -0.02251  -0.01845  -0.01137  -0.00663
  Beta virt. eigenvalues --   -0.00386  -0.00052   0.00183   0.00335   0.00624

 Mulliken charges and spin densities:
               1          2
     1  Na   0.918550  -0.141442
     2  Na   0.076961   0.247854
     3  Na   0.562585   0.129987
     4  Na  -0.549955   0.070694
     5  Na   0.545543   0.086392
     6  Na  -1.653628   0.236713
     7  Na   0.099945   0.369800
 Sum of Mulliken charges =  -0.00000   1.00000

 Dipole moment (field-independent basis, Debye):
    X=             -0.8939    Y=              0.0704    Z=             -0.4375  Tot=              0.9977
 Quadrupole moment (field-independent basis, Debye-Ang):
   XX=            -52.5569   YY=            -70.1225   ZZ=            -72.1814
   XY=             -2.5564   XZ=              0.0555   YZ=              0.2408

 Normal termination of Gaussian 16 at Sun Dec  3 14:02:34 2023.
