 Gaussian 16, Revision B.01,
 Gaussian 16:  ES64L-G16RevB.01 20-Dec-2017

 -------------------------
 #P B3LYP/6-311+g(d) force
 -------------------------

 -----
 DPGEN
 -----
 Symbolic Z-matrix:
 Charge =  0 Multiplicity = 2

                         Standard orientation:
 ---------------------------------------------------------------------
 Center     Atomic      Atomic             Coordinates (Angstroms)
 Number     Number       Type             X           Y           Z
 ---------------------------------------------------------------------
      1         11           0        1.137197   -1.596741   -0.110034
      2         11           0       -0.511856   -0.083519   -1.784713
      3         11           0       -0.598974   -0.205464    2.077137
      4         11           0       -2.174391   -1.604548   -0.126337
      5         11           0       -2.223175    1.694793   -0.071120
      6         11           0        0.930363    1.692530    0.011510
      7         11           0        3.440835    0.102949    0.003557
 ---------------------------------------------------------------------

 SCF Done:  E(UB3LYP) =  -1136.10266082     A.U. after   22 cycles

 The electronic state is 2-A.
 Alpha  occ. eigenvalues --  -38.45068 -38.44369 -38.44277 -38.43461 -38.43191
 Alpha  occ. eigenvalues --  -38.42961 -38.42720  -2.20972  -2.20560  -2.20304
 Alpha  occ. eigenvalues --   -2.19490  -2.19178  -2.19078  -2.18811  -1.14697
 Alpha  occ. eigenvalues --   -1.14648  -1.14583  -1.14312  -1.14264  -1.14181
 Alpha  occ. eigenvalues --   -1.13997  -1.13953  -1.13899  -1.13182  -1.13142
 Alpha  occ. eigenvalues --   -1.13080  -1.12879  -1.12832  -1.12804  -1.12801
 Alpha  occ. eigenvalues --   -1.12732  -1.12661  -1.12529  -1.12469  -1.12397
 Alpha  occ. eigenvalues --   -0.20648  -0.14221  -0.12009  -0.11791
 Alpha virt. eigenvalues --   -0.06330  -0.04380  -0.03857  -0.03487  -0.02788
 Alpha virt. eigenvalues --   -0.02694  -0.01907  -0.00656  -0.00174   0.00213
 Alpha virt. eigenvalues --    0.00476   0.00544   0.00804   0.00924   0.01032

  Beta  occ. eigenvalues --  -38.45075 -38.44279 -38.44175 -38.43447 -38.43182
  Beta  occ. eigenvalues --  -38.42944 -38.42705  -2.20987  -2.20398  -2.20118
  Beta  occ. eigenvalues --   -2.19471  -2.19166  -2.19054  -2.18790  -1.14707
  Beta  occ. eigenvalues --   -1.14661  -1.14581  -1.14211  -1.14147  -1.14062
  Beta  occ. eigenvalues --   -1.13878  -1.13821  -1.13764  -1.13161  -1.13088
  Beta  occ. eigenvalues --   -1.13073  -1.12871  -1.12805  -1.12787  -1.12779
  Beta  occ. eigenvalues --   -1.12668  -1.12650  -1.12515  -1.12405  -1.12391
  Beta  occ. eigenvalues --   -0.19817  -0.13976  -0.11462
  Beta virt. eigenvalues --   -0.07855  -0.06214  -0.04407  -0.03218  -0.03000
  Beta virt. eigenvalues --   -0.01951  -0.01858  -0.01811  -0.00632   0.00016
  Beta virt. eigenvalues --    0.00238   0.00488   0.00513   0.00966   0.01022

 Mulliken charges and spin densities:
               1          2
     1  Na  -0.012367   0.102172
     2  Na   0.046012   0.425394
     3  Na  -0.235851   0.532971
     4  Na   0.344916   0.001023
     5  Na   0.177427  -0.024182
     6  Na  -0.159048   0.091044
     7  Na  -0.161089  -0.128421
 Sum of Mulliken charges =  -0.00000   1.00000

 Dipole moment (field-independent basis, Debye):
    X=              0.4430    Y=              0.0442    Z=              0.4220  Tot=              0.6134
 Quadrupole moment (field-independent basis, Debye-Ang):
   XX=            -50.6207   YY=            -75.7439   ZZ=            -68.1785
   XY=              0.1634   XZ=             -0.0061   YZ=              0.1746

 Normal termination of Gaussian 16 at Wed Dec  6 00:54:53 2023.
