 Gaussian 16, Revision B.01,
 Gaussian 16:  ES64L-G16RevB.01 20-Dec-2017

 -------------------------
 #P B3LYP/6-311+g(d) force
 -------------------------

 -----
 DPGEN
 -----
 Symbolic Z-matrix:
 Charge =  0 Multiplicity = 2

                         Standard orientation:
 ---------------------------------------------------------------------
 Center     Atomic      Atomic             Coordinates (Angstroms)
 Number     Number       Type             X           Y           Z
 ---------------------------------------------------------------------
      1         11           0       -1.376696   -0.252308   -1.817448
      2         11           0        0.249871    2.280048   -0.383338
      3         11           0        1.644874   -1.891962   -1.328970
      4         11           0       -3.370904    1.361339    0.357888
      5         11           0       -1.881303   -1.925040    0.898595
      6         11           0        0.895797   -0.516492    2.055694
      7         11           0        3.838361    0.944415    0.217580
 ---------------------------------------------------------------------

 SCF Done:  E(UB3LYP) =  -1136.12611886     A.U. after   22 cycles

 The electronic state is 2-A.
 Alpha  occ. eigenvalues --  -38.44744 -38.44399 -38.44207 -38.43986 -38.43733
 Alpha  occ. eigenvalues --  -38.43589 -38.43268  -2.20501  -2.20201  -2.20049
 Alpha  occ. eigenvalues --   -2.19797  -2.19667  -2.19391  -2.19133  -1.14178
 Alpha  occ. eigenvalues --   -1.14161  -1.14132  -1.13880  -1.13857  -1.13834
 Alpha  occ. eigenvalues --   -1.13733  -1.13690  -1.13664  -1.13486  -1.13437
 Alpha  occ. eigenvalues --   -1.13417  -1.13363  -1.13336  -1.13260  -1.13098
 Alpha  occ. eigenvalues --   -1.13088  -1.12972  -1.12815  -1.12802  -1.12746
 Alpha  occ. eigenvalues --   -0.18041  -0.13398  -0.11380  -0.11343
 Alpha virt. eigenvalues --   -0.06665  -0.05224  -0.04321  -0.03261  -0.02876
 Alpha virt. eigenvalues --   -0.02749  -0.02218  -0.01328  -0.00569  -0.00101
 Alpha virt. eigenvalues --    0.00127   0.00213   0.00364   0.00645   0.00783

  Beta  occ. eigenvalues --  -38.44745 -38.44395 -38.44144 -38.43939 -38.43676
  Beta  occ. eigenvalues --  -38.43583 -38.43248  -2.20503  -2.20194  -2.19933
  Beta  occ. eigenvalues --   -2.19711  -2.19564  -2.19383  -2.19100  -1.14171
  Beta  occ. eigenvalues --   -1.14165  -1.14134  -1.13873  -1.13849  -1.13829
  Beta  occ. eigenvalues --   -1.13656  -1.13614  -1.13571  -1.13415  -1.13374
  Beta  occ. eigenvalues --   -1.13361  -1.13295  -1.13269  -1.13173  -1.13090
  Beta  occ. eigenvalues --   -1.13065  -1.12969  -1.12789  -1.12765  -1.12722
  Beta  occ. eigenvalues --   -0.17326  -0.13264  -0.11093
  Beta virt. eigenvalues --   -0.07439  -0.06471  -0.05153  -0.03817  -0.03028
  Beta virt. eigenvalues --   -0.02322  -0.02089  -0.01845  -0.01163  -0.00324
  Beta virt. eigenvalues --   -0.00018   0.00123   0.00250   0.00533   0.00726

 Mulliken charges and spin densities:
               1          2
     1  Na   0.213197   0.434992
     2  Na  -0.417629  -0.009593
     3  Na  -0.207089   0.093921
     4  Na   0.248481  -0.030184
     5  Na   0.051099   0.175892
     6  Na  -0.201198   0.384991
     7  Na   0.313141  -0.050020
 Sum of Mulliken charges =  -0.00000   1.00000

 Dipole moment (field-independent basis, Debye):
    X=              0.3644    Y=              0.0787    Z=              0.2236  Tot=              0.4347
 Quadrupole moment (field-independent basis, Debye-Ang):
   XX=            -49.3945   YY=            -74.7315   ZZ=            -69.9853
   XY=             -0.7380   XZ=             -2.4792   YZ=              2.2710

 Normal termination of Gaussian 16 at Thu Dec  7 21:15:05 2023.
