 Gaussian 16, Revision B.01,
 Gaussian 16:  ES64L-G16RevB.01 20-Dec-2017

 -------------------------
 #P B3LYP/6-311+g(d) force
 -------------------------

 -----
 DPGEN
 -----
 Symbolic Z-matrix:
 Charge =  0 Multiplicity = 2

                         Standard orientation:
 ---------------------------------------------------------------------
 Center     Atomic      Atomic             Coordinates (Angstroms)
 Number     Number       Type             X           Y           Z
 ---------------------------------------------------------------------
      1         11           0       -0.477098    0.017759    2.368718
      2         11           0        0.143102    0.045625   -2.009272
      3         11           0        2.155942    1.962634    0.208973
      4         11           0        2.883042   -1.255489   -0.034495
      5         11           0       -3.035311   -0.529267   -0.237677
      6         11           0       -1.292161    2.522645   -0.255069
      7         11           0       -0.377515   -2.763906   -0.041179
 ---------------------------------------------------------------------

 SCF Done:  E(UB3LYP) =  -1136.13929040     A.U. after   18 cycles

 The electronic state is 2-A.
 Alpha  occ. eigenvalues --  -38.44486 -38.43969 -38.43895 -38.43663 -38.43450
 Alpha  occ. eigenvalues --  -38.43155 -38.43122  -2.20318  -2.19876  -2.19726
 Alpha  occ. eigenvalues --   -2.19487  -2.19293  -2.19012  -2.18966  -1.13966
 Alpha  occ. eigenvalues --   -1.13947  -1.13940  -1.13554  -1.13515  -1.13501
 Alpha  occ. eigenvalues --   -1.13395  -1.13386  -1.13373  -1.13167  -1.13154
 Alpha  occ. eigenvalues --   -1.13133  -1.12960  -1.12960  -1.12930  -1.12697
 Alpha  occ. eigenvalues --   -1.12673  -1.12649  -1.12643  -1.12638  -1.12594
 Alpha  occ. eigenvalues --   -0.18421  -0.12850  -0.12233  -0.11438
 Alpha virt. eigenvalues --   -0.05498  -0.04975  -0.04550  -0.03495  -0.03246
 Alpha virt. eigenvalues --   -0.03151  -0.01319  -0.00869  -0.00194  -0.00148
 Alpha virt. eigenvalues --   -0.00130   0.00403   0.00749   0.00778   0.00934

  Beta  occ. eigenvalues --  -38.44385 -38.43896 -38.43892 -38.43664 -38.43446
  Beta  occ. eigenvalues --  -38.43150 -38.43118  -2.20131  -2.19743  -2.19724
  Beta  occ. eigenvalues --   -2.19489  -2.19290  -2.19005  -2.18962  -1.13843
  Beta  occ. eigenvalues --   -1.13816  -1.13806  -1.13469  -1.13418  -1.13408
  Beta  occ. eigenvalues --   -1.13383  -1.13377  -1.13364  -1.13170  -1.13140
  Beta  occ. eigenvalues --   -1.13137  -1.12959  -1.12937  -1.12931  -1.12687
  Beta  occ. eigenvalues --   -1.12648  -1.12645  -1.12641  -1.12614  -1.12595
  Beta  occ. eigenvalues --   -0.17646  -0.12668  -0.12021
  Beta virt. eigenvalues --   -0.07481  -0.05409  -0.05007  -0.04374  -0.02722
  Beta virt. eigenvalues --   -0.02346  -0.02255  -0.01236  -0.00807  -0.00231
  Beta virt. eigenvalues --   -0.00203   0.00037   0.00428   0.00885   0.00926

 Mulliken charges and spin densities:
               1          2
     1  Na  -0.582121   0.660951
     2  Na  -0.178135   0.475891
     3  Na   0.080565   0.005592
     4  Na   0.101953  -0.061523
     5  Na   0.288477  -0.041741
     6  Na   0.206432  -0.005858
     7  Na   0.082829  -0.033313
 Sum of Mulliken charges =  -0.00000   1.00000

 Dipole moment (field-independent basis, Debye):
    X=             -0.1298    Y=             -0.0317    Z=              0.1632  Tot=              0.2109
 Quadrupole moment (field-independent basis, Debye-Ang):
   XX=            -59.8498   YY=            -67.0660   ZZ=            -69.2871
   XY=             -0.1628   XZ=              1.0690   YZ=              0.1871

 Normal termination of Gaussian 16 at Fri Dec  8 02:31:24 2023.
