 Gaussian 16, Revision B.01,
 Gaussian 16:  ES64L-G16RevB.01 20-Dec-2017

 -------------------------
 #P B3LYP/6-311+g(d) force
 -------------------------

 -----
 DPGEN
 -----
 Symbolic Z-matrix:
 Charge =  0 Multiplicity = 2

                         Standard orientation:
 ---------------------------------------------------------------------
 Center     Atomic      Atomic             Coordinates (Angstroms)
 Number     Number       Type             X           Y           Z
 ---------------------------------------------------------------------
      1         11           0        0.227508   -0.153647   -1.816534
      2         11           0       -1.311394    2.489541    0.250288
      3         11           0        2.693489   -1.498289   -0.051819
      4         11           0        2.864766    1.922842   -0.092013
      5         11           0       -0.165295   -0.133444    1.952810
      6         11           0       -3.608535    0.012214   -0.446155
      7         11           0       -0.700540   -2.639217    0.203424
 ---------------------------------------------------------------------

 SCF Done:  E(UB3LYP) =  -1136.13155166     A.U. after   20 cycles

 The electronic state is 2-A.
 Alpha  occ. eigenvalues --  -38.44909 -38.44075 -38.43940 -38.43899 -38.43518
 Alpha  occ. eigenvalues --  -38.43429 -38.42855  -2.20680  -2.19928  -2.19800
 Alpha  occ. eigenvalues --   -2.19721  -2.19442  -2.19259  -2.18743  -1.14349
 Alpha  occ. eigenvalues --   -1.14337  -1.14314  -1.13632  -1.13601  -1.13554
 Alpha  occ. eigenvalues --   -1.13483  -1.13439  -1.13412  -1.13395  -1.13375
 Alpha  occ. eigenvalues --   -1.13362  -1.13125  -1.13103  -1.13052  -1.12938
 Alpha  occ. eigenvalues --   -1.12929  -1.12876  -1.12440  -1.12410  -1.12350
 Alpha  occ. eigenvalues --   -0.18355  -0.13226  -0.11936  -0.10741
 Alpha virt. eigenvalues --   -0.06354  -0.05303  -0.04160  -0.03338  -0.02720
 Alpha virt. eigenvalues --   -0.02595  -0.02125  -0.01210  -0.00448  -0.00213
 Alpha virt. eigenvalues --   -0.00085   0.00277   0.00708   0.00748   0.00830

  Beta  occ. eigenvalues --  -38.44897 -38.44071 -38.43944 -38.43836 -38.43424
  Beta  occ. eigenvalues --  -38.43420 -38.42846  -2.20660  -2.19923  -2.19730
  Beta  occ. eigenvalues --   -2.19683  -2.19269  -2.19246  -2.18730  -1.14327
  Beta  occ. eigenvalues --   -1.14322  -1.14302  -1.13619  -1.13586  -1.13549
  Beta  occ. eigenvalues --   -1.13407  -1.13399  -1.13380  -1.13369  -1.13355
  Beta  occ. eigenvalues --   -1.13320  -1.13013  -1.12991  -1.12937  -1.12914
  Beta  occ. eigenvalues --   -1.12889  -1.12867  -1.12428  -1.12372  -1.12343
  Beta  occ. eigenvalues --   -0.17630  -0.13005  -0.11692
  Beta virt. eigenvalues --   -0.06915  -0.06182  -0.05314  -0.04118  -0.02642
  Beta virt. eigenvalues --   -0.01997  -0.01963  -0.01564  -0.01160  -0.00487
  Beta virt. eigenvalues --   -0.00225   0.00059   0.00318   0.00778   0.00829

 Mulliken charges and spin densities:
               1          2
     1  Na  -0.274306   0.667845
     2  Na  -0.013376  -0.099855
     3  Na   0.314455  -0.067987
     4  Na  -0.098692  -0.128346
     5  Na  -0.106297   0.618850
     6  Na  -0.016656   0.046694
     7  Na   0.194873  -0.037201
 Sum of Mulliken charges =  -0.00000   1.00000

 Dipole moment (field-independent basis, Debye):
    X=             -0.2044    Y=             -0.0572    Z=             -0.1376  Tot=              0.2530
 Quadrupole moment (field-independent basis, Debye-Ang):
   XX=            -52.0376   YY=            -67.0383   ZZ=            -74.1753
   XY=              0.6528   XZ=              1.4664   YZ=              0.0874

 Normal termination of Gaussian 16 at Thu Dec  7 10:28:38 2023.
