 Gaussian 16, Revision B.01,
 Gaussian 16:  ES64L-G16RevB.01 20-Dec-2017

 -------------------------
 #P B3LYP/6-311+g(d) force
 -------------------------

 -----
 DPGEN
 -----
 Symbolic Z-matrix:
 Charge =  0 Multiplicity = 2

                         Standard orientation:
 ---------------------------------------------------------------------
 Center     Atomic      Atomic             Coordinates (Angstroms)
 Number     Number       Type             X           Y           Z
 ---------------------------------------------------------------------
      1         11           0       -0.244238    0.111303    2.076540
      2         11           0       -3.165760    0.285565   -0.348220
      3         11           0       -0.105697    3.347716   -0.029630
      4         11           0       -1.484308   -2.495569    0.128859
      5         11           0        2.326455   -2.230423   -0.108586
      6         11           0        0.012087   -0.059585   -1.668506
      7         11           0        2.661462    1.040994   -0.050457
 ---------------------------------------------------------------------

 SCF Done:  E(UB3LYP) =  -1136.13757634     A.U. after   19 cycles

 The electronic state is 2-A.
 Alpha  occ. eigenvalues --  -38.44076 -38.43766 -38.43661 -38.43653 -38.43645
 Alpha  occ. eigenvalues --  -38.43519 -38.43314  -2.19903  -2.19546  -2.19531
 Alpha  occ. eigenvalues --   -2.19521  -2.19514  -2.19347  -2.19263  -1.13580
 Alpha  occ. eigenvalues --   -1.13564  -1.13545  -1.13245  -1.13220  -1.13218
 Alpha  occ. eigenvalues --   -1.13208  -1.13206  -1.13198  -1.13193  -1.13170
 Alpha  occ. eigenvalues --   -1.13151  -1.13145  -1.13137  -1.13127  -1.13014
 Alpha  occ. eigenvalues --   -1.12999  -1.12991  -1.12944  -1.12898  -1.12874
 Alpha  occ. eigenvalues --   -0.18432  -0.13053  -0.12293  -0.10677
 Alpha virt. eigenvalues --   -0.05569  -0.05200  -0.04968  -0.03215  -0.02800
 Alpha virt. eigenvalues --   -0.02565  -0.01464  -0.01358  -0.00484  -0.00375
 Alpha virt. eigenvalues --   -0.00023   0.00352   0.00783   0.00834   0.00859

  Beta  occ. eigenvalues --  -38.44067 -38.43767 -38.43655 -38.43638 -38.43556
  Beta  occ. eigenvalues --  -38.43518 -38.43251  -2.19891  -2.19551  -2.19524
  Beta  occ. eigenvalues --   -2.19504  -2.19349  -2.19342  -2.19148  -1.13569
  Beta  occ. eigenvalues --   -1.13544  -1.13534  -1.13236  -1.13214  -1.13205
  Beta  occ. eigenvalues --   -1.13202  -1.13199  -1.13180  -1.13150  -1.13148
  Beta  occ. eigenvalues --   -1.13135  -1.13065  -1.13022  -1.13005  -1.13004
  Beta  occ. eigenvalues --   -1.13001  -1.12984  -1.12867  -1.12815  -1.12791
  Beta  occ. eigenvalues --   -0.17698  -0.12816  -0.12106
  Beta virt. eigenvalues --   -0.06755  -0.05559  -0.05125  -0.04944  -0.02405
  Beta virt. eigenvalues --   -0.02091  -0.01530  -0.01368  -0.01276  -0.00538
  Beta virt. eigenvalues --   -0.00409   0.00124   0.00376   0.00813   0.00840

 Mulliken charges and spin densities:
               1          2
     1  Na  -0.436883   0.731580
     2  Na   0.111469  -0.079682
     3  Na  -0.015941  -0.116048
     4  Na   0.257319   0.036188
     5  Na   0.087195  -0.030356
     6  Na  -0.160231   0.492130
     7  Na   0.157072  -0.033814
 Sum of Mulliken charges =  -0.00000   1.00000

 Dipole moment (field-independent basis, Debye):
    X=             -0.2848    Y=              0.0688    Z=              0.0738  Tot=              0.3021
 Quadrupole moment (field-independent basis, Debye-Ang):
   XX=            -58.8167   YY=            -59.7303   ZZ=            -74.9084
   XY=             -1.2480   XZ=              0.6861   YZ=             -0.4292

 Normal termination of Gaussian 16 at Fri Dec  8 07:05:49 2023.
