 Gaussian 16, Revision B.01,
 Gaussian 16:  ES64L-G16RevB.01 20-Dec-2017

 -------------------------
 #P B3LYP/6-311+g(d) force
 -------------------------

 -----
 DPGEN
 -----
 Symbolic Z-matrix:
 Charge =  0 Multiplicity = 2

                         Standard orientation:
 ---------------------------------------------------------------------
 Center     Atomic      Atomic             Coordinates (Angstroms)
 Number     Number       Type             X           Y           Z
 ---------------------------------------------------------------------
      1         11           0        3.238527   -0.448087   -0.266643
      2         11           0       -0.161148   -0.309679    2.313612
      3         11           0        0.554476   -2.669304   -0.078445
      4         11           0        1.319974    2.514704    0.274829
      5         11           0       -2.151476    2.036245   -0.257291
      6         11           0        0.387908    0.100575   -1.668977
      7         11           0       -3.188262   -1.224454   -0.317085
 ---------------------------------------------------------------------

 SCF Done:  E(UB3LYP) =  -1136.13478632     A.U. after   20 cycles

 The electronic state is 2-A.
 Alpha  occ. eigenvalues --  -38.44293 -38.44269 -38.44081 -38.43548 -38.43523
 Alpha  occ. eigenvalues --  -38.43187 -38.43093  -2.20135  -2.20046  -2.19925
 Alpha  occ. eigenvalues --   -2.19521  -2.19357  -2.19052  -2.18953  -1.13827
 Alpha  occ. eigenvalues --   -1.13787  -1.13768  -1.13719  -1.13711  -1.13684
 Alpha  occ. eigenvalues --   -1.13578  -1.13551  -1.13542  -1.13214  -1.13187
 Alpha  occ. eigenvalues --   -1.13147  -1.13034  -1.13020  -1.12989  -1.12746
 Alpha  occ. eigenvalues --   -1.12724  -1.12660  -1.12637  -1.12614  -1.12581
 Alpha  occ. eigenvalues --   -0.18414  -0.13062  -0.12137  -0.11049
 Alpha virt. eigenvalues --   -0.05979  -0.05080  -0.04344  -0.03297  -0.03037
 Alpha virt. eigenvalues --   -0.02810  -0.01789  -0.01021  -0.00314  -0.00234
 Alpha virt. eigenvalues --   -0.00081   0.00319   0.00741   0.00869   0.00894

  Beta  occ. eigenvalues --  -38.44288 -38.44267 -38.43971 -38.43519 -38.43496
  Beta  occ. eigenvalues --  -38.43180 -38.43086  -2.20128  -2.20043  -2.19722
  Beta  occ. eigenvalues --   -2.19426  -2.19351  -2.19043  -2.18943  -1.13813
  Beta  occ. eigenvalues --   -1.13773  -1.13767  -1.13714  -1.13701  -1.13683
  Beta  occ. eigenvalues --   -1.13443  -1.13407  -1.13398  -1.13151  -1.13122
  Beta  occ. eigenvalues --   -1.13080  -1.13017  -1.13009  -1.12985  -1.12741
  Beta  occ. eigenvalues --   -1.12690  -1.12656  -1.12631  -1.12586  -1.12576
  Beta  occ. eigenvalues --   -0.17697  -0.12841  -0.11924
  Beta virt. eigenvalues --   -0.07081  -0.05906  -0.05096  -0.04248  -0.02564
  Beta virt. eigenvalues --   -0.02205  -0.01800  -0.01694  -0.00975  -0.00340
  Beta virt. eigenvalues --   -0.00262   0.00082   0.00360   0.00830   0.00874

 Mulliken charges and spin densities:
               1          2
     1  Na   0.395092   0.010410
     2  Na  -0.587711   0.700973
     3  Na   0.130982  -0.048091
     4  Na   0.080944   0.070515
     5  Na   0.097956  -0.013769
     6  Na  -0.142116   0.332219
     7  Na   0.024853  -0.052257
 Sum of Mulliken charges =  -0.00000   1.00000

 Dipole moment (field-independent basis, Debye):
    X=              0.0848    Y=             -0.1740    Z=              0.1406  Tot=              0.2392
 Quadrupole moment (field-independent basis, Debye-Ang):
   XX=            -54.7629   YY=            -67.0064   ZZ=            -72.5829
   XY=              0.5669   XZ=              0.8620   YZ=              0.9560

 Normal termination of Gaussian 16 at Fri Dec  8 03:05:32 2023.
