 Gaussian 16, Revision B.01,
 Gaussian 16:  ES64L-G16RevB.01 20-Dec-2017

 -------------------------
 #P B3LYP/6-311+g(d) force
 -------------------------

 -----
 DPGEN
 -----
 Symbolic Z-matrix:
 Charge =  0 Multiplicity = 2

                         Standard orientation:
 ---------------------------------------------------------------------
 Center     Atomic      Atomic             Coordinates (Angstroms)
 Number     Number       Type             X           Y           Z
 ---------------------------------------------------------------------
      1         11           0        1.637330   -0.274118    1.308029
      2         11           0       -0.490654   -2.737289   -0.335559
      3         11           0       -1.877059    0.242017    1.176285
      4         11           0        1.866976    2.452590   -0.803932
      5         11           0       -1.094408    3.401181   -0.179919
      6         11           0       -3.760744   -1.360133   -0.740366
      7         11           0        3.718559   -1.724248   -0.424538
 ---------------------------------------------------------------------

 SCF Done:  E(UB3LYP) =  -1136.11959041     A.U. after   21 cycles

 The electronic state is 2-A.
 Alpha  occ. eigenvalues --  -38.45262 -38.44620 -38.44250 -38.44198 -38.43793
 Alpha  occ. eigenvalues --  -38.43383 -38.43351  -2.21033  -2.20420  -2.20064
 Alpha  occ. eigenvalues --   -2.20001  -2.19633  -2.19302  -2.19254  -1.14733
 Alpha  occ. eigenvalues --   -1.14718  -1.14637  -1.14115  -1.14065  -1.14052
 Alpha  occ. eigenvalues --   -1.13767  -1.13738  -1.13720  -1.13660  -1.13652
 Alpha  occ. eigenvalues --   -1.13602  -1.13326  -1.13275  -1.13252  -1.12982
 Alpha  occ. eigenvalues --   -1.12964  -1.12945  -1.12919  -1.12911  -1.12872
 Alpha  occ. eigenvalues --   -0.17338  -0.13600  -0.12914  -0.09814
 Alpha virt. eigenvalues --   -0.06645  -0.06224  -0.04203  -0.03690  -0.02912
 Alpha virt. eigenvalues --   -0.02085  -0.01871  -0.01314  -0.01182  -0.00928
 Alpha virt. eigenvalues --   -0.00067   0.00266   0.00400   0.00543   0.00627

  Beta  occ. eigenvalues --  -38.45260 -38.44604 -38.44221 -38.44198 -38.43746
  Beta  occ. eigenvalues --  -38.43340 -38.43309  -2.21034  -2.20390  -2.20012
  Beta  occ. eigenvalues --   -2.20003  -2.19544  -2.19228  -2.19182  -1.14737
  Beta  occ. eigenvalues --   -1.14699  -1.14632  -1.14095  -1.14044  -1.14028
  Beta  occ. eigenvalues --   -1.13746  -1.13700  -1.13686  -1.13662  -1.13639
  Beta  occ. eigenvalues --   -1.13585  -1.13267  -1.13214  -1.13192  -1.12933
  Beta  occ. eigenvalues --   -1.12902  -1.12883  -1.12864  -1.12840  -1.12810
  Beta  occ. eigenvalues --   -0.16717  -0.13250  -0.12724
  Beta virt. eigenvalues --   -0.06432  -0.06301  -0.06070  -0.03969  -0.03238
  Beta virt. eigenvalues --   -0.02455  -0.01972  -0.01616  -0.01030  -0.00846
  Beta virt. eigenvalues --   -0.00742   0.00159   0.00383   0.00464   0.00697

 Mulliken charges and spin densities:
               1          2
     1  Na   0.221456   0.150811
     2  Na  -0.299709   0.022104
     3  Na  -0.030851   0.165013
     4  Na  -0.221981   0.224002
     5  Na   0.063410  -0.017928
     6  Na   0.143737   0.310945
     7  Na   0.123938   0.145053
 Sum of Mulliken charges =  -0.00000   1.00000

 Dipole moment (field-independent basis, Debye):
    X=              0.2802    Y=             -0.5273    Z=             -0.3107  Tot=              0.6732
 Quadrupole moment (field-independent basis, Debye-Ang):
   XX=            -60.3078   YY=            -63.9901   ZZ=            -73.6496
   XY=             -7.2595   XZ=             -1.3291   YZ=              2.1170

 Normal termination of Gaussian 16 at Tue Nov 28 20:51:00 2023.
