 Gaussian 16, Revision B.01,
 Gaussian 16:  ES64L-G16RevB.01 20-Dec-2017

 -------------------------
 #P B3LYP/6-311+g(d) force
 -------------------------

 -----
 DPGEN
 -----
 Symbolic Z-matrix:
 Charge =  0 Multiplicity = 2

                         Standard orientation:
 ---------------------------------------------------------------------
 Center     Atomic      Atomic             Coordinates (Angstroms)
 Number     Number       Type             X           Y           Z
 ---------------------------------------------------------------------
      1         11           0        3.029719   -1.102883   -0.117933
      2         11           0       -2.669670   -1.154379   -0.152115
      3         11           0       -0.135272   -2.675364    0.160014
      4         11           0        0.144137    0.226169    1.855318
      5         11           0        1.874361    2.349469   -0.081358
      6         11           0       -2.134497    2.113941    0.159485
      7         11           0       -0.108778    0.243048   -1.823411
 ---------------------------------------------------------------------

 SCF Done:  E(UB3LYP) =  -1136.13709263     A.U. after   19 cycles

 The electronic state is 2-A.
 Alpha  occ. eigenvalues --  -38.44154 -38.43806 -38.43659 -38.43611 -38.43333
 Alpha  occ. eigenvalues --  -38.43320 -38.43006  -2.19959  -2.19646  -2.19535
 Alpha  occ. eigenvalues --   -2.19518  -2.19288  -2.19269  -2.18923  -1.13632
 Alpha  occ. eigenvalues --   -1.13616  -1.13604  -1.13331  -1.13330  -1.13271
 Alpha  occ. eigenvalues --   -1.13263  -1.13241  -1.13196  -1.13179  -1.13169
 Alpha  occ. eigenvalues --   -1.13124  -1.12971  -1.12936  -1.12916  -1.12903
 Alpha  occ. eigenvalues --   -1.12902  -1.12881  -1.12599  -1.12569  -1.12554
 Alpha  occ. eigenvalues --   -0.18977  -0.13153  -0.12479  -0.10825
 Alpha virt. eigenvalues --   -0.05688  -0.05268  -0.04388  -0.03253  -0.02898
 Alpha virt. eigenvalues --   -0.02540  -0.01534  -0.01147  -0.00296  -0.00103
 Alpha virt. eigenvalues --    0.00005   0.00364   0.00811   0.00863   0.00948

  Beta  occ. eigenvalues --  -38.44153 -38.43800 -38.43652 -38.43605 -38.43254
  Beta  occ. eigenvalues --  -38.43237 -38.42998  -2.19960  -2.19640  -2.19527
  Beta  occ. eigenvalues --   -2.19510  -2.19144  -2.19116  -2.18914  -1.13621
  Beta  occ. eigenvalues --   -1.13614  -1.13606  -1.13329  -1.13298  -1.13269
  Beta  occ. eigenvalues --   -1.13263  -1.13237  -1.13167  -1.13159  -1.13141
  Beta  occ. eigenvalues --   -1.13121  -1.12877  -1.12836  -1.12813  -1.12798
  Beta  occ. eigenvalues --   -1.12794  -1.12772  -1.12594  -1.12553  -1.12530
  Beta  occ. eigenvalues --   -0.18223  -0.12912  -0.12222
  Beta virt. eigenvalues --   -0.06895  -0.05688  -0.05227  -0.04380  -0.02438
  Beta virt. eigenvalues --   -0.02101  -0.01486  -0.01446  -0.01079  -0.00363
  Beta virt. eigenvalues --   -0.00134   0.00125   0.00380   0.00845   0.00873

 Mulliken charges and spin densities:
               1          2
     1  Na  -0.001365  -0.083588
     2  Na   0.233214   0.036927
     3  Na   0.118443  -0.048483
     4  Na  -0.365232   0.704017
     5  Na   0.103031  -0.166093
     6  Na   0.275642  -0.100473
     7  Na  -0.363733   0.657694
 Sum of Mulliken charges =  -0.00000   1.00000

 Dipole moment (field-independent basis, Debye):
    X=              0.3562    Y=              0.3425    Z=             -0.0264  Tot=              0.4949
 Quadrupole moment (field-independent basis, Debye-Ang):
   XX=            -55.9556   YY=            -63.6234   ZZ=            -74.0157
   XY=             -0.6878   XZ=             -0.5285   YZ=              0.1762

 Normal termination of Gaussian 16 at Thu Dec  7 20:02:32 2023.
