 Gaussian 16, Revision B.01,
 Gaussian 16:  ES64L-G16RevB.01 20-Dec-2017

 -------------------------
 #P B3LYP/6-311+g(d) force
 -------------------------

 -----
 DPGEN
 -----
 Symbolic Z-matrix:
 Charge =  0 Multiplicity = 2

                         Standard orientation:
 ---------------------------------------------------------------------
 Center     Atomic      Atomic             Coordinates (Angstroms)
 Number     Number       Type             X           Y           Z
 ---------------------------------------------------------------------
      1         11           0       -2.470950   -2.625102    0.650494
      2         11           0        2.486726    1.108101    1.620106
      3         11           0        0.880129    3.290184   -0.392031
      4         11           0       -2.391296    2.000480   -1.478790
      5         11           0        0.557396   -2.584027   -1.405260
      6         11           0       -3.079464    0.159850    1.249668
      7         11           0        4.017459   -1.349486   -0.244188
 ---------------------------------------------------------------------

 SCF Done:  E(UB3LYP) =  -1136.10695336     A.U. after   23 cycles

 The electronic state is 2-A.
 Alpha  occ. eigenvalues --  -38.45198 -38.44727 -38.44672 -38.44422 -38.44198
 Alpha  occ. eigenvalues --  -38.44192 -38.44001  -2.20939  -2.20531  -2.20484
 Alpha  occ. eigenvalues --   -2.20184  -2.20039  -2.19992  -2.19810  -1.14623
 Alpha  occ. eigenvalues --   -1.14604  -1.14586  -1.14282  -1.14182  -1.14169
 Alpha  occ. eigenvalues --   -1.14164  -1.14158  -1.14120  -1.13850  -1.13837
 Alpha  occ. eigenvalues --   -1.13801  -1.13701  -1.13677  -1.13661  -1.13654
 Alpha  occ. eigenvalues --   -1.13636  -1.13611  -1.13463  -1.13462  -1.13438
 Alpha  occ. eigenvalues --   -0.16155  -0.13806  -0.12768  -0.10417
 Alpha virt. eigenvalues --   -0.07431  -0.04996  -0.04744  -0.03713  -0.03485
 Alpha virt. eigenvalues --   -0.02327  -0.01713  -0.01345  -0.01227  -0.00875
 Alpha virt. eigenvalues --   -0.00515  -0.00059   0.00044   0.00354   0.00530

  Beta  occ. eigenvalues --  -38.45212 -38.44731 -38.44638 -38.44363 -38.44173
  Beta  occ. eigenvalues --  -38.44137 -38.43951  -2.20967  -2.20496  -2.20473
  Beta  occ. eigenvalues --   -2.20073  -2.19998  -2.19889  -2.19717  -1.14644
  Beta  occ. eigenvalues --   -1.14623  -1.14587  -1.14230  -1.14178  -1.14175
  Beta  occ. eigenvalues --   -1.14140  -1.14109  -1.14104  -1.13774  -1.13763
  Beta  occ. eigenvalues --   -1.13727  -1.13665  -1.13653  -1.13615  -1.13583
  Beta  occ. eigenvalues --   -1.13567  -1.13540  -1.13402  -1.13397  -1.13380
  Beta  occ. eigenvalues --   -0.15654  -0.13335  -0.12185
  Beta virt. eigenvalues --   -0.07486  -0.07229  -0.04605  -0.04216  -0.03447
  Beta virt. eigenvalues --   -0.03080  -0.02090  -0.01346  -0.01304  -0.01091
  Beta virt. eigenvalues --   -0.00630  -0.00428   0.00172   0.00249   0.00485

 Mulliken charges and spin densities:
               1          2
     1  Na   0.333854  -0.023586
     2  Na  -0.274146   0.272552
     3  Na  -0.010282  -0.063026
     4  Na   0.123478   0.305509
     5  Na  -0.440373   0.348365
     6  Na  -0.164554   0.246766
     7  Na   0.432023  -0.086579
 Sum of Mulliken charges =  -0.00000   1.00000

 Dipole moment (field-independent basis, Debye):
    X=              0.4485    Y=             -0.0144    Z=             -0.0367  Tot=              0.4502
 Quadrupole moment (field-independent basis, Debye-Ang):
   XX=            -61.1764   YY=            -69.3662   ZZ=            -70.3173
   XY=             -1.2750   XZ=             -0.6715   YZ=             -0.0202

 Normal termination of Gaussian 16 at Sun Dec  3 16:11:42 2023.
