 Gaussian 16, Revision B.01,
 Gaussian 16:  ES64L-G16RevB.01 20-Dec-2017

 -------------------------
 #P B3LYP/6-311+g(d) force
 -------------------------

 -----
 DPGEN
 -----
 Symbolic Z-matrix:
 Charge =  0 Multiplicity = 2

                         Standard orientation:
 ---------------------------------------------------------------------
 Center     Atomic      Atomic             Coordinates (Angstroms)
 Number     Number       Type             X           Y           Z
 ---------------------------------------------------------------------
      1         11           0       -2.882101    1.060335    0.062227
      2         11           0       -0.188762    0.029971    1.992372
      3         11           0       -1.993132   -2.272366   -0.305365
      4         11           0        1.609211   -2.476955    0.286451
      5         11           0        0.218120   -0.151605   -1.886648
      6         11           0        3.112797    0.695742   -0.028166
      7         11           0        0.123868    3.114877   -0.120871
 ---------------------------------------------------------------------

 SCF Done:  E(UB3LYP) =  -1136.14081980     A.U. after   18 cycles

 The electronic state is 2-A.
 Alpha  occ. eigenvalues --  -38.43963 -38.43767 -38.43649 -38.43632 -38.43537
 Alpha  occ. eigenvalues --  -38.43528 -38.43491  -2.19769  -2.19596  -2.19535
 Alpha  occ. eigenvalues --   -2.19434  -2.19428  -2.19384  -2.19333  -1.13447
 Alpha  occ. eigenvalues --   -1.13431  -1.13409  -1.13286  -1.13264  -1.13237
 Alpha  occ. eigenvalues --   -1.13205  -1.13163  -1.13157  -1.13120  -1.13111
 Alpha  occ. eigenvalues --   -1.13094  -1.13075  -1.13068  -1.13063  -1.13053
 Alpha  occ. eigenvalues --   -1.13029  -1.13018  -1.12996  -1.12985  -1.12965
 Alpha  occ. eigenvalues --   -0.18380  -0.12811  -0.12429  -0.10814
 Alpha virt. eigenvalues --   -0.05518  -0.05120  -0.04969  -0.03192  -0.02988
 Alpha virt. eigenvalues --   -0.02685  -0.01386  -0.01178  -0.00483  -0.00419
 Alpha virt. eigenvalues --   -0.00029   0.00381   0.00809   0.00865   0.00880

  Beta  occ. eigenvalues --  -38.43962 -38.43764 -38.43631 -38.43563 -38.43529
  Beta  occ. eigenvalues --  -38.43483 -38.43452  -2.19769  -2.19593  -2.19429
  Beta  occ. eigenvalues --   -2.19377  -2.19372  -2.19322  -2.19292  -1.13438
  Beta  occ. eigenvalues --   -1.13424  -1.13411  -1.13275  -1.13246  -1.13238
  Beta  occ. eigenvalues --   -1.13111  -1.13097  -1.13093  -1.13067  -1.13065
  Beta  occ. eigenvalues --   -1.13049  -1.13046  -1.13021  -1.13014  -1.13008
  Beta  occ. eigenvalues --   -1.12991  -1.12968  -1.12961  -1.12954  -1.12934
  Beta  occ. eigenvalues --   -0.17633  -0.12596  -0.12205
  Beta virt. eigenvalues --   -0.06920  -0.05521  -0.05132  -0.04833  -0.02408
  Beta virt. eigenvalues --   -0.02226  -0.01651  -0.01298  -0.01091  -0.00542
  Beta virt. eigenvalues --   -0.00476   0.00107   0.00398   0.00846   0.00868

 Mulliken charges and spin densities:
               1          2
     1  Na   0.100509  -0.087328
     2  Na  -0.247926   0.732672
     3  Na   0.171783  -0.041990
     4  Na   0.162769  -0.039070
     5  Na  -0.176272   0.711524
     6  Na   0.036999  -0.127783
     7  Na  -0.047862  -0.148025
 Sum of Mulliken charges =  -0.00000   1.00000

 Dipole moment (field-independent basis, Debye):
    X=              0.1029    Y=              0.0724    Z=              0.0298  Tot=              0.1293
 Quadrupole moment (field-independent basis, Debye-Ang):
   XX=            -58.5157   YY=            -61.6083   ZZ=            -73.7700
   XY=              0.2792   XZ=              0.8366   YZ=             -0.3782

 Normal termination of Gaussian 16 at Tue Dec  5 15:09:32 2023.
