 Gaussian 16, Revision B.01,
 Gaussian 16:  ES64L-G16RevB.01 20-Dec-2017

 -------------------------
 #P B3LYP/6-311+g(d) force
 -------------------------

 -----
 DPGEN
 -----
 Symbolic Z-matrix:
 Charge =  0 Multiplicity = 2

                         Standard orientation:
 ---------------------------------------------------------------------
 Center     Atomic      Atomic             Coordinates (Angstroms)
 Number     Number       Type             X           Y           Z
 ---------------------------------------------------------------------
      1         11           0       -0.173640   -0.117521    1.914293
      2         11           0        2.447551   -1.474534   -0.085386
      3         11           0       -3.015229   -0.343843    0.195367
      4         11           0       -0.466464   -2.794178   -0.232976
      5         11           0        2.580541    1.856397    0.221714
      6         11           0       -0.081015    0.140406   -1.776330
      7         11           0       -1.291745    2.733273   -0.236683
 ---------------------------------------------------------------------

 SCF Done:  E(UB3LYP) =  -1136.13977246     A.U. after   19 cycles

 The electronic state is 2-A.
 Alpha  occ. eigenvalues --  -38.43842 -38.43780 -38.43676 -38.43494 -38.43438
 Alpha  occ. eigenvalues --  -38.43262 -38.43129  -2.19699  -2.19591  -2.19510
 Alpha  occ. eigenvalues --   -2.19422  -2.19334  -2.19228  -2.19032  -1.13391
 Alpha  occ. eigenvalues --   -1.13364  -1.13332  -1.13266  -1.13260  -1.13233
 Alpha  occ. eigenvalues --   -1.13214  -1.13169  -1.13132  -1.13103  -1.13056
 Alpha  occ. eigenvalues --   -1.13040  -1.13025  -1.12994  -1.12975  -1.12903
 Alpha  occ. eigenvalues --   -1.12863  -1.12843  -1.12696  -1.12687  -1.12661
 Alpha  occ. eigenvalues --   -0.18869  -0.13031  -0.12531  -0.10851
 Alpha virt. eigenvalues --   -0.05518  -0.05061  -0.04727  -0.03201  -0.02951
 Alpha virt. eigenvalues --   -0.02569  -0.01399  -0.01133  -0.00365  -0.00165
 Alpha virt. eigenvalues --   -0.00003   0.00369   0.00857   0.00875   0.00925

  Beta  occ. eigenvalues --  -38.43834 -38.43778 -38.43669 -38.43433 -38.43410
  Beta  occ. eigenvalues --  -38.43185 -38.43120  -2.19689  -2.19589  -2.19501
  Beta  occ. eigenvalues --   -2.19328  -2.19268  -2.19088  -2.19020  -1.13377
  Beta  occ. eigenvalues --   -1.13340  -1.13326  -1.13268  -1.13243  -1.13232
  Beta  occ. eigenvalues --   -1.13197  -1.13149  -1.13130  -1.13038  -1.12990
  Beta  occ. eigenvalues --   -1.12985  -1.12962  -1.12936  -1.12921  -1.12815
  Beta  occ. eigenvalues --   -1.12766  -1.12747  -1.12685  -1.12663  -1.12637
  Beta  occ. eigenvalues --   -0.18126  -0.12775  -0.12276
  Beta virt. eigenvalues --   -0.06938  -0.05492  -0.05027  -0.04710  -0.02392
  Beta virt. eigenvalues --   -0.02177  -0.01524  -0.01304  -0.01049  -0.00415
  Beta virt. eigenvalues --   -0.00222   0.00124   0.00388   0.00870   0.00902

 Mulliken charges and spin densities:
               1          2
     1  Na  -0.402059   0.735153
     2  Na   0.110438  -0.044583
     3  Na   0.262431  -0.043225
     4  Na   0.265574  -0.027861
     5  Na  -0.030857  -0.085903
     6  Na  -0.227365   0.593809
     7  Na   0.021839  -0.127390
 Sum of Mulliken charges =  -0.00000   1.00000

 Dipole moment (field-independent basis, Debye):
    X=             -0.1561    Y=              0.2517    Z=              0.0996  Tot=              0.3124
 Quadrupole moment (field-independent basis, Debye-Ang):
   XX=            -58.2426   YY=            -61.6058   ZZ=            -73.8572
   XY=              0.5331   XZ=              0.1946   YZ=              0.6861

 Normal termination of Gaussian 16 at Thu Dec  7 14:20:16 2023.
