 Gaussian 16, Revision B.01,
 Gaussian 16:  ES64L-G16RevB.01 20-Dec-2017

 -------------------------
 #P B3LYP/6-311+g(d) force
 -------------------------

 -----
 DPGEN
 -----
 Symbolic Z-matrix:
 Charge =  0 Multiplicity = 2

                         Standard orientation:
 ---------------------------------------------------------------------
 Center     Atomic      Atomic             Coordinates (Angstroms)
 Number     Number       Type             X           Y           Z
 ---------------------------------------------------------------------
      1         11           0       -1.185675   -2.009866    1.730462
      2         11           0        1.716486    2.813450   -0.531411
      3         11           0        2.303078   -2.455455   -0.576974
      4         11           0        0.472612   -0.282672   -1.852167
      5         11           0       -2.950879   -0.221675   -1.533991
      6         11           0       -2.005825    1.541545    1.072154
      7         11           0        1.650204    0.614673    1.691928
 ---------------------------------------------------------------------

 SCF Done:  E(UB3LYP) =  -1136.12667798     A.U. after   21 cycles

 The electronic state is 2-A.
 Alpha  occ. eigenvalues --  -38.44900 -38.44066 -38.44046 -38.43976 -38.43807
 Alpha  occ. eigenvalues --  -38.43354 -38.43320  -2.20680  -2.19879  -2.19872
 Alpha  occ. eigenvalues --   -2.19836  -2.19708  -2.19160  -2.19144  -1.14358
 Alpha  occ. eigenvalues --   -1.14318  -1.14293  -1.13594  -1.13565  -1.13548
 Alpha  occ. eigenvalues --   -1.13521  -1.13514  -1.13509  -1.13503  -1.13462
 Alpha  occ. eigenvalues --   -1.13455  -1.13384  -1.13359  -1.13340  -1.12850
 Alpha  occ. eigenvalues --   -1.12815  -1.12807  -1.12805  -1.12790  -1.12773
 Alpha  occ. eigenvalues --   -0.17877  -0.12717  -0.11969  -0.11722
 Alpha virt. eigenvalues --   -0.05543  -0.05121  -0.04781  -0.03416  -0.03292
 Alpha virt. eigenvalues --   -0.03149  -0.01202  -0.01063  -0.00863   0.00101
 Alpha virt. eigenvalues --    0.00204   0.00353   0.00447   0.00580   0.00702

  Beta  occ. eigenvalues --  -38.44839 -38.44058 -38.44012 -38.43946 -38.43743
  Beta  occ. eigenvalues --  -38.43356 -38.43319  -2.20568  -2.19865  -2.19811
  Beta  occ. eigenvalues --   -2.19782  -2.19592  -2.19166  -2.19142  -1.14269
  Beta  occ. eigenvalues --   -1.14242  -1.14218  -1.13572  -1.13541  -1.13503
  Beta  occ. eigenvalues --   -1.13493  -1.13482  -1.13465  -1.13454  -1.13434
  Beta  occ. eigenvalues --   -1.13421  -1.13302  -1.13282  -1.13255  -1.12842
  Beta  occ. eigenvalues --   -1.12812  -1.12811  -1.12798  -1.12792  -1.12772
  Beta  occ. eigenvalues --   -0.17077  -0.12552  -0.11579
  Beta virt. eigenvalues --   -0.08050  -0.05299  -0.04672  -0.04462  -0.03158
  Beta virt. eigenvalues --   -0.02707  -0.02432  -0.01103  -0.00971  -0.00477
  Beta virt. eigenvalues --    0.00180   0.00330   0.00385   0.00542   0.00688

 Mulliken charges and spin densities:
               1          2
     1  Na  -0.286548   0.314418
     2  Na   0.032694  -0.130025
     3  Na   0.014158  -0.023577
     4  Na  -0.095160   0.429489
     5  Na   0.205435  -0.030227
     6  Na  -0.076691   0.178847
     7  Na   0.206112   0.261074
 Sum of Mulliken charges =  -0.00000   1.00000

 Dipole moment (field-independent basis, Debye):
    X=             -0.5285    Y=             -0.1864    Z=              0.3316  Tot=              0.6512
 Quadrupole moment (field-independent basis, Debye-Ang):
   XX=            -64.1906   YY=            -67.4566   ZZ=            -64.9694
   XY=              0.2059   XZ=              0.6142   YZ=             -3.0402

 Normal termination of Gaussian 16 at Sun Dec  3 16:05:42 2023.
