 Gaussian 16, Revision B.01,
 Gaussian 16:  ES64L-G16RevB.01 20-Dec-2017

 -------------------------
 #P B3LYP/6-311+g(d) force
 -------------------------

 -----
 DPGEN
 -----
 Symbolic Z-matrix:
 Charge =  0 Multiplicity = 2

                         Standard orientation:
 ---------------------------------------------------------------------
 Center     Atomic      Atomic             Coordinates (Angstroms)
 Number     Number       Type             X           Y           Z
 ---------------------------------------------------------------------
      1         11           0        0.892385    3.157458   -0.801259
      2         11           0       -3.461687   -0.744989    1.121919
      3         11           0       -0.436131    1.399897    1.935923
      4         11           0       -2.177276    0.928724   -1.729595
      5         11           0       -1.680687   -2.799899   -0.857713
      6         11           0        2.016724   -0.685032    0.483113
      7         11           0        4.846672   -1.256159   -0.152388
 ---------------------------------------------------------------------

 SCF Done:  E(UB3LYP) =  -1136.11396624     A.U. after   21 cycles

 The electronic state is 2-A.
 Alpha  occ. eigenvalues --  -38.45115 -38.44870 -38.44696 -38.44178 -38.44009
 Alpha  occ. eigenvalues --  -38.43700 -38.43350  -2.20885  -2.20665  -2.20516
 Alpha  occ. eigenvalues --   -2.19947  -2.19807  -2.19537  -2.19192  -1.14555
 Alpha  occ. eigenvalues --   -1.14552  -1.14514  -1.14360  -1.14324  -1.14258
 Alpha  occ. eigenvalues --   -1.14194  -1.14165  -1.14136  -1.13619  -1.13601
 Alpha  occ. eigenvalues --   -1.13586  -1.13533  -1.13452  -1.13450  -1.13225
 Alpha  occ. eigenvalues --   -1.13184  -1.13141  -1.12864  -1.12852  -1.12813
 Alpha  occ. eigenvalues --   -0.17100  -0.13274  -0.11921  -0.10803
 Alpha virt. eigenvalues --   -0.07178  -0.05734  -0.04027  -0.03736  -0.02949
 Alpha virt. eigenvalues --   -0.02437  -0.02333  -0.01495  -0.00815  -0.00656
 Alpha virt. eigenvalues --   -0.00328  -0.00173   0.00142   0.00489   0.00599

  Beta  occ. eigenvalues --  -38.45101 -38.44811 -38.44668 -38.44166 -38.44018
  Beta  occ. eigenvalues --  -38.43640 -38.43343  -2.20860  -2.20556  -2.20466
  Beta  occ. eigenvalues --   -2.19926  -2.19825  -2.19425  -2.19180  -1.14536
  Beta  occ. eigenvalues --   -1.14530  -1.14497  -1.14279  -1.14251  -1.14181
  Beta  occ. eigenvalues --   -1.14157  -1.14129  -1.14082  -1.13602  -1.13581
  Beta  occ. eigenvalues --   -1.13571  -1.13545  -1.13464  -1.13462  -1.13148
  Beta  occ. eigenvalues --   -1.13109  -1.13055  -1.12849  -1.12841  -1.12811
  Beta  occ. eigenvalues --   -0.16420  -0.13219  -0.11793
  Beta virt. eigenvalues --   -0.07019  -0.06936  -0.05424  -0.03734  -0.03277
  Beta virt. eigenvalues --   -0.02706  -0.02112  -0.01655  -0.01348  -0.00736
  Beta virt. eigenvalues --   -0.00412  -0.00218   0.00006   0.00215   0.00537

 Mulliken charges and spin densities:
               1          2
     1  Na   0.274112   0.084317
     2  Na   0.348793   0.121992
     3  Na   0.412059   0.371495
     4  Na  -0.050306   0.358697
     5  Na   0.058109   0.113927
     6  Na  -0.794047  -0.052601
     7  Na  -0.248721   0.002173
 Sum of Mulliken charges =  -0.00000   1.00000

 Dipole moment (field-independent basis, Debye):
    X=             -0.7924    Y=             -0.0483    Z=             -0.5409  Tot=              0.9606
 Quadrupole moment (field-independent basis, Debye-Ang):
   XX=            -57.4046   YY=            -65.3210   ZZ=            -73.0181
   XY=              3.1403   XZ=             -3.6517   YZ=              0.1528

 Normal termination of Gaussian 16 at Sun Dec  3 17:35:34 2023.
