 Gaussian 16, Revision B.01,
 Gaussian 16:  ES64L-G16RevB.01 20-Dec-2017

 -------------------------
 #P B3LYP/6-311+g(d) force
 -------------------------

 -----
 DPGEN
 -----
 Symbolic Z-matrix:
 Charge =  0 Multiplicity = 2

                         Standard orientation:
 ---------------------------------------------------------------------
 Center     Atomic      Atomic             Coordinates (Angstroms)
 Number     Number       Type             X           Y           Z
 ---------------------------------------------------------------------
      1         11           0       -0.212163    0.163904   -1.854617
      2         11           0        0.214679   -0.186042    1.994085
      3         11           0        2.574740    0.104543   -0.198702
      4         11           0        0.833107   -2.024086   -0.124541
      5         11           0       -1.921690   -1.492913   -0.056145
      6         11           0        0.493222    2.193800    0.065208
      7         11           0       -1.981895    1.240794    0.174713
 ---------------------------------------------------------------------

 SCF Done:  E(UB3LYP) =  -1136.08590523     A.U. after   19 cycles

 The electronic state is 2-A.
 Alpha  occ. eigenvalues --  -38.44373 -38.44286 -38.43843 -38.43686 -38.43545
 Alpha  occ. eigenvalues --  -38.43460 -38.43391  -2.20500  -2.20496  -2.20012
 Alpha  occ. eigenvalues --   -2.19750  -2.19670  -2.19609  -2.19532  -1.14324
 Alpha  occ. eigenvalues --   -1.14237  -1.14187  -1.14166  -1.14146  -1.14099
 Alpha  occ. eigenvalues --   -1.13938  -1.13770  -1.13682  -1.13580  -1.13513
 Alpha  occ. eigenvalues --   -1.13451  -1.13359  -1.13268  -1.13230  -1.13215
 Alpha  occ. eigenvalues --   -1.13168  -1.13149  -1.13126  -1.13067  -1.13009
 Alpha  occ. eigenvalues --   -0.21627  -0.13606  -0.13034  -0.12634
 Alpha virt. eigenvalues --   -0.04952  -0.04181  -0.04113  -0.03761  -0.03465
 Alpha virt. eigenvalues --   -0.03265  -0.00830  -0.00445  -0.00190   0.00359
 Alpha virt. eigenvalues --    0.00853   0.00937   0.01082   0.01207   0.01256

  Beta  occ. eigenvalues --  -38.44273 -38.44192 -38.43828 -38.43677 -38.43534
  Beta  occ. eigenvalues --  -38.43444 -38.43377  -2.20331  -2.20316  -2.19992
  Beta  occ. eigenvalues --   -2.19738  -2.19655  -2.19589  -2.19514  -1.14237
  Beta  occ. eigenvalues --   -1.14127  -1.14072  -1.14035  -1.14028  -1.13969
  Beta  occ. eigenvalues --   -1.13922  -1.13748  -1.13673  -1.13506  -1.13502
  Beta  occ. eigenvalues --   -1.13446  -1.13307  -1.13227  -1.13199  -1.13160
  Beta  occ. eigenvalues --   -1.13142  -1.13131  -1.13065  -1.13062  -1.13004
  Beta  occ. eigenvalues --   -0.20739  -0.13246  -0.12656
  Beta virt. eigenvalues --   -0.08422  -0.04968  -0.04167  -0.04095  -0.02819
  Beta virt. eigenvalues --   -0.02522  -0.02161  -0.00767  -0.00398  -0.00015
  Beta virt. eigenvalues --    0.00379   0.00836   0.00903   0.01125   0.01187

 Mulliken charges and spin densities:
               1          2
     1  Na  -0.084857   0.414470
     2  Na  -0.283534   0.463172
     3  Na  -0.027423  -0.047941
     4  Na   0.142001   0.072721
     5  Na   0.052704  -0.010731
     6  Na   0.072901   0.039822
     7  Na   0.128209   0.068487
 Sum of Mulliken charges =  -0.00000   1.00000

 Dipole moment (field-independent basis, Debye):
    X=              0.1868    Y=             -0.0301    Z=              0.2007  Tot=              0.2758
 Quadrupole moment (field-independent basis, Debye-Ang):
   XX=            -63.4728   YY=            -69.7072   ZZ=            -65.9036
   XY=              0.6377   XZ=             -0.7505   YZ=              0.5263

 Normal termination of Gaussian 16 at Sat Dec  9 06:08:33 2023.
