 Gaussian 16, Revision B.01,
 Gaussian 16:  ES64L-G16RevB.01 20-Dec-2017

 -------------------------
 #P B3LYP/6-311+g(d) force
 -------------------------

 -----
 DPGEN
 -----
 Symbolic Z-matrix:
 Charge =  0 Multiplicity = 2

                         Standard orientation:
 ---------------------------------------------------------------------
 Center     Atomic      Atomic             Coordinates (Angstroms)
 Number     Number       Type             X           Y           Z
 ---------------------------------------------------------------------
      1         11           0        2.602873    1.467870    0.052317
      2         11           0       -1.440798   -2.284720    0.175024
      3         11           0        2.506455   -1.933086   -0.270108
      4         11           0       -0.414205    2.586775   -0.142817
      5         11           0        0.040234   -0.150409   -1.744933
      6         11           0        0.195968   -0.025845    2.046004
      7         11           0       -3.490529    0.339415   -0.115487
 ---------------------------------------------------------------------

 SCF Done:  E(UB3LYP) =  -1136.13522459     A.U. after   19 cycles

 The electronic state is 2-A.
 Alpha  occ. eigenvalues --  -38.44672 -38.43767 -38.43683 -38.43638 -38.43467
 Alpha  occ. eigenvalues --  -38.43358 -38.42786  -2.20459  -2.19657  -2.19594
 Alpha  occ. eigenvalues --   -2.19471  -2.19439  -2.19237  -2.18684  -1.14127
 Alpha  occ. eigenvalues --   -1.14124  -1.14097  -1.13346  -1.13326  -1.13308
 Alpha  occ. eigenvalues --   -1.13265  -1.13221  -1.13207  -1.13165  -1.13133
 Alpha  occ. eigenvalues --   -1.13123  -1.13111  -1.13100  -1.13034  -1.12916
 Alpha  occ. eigenvalues --   -1.12907  -1.12842  -1.12382  -1.12346  -1.12302
 Alpha  occ. eigenvalues --   -0.18826  -0.13279  -0.12111  -0.10941
 Alpha virt. eigenvalues --   -0.06138  -0.05078  -0.04086  -0.03334  -0.02775
 Alpha virt. eigenvalues --   -0.02707  -0.01937  -0.01058  -0.00225  -0.00085
 Alpha virt. eigenvalues --   -0.00032   0.00319   0.00748   0.00866   0.00893

  Beta  occ. eigenvalues --  -38.44674 -38.43761 -38.43633 -38.43586 -38.43397
  Beta  occ. eigenvalues --  -38.43349 -38.42779  -2.20465  -2.19650  -2.19464
  Beta  occ. eigenvalues --   -2.19416  -2.19311  -2.19224  -2.18674  -1.14131
  Beta  occ. eigenvalues --   -1.14119  -1.14102  -1.13338  -1.13312  -1.13286
  Beta  occ. eigenvalues --   -1.13155  -1.13138  -1.13117  -1.13104  -1.13094
  Beta  occ. eigenvalues --   -1.13079  -1.13049  -1.13020  -1.12947  -1.12898
  Beta  occ. eigenvalues --   -1.12863  -1.12840  -1.12376  -1.12312  -1.12297
  Beta  occ. eigenvalues --   -0.18067  -0.13072  -0.11845
  Beta virt. eigenvalues --   -0.06988  -0.06077  -0.05085  -0.04072  -0.02559
  Beta virt. eigenvalues --   -0.01982  -0.01852  -0.01617  -0.01006  -0.00262
  Beta virt. eigenvalues --   -0.00097   0.00084   0.00335   0.00810   0.00881

 Mulliken charges and spin densities:
               1          2
     1  Na   0.311358   0.008423
     2  Na   0.247572  -0.068310
     3  Na   0.213841  -0.064329
     4  Na   0.103003  -0.090997
     5  Na  -0.401559   0.629295
     6  Na  -0.448049   0.679523
     7  Na  -0.026167  -0.093605
 Sum of Mulliken charges =  -0.00000   1.00000

 Dipole moment (field-independent basis, Debye):
    X=             -0.2850    Y=             -0.0585    Z=              0.1083  Tot=              0.3104
 Quadrupole moment (field-independent basis, Debye-Ang):
   XX=            -52.0933   YY=            -67.7411   ZZ=            -73.4110
   XY=             -0.9592   XZ=             -0.0132   YZ=             -0.1100

 Normal termination of Gaussian 16 at Thu Dec  7 07:10:29 2023.
