 Gaussian 16, Revision B.01,
 Gaussian 16:  ES64L-G16RevB.01 20-Dec-2017

 -------------------------
 #P B3LYP/6-311+g(d) force
 -------------------------

 -----
 DPGEN
 -----
 Symbolic Z-matrix:
 Charge =  0 Multiplicity = 2

                         Standard orientation:
 ---------------------------------------------------------------------
 Center     Atomic      Atomic             Coordinates (Angstroms)
 Number     Number       Type             X           Y           Z
 ---------------------------------------------------------------------
      1         11           0        2.967959    0.973473   -0.203926
      2         11           0        0.225589    0.371463   -1.753885
      3         11           0       -2.011952   -2.231755   -0.458191
      4         11           0       -2.417604    0.511352    0.525233
      5         11           0        1.447274   -2.439397   -0.030121
      6         11           0        0.665518   -0.148129    1.994839
      7         11           0       -0.876784    2.962994   -0.073949
 ---------------------------------------------------------------------

 SCF Done:  E(UB3LYP) =  -1136.13091779     A.U. after   21 cycles

 The electronic state is 2-A.
 Alpha  occ. eigenvalues --  -38.44039 -38.43882 -38.43738 -38.43730 -38.43477
 Alpha  occ. eigenvalues --  -38.43360 -38.43325  -2.19881  -2.19751  -2.19657
 Alpha  occ. eigenvalues --   -2.19610  -2.19355  -2.19332  -2.19299  -1.13580
 Alpha  occ. eigenvalues --   -1.13557  -1.13506  -1.13488  -1.13423  -1.13384
 Alpha  occ. eigenvalues --   -1.13361  -1.13308  -1.13278  -1.13271  -1.13267
 Alpha  occ. eigenvalues --   -1.13231  -1.13178  -1.13014  -1.12996  -1.12980
 Alpha  occ. eigenvalues --   -1.12965  -1.12948  -1.12933  -1.12913  -1.12863
 Alpha  occ. eigenvalues --   -0.19009  -0.13115  -0.12597  -0.11110
 Alpha virt. eigenvalues --   -0.05676  -0.05007  -0.04378  -0.03465  -0.03064
 Alpha virt. eigenvalues --   -0.02720  -0.01335  -0.01194  -0.00117  -0.00040
 Alpha virt. eigenvalues --    0.00110   0.00373   0.00824   0.00939   0.00978

  Beta  occ. eigenvalues --  -38.44032 -38.43875 -38.43737 -38.43642 -38.43471
  Beta  occ. eigenvalues --  -38.43312 -38.43288  -2.19873  -2.19741  -2.19612
  Beta  occ. eigenvalues --   -2.19494  -2.19346  -2.19279  -2.19202  -1.13566
  Beta  occ. eigenvalues --   -1.13531  -1.13500  -1.13463  -1.13395  -1.13385
  Beta  occ. eigenvalues --   -1.13358  -1.13261  -1.13231  -1.13204  -1.13172
  Beta  occ. eigenvalues --   -1.13161  -1.13155  -1.12985  -1.12969  -1.12931
  Beta  occ. eigenvalues --   -1.12909  -1.12885  -1.12866  -1.12854  -1.12849
  Beta  occ. eigenvalues --   -0.18262  -0.12869  -0.12355
  Beta virt. eigenvalues --   -0.07177  -0.05674  -0.04903  -0.04341  -0.02636
  Beta virt. eigenvalues --   -0.02307  -0.01679  -0.01277  -0.01126  -0.00099
  Beta virt. eigenvalues --    0.00007   0.00138   0.00402   0.00822   0.00968

 Mulliken charges and spin densities:
               1          2
     1  Na   0.056166  -0.136895
     2  Na  -0.254606   0.551718
     3  Na  -0.074360  -0.016862
     4  Na   0.171426   0.188349
     5  Na   0.192868   0.012024
     6  Na  -0.228498   0.493753
     7  Na   0.137004  -0.092087
 Sum of Mulliken charges =  -0.00000   1.00000

 Dipole moment (field-independent basis, Debye):
    X=              0.6746    Y=              0.0832    Z=              0.0067  Tot=              0.6797
 Quadrupole moment (field-independent basis, Debye-Ang):
   XX=            -61.6191   YY=            -61.0439   ZZ=            -72.3506
   XY=              0.7416   XZ=             -0.4364   YZ=              1.1041

 Normal termination of Gaussian 16 at Tue Dec  5 09:58:49 2023.
