 Gaussian 16, Revision B.01,
 Gaussian 16:  ES64L-G16RevB.01 20-Dec-2017

 -------------------------
 #P B3LYP/6-311+g(d) force
 -------------------------

 -----
 DPGEN
 -----
 Symbolic Z-matrix:
 Charge =  0 Multiplicity = 2

                         Standard orientation:
 ---------------------------------------------------------------------
 Center     Atomic      Atomic             Coordinates (Angstroms)
 Number     Number       Type             X           Y           Z
 ---------------------------------------------------------------------
      1         11           0       -2.818191   -0.298373   -0.382046
      2         11           0       -2.325349    3.906677    0.429878
      3         11           0        2.555482   -0.312592   -1.116785
      4         11           0       -2.770090   -2.952921    1.158027
      5         11           0        5.082368    0.012727    1.199799
      6         11           0        0.300641    2.423821   -0.445961
      7         11           0       -0.024862   -2.779340   -0.842912
 ---------------------------------------------------------------------

 SCF Done:  E(UB3LYP) =  -1136.11749971     A.U. after   19 cycles

 The electronic state is 2-A.
 Alpha  occ. eigenvalues --  -38.45212 -38.44436 -38.44430 -38.44385 -38.44351
 Alpha  occ. eigenvalues --  -38.43912 -38.42863  -2.21021  -2.20257  -2.20234
 Alpha  occ. eigenvalues --   -2.20203  -2.20173  -2.19712  -2.18679  -1.14731
 Alpha  occ. eigenvalues --   -1.14695  -1.14635  -1.13945  -1.13940  -1.13917
 Alpha  occ. eigenvalues --   -1.13913  -1.13906  -1.13890  -1.13871  -1.13845
 Alpha  occ. eigenvalues --   -1.13832  -1.13817  -1.13804  -1.13762  -1.13348
 Alpha  occ. eigenvalues --   -1.13347  -1.13324  -1.12366  -1.12358  -1.12327
 Alpha  occ. eigenvalues --   -0.16499  -0.13606  -0.13069  -0.10432
 Alpha virt. eigenvalues --   -0.06475  -0.05936  -0.04468  -0.03933  -0.02654
 Alpha virt. eigenvalues --   -0.01992  -0.01819  -0.01683  -0.01638  -0.01065
 Alpha virt. eigenvalues --   -0.00225  -0.00038   0.00119   0.00361   0.00550

  Beta  occ. eigenvalues --  -38.45196 -38.44427 -38.44391 -38.44389 -38.44329
  Beta  occ. eigenvalues --  -38.43799 -38.42862  -2.20994  -2.20228  -2.20184
  Beta  occ. eigenvalues --   -2.20170  -2.20161  -2.19502  -2.18685  -1.14706
  Beta  occ. eigenvalues --   -1.14664  -1.14618  -1.13948  -1.13909  -1.13899
  Beta  occ. eigenvalues --   -1.13881  -1.13861  -1.13840  -1.13837  -1.13835
  Beta  occ. eigenvalues --   -1.13824  -1.13816  -1.13768  -1.13762  -1.13205
  Beta  occ. eigenvalues --   -1.13204  -1.13187  -1.12376  -1.12368  -1.12278
  Beta  occ. eigenvalues --   -0.16102  -0.13425  -0.12418
  Beta virt. eigenvalues --   -0.06856  -0.06294  -0.05671  -0.03948  -0.03838
  Beta virt. eigenvalues --   -0.02587  -0.01860  -0.01583  -0.01380  -0.01087
  Beta virt. eigenvalues --   -0.00782   0.00061   0.00161   0.00351   0.00550

 Mulliken charges and spin densities:
               1          2
     1  Na  -0.466326   0.141229
     2  Na   0.551356  -0.021294
     3  Na  -0.019450  -0.277904
     4  Na   0.601980   0.161161
     5  Na   0.127397   0.635293
     6  Na  -0.494738   0.053988
     7  Na  -0.300220   0.307526
 Sum of Mulliken charges =  -0.00000   1.00000

 Dipole moment (field-independent basis, Debye):
    X=             -2.3324    Y=             -0.2986    Z=              0.5481  Tot=              2.4145
 Quadrupole moment (field-independent basis, Debye-Ang):
   XX=            -72.2786   YY=            -57.3411   ZZ=            -69.6394
   XY=             -1.9263   XZ=             -0.9010   YZ=             -1.2062

 Normal termination of Gaussian 16 at Wed Nov 29 01:49:17 2023.
