 Gaussian 16, Revision B.01,
 Gaussian 16:  ES64L-G16RevB.01 20-Dec-2017

 -------------------------
 #P B3LYP/6-311+g(d) force
 -------------------------

 -----
 DPGEN
 -----
 Symbolic Z-matrix:
 Charge =  0 Multiplicity = 2

                         Standard orientation:
 ---------------------------------------------------------------------
 Center     Atomic      Atomic             Coordinates (Angstroms)
 Number     Number       Type             X           Y           Z
 ---------------------------------------------------------------------
      1         11           0        2.526405    1.902455   -0.271601
      2         11           0        0.156355   -0.057288    2.132512
      3         11           0       -1.358974   -2.465784    0.290139
      4         11           0       -3.149475    0.243665   -0.494353
      5         11           0       -0.676804    2.812505    0.188744
      6         11           0        0.019775   -0.231175   -1.583284
      7         11           0        2.482718   -2.204378   -0.262157
 ---------------------------------------------------------------------

 SCF Done:  E(UB3LYP) =  -1136.13766466     A.U. after   21 cycles

 The electronic state is 2-A.
 Alpha  occ. eigenvalues --  -38.43977 -38.43919 -38.43748 -38.43631 -38.43582
 Alpha  occ. eigenvalues --  -38.43391 -38.43191  -2.19789  -2.19706  -2.19625
 Alpha  occ. eigenvalues --   -2.19512  -2.19426  -2.19240  -2.19163  -1.13470
 Alpha  occ. eigenvalues --   -1.13450  -1.13426  -1.13389  -1.13359  -1.13347
 Alpha  occ. eigenvalues --   -1.13303  -1.13259  -1.13243  -1.13220  -1.13174
 Alpha  occ. eigenvalues --   -1.13144  -1.13103  -1.13072  -1.13054  -1.12916
 Alpha  occ. eigenvalues --   -1.12912  -1.12871  -1.12848  -1.12799  -1.12776
 Alpha  occ. eigenvalues --   -0.18484  -0.12817  -0.12475  -0.10834
 Alpha virt. eigenvalues --   -0.05572  -0.05215  -0.04739  -0.03150  -0.02932
 Alpha virt. eigenvalues --   -0.02640  -0.01500  -0.01275  -0.00402  -0.00309
 Alpha virt. eigenvalues --   -0.00014   0.00343   0.00794   0.00833   0.00902

  Beta  occ. eigenvalues --  -38.43975 -38.43916 -38.43646 -38.43621 -38.43573
  Beta  occ. eigenvalues --  -38.43386 -38.43136  -2.19786  -2.19704  -2.19497
  Beta  occ. eigenvalues --   -2.19437  -2.19411  -2.19234  -2.19063  -1.13462
  Beta  occ. eigenvalues --   -1.13440  -1.13424  -1.13375  -1.13358  -1.13343
  Beta  occ. eigenvalues --   -1.13229  -1.13171  -1.13147  -1.13140  -1.13112
  Beta  occ. eigenvalues --   -1.13093  -1.13082  -1.13056  -1.13046  -1.12912
  Beta  occ. eigenvalues --   -1.12886  -1.12867  -1.12779  -1.12730  -1.12699
  Beta  occ. eigenvalues --   -0.17760  -0.12588  -0.12246
  Beta virt. eigenvalues --   -0.06905  -0.05569  -0.05141  -0.04683  -0.02365
  Beta virt. eigenvalues --   -0.02223  -0.01596  -0.01389  -0.01219  -0.00416
  Beta virt. eigenvalues --   -0.00338   0.00120   0.00375   0.00826   0.00860

 Mulliken charges and spin densities:
               1          2
     1  Na   0.001668  -0.080402
     2  Na  -0.340745   0.636869
     3  Na   0.299702   0.065269
     4  Na   0.113283   0.018039
     5  Na   0.130139   0.036898
     6  Na  -0.217197   0.412675
     7  Na   0.013149  -0.089346
 Sum of Mulliken charges =  -0.00000   1.00000

 Dipole moment (field-independent basis, Debye):
    X=              0.2794    Y=             -0.0553    Z=              0.1188  Tot=              0.3086
 Quadrupole moment (field-independent basis, Debye-Ang):
   XX=            -57.4228   YY=            -61.8454   ZZ=            -74.1085
   XY=             -0.3991   XZ=             -0.0879   YZ=             -0.4724

 Normal termination of Gaussian 16 at Thu Dec  7 02:48:27 2023.
