 Gaussian 16, Revision B.01,
 Gaussian 16:  ES64L-G16RevB.01 20-Dec-2017

 -------------------------
 #P B3LYP/6-311+g(d) force
 -------------------------

 -----
 DPGEN
 -----
 Symbolic Z-matrix:
 Charge =  0 Multiplicity = 2

                         Standard orientation:
 ---------------------------------------------------------------------
 Center     Atomic      Atomic             Coordinates (Angstroms)
 Number     Number       Type             X           Y           Z
 ---------------------------------------------------------------------
      1         11           0        3.188205   -2.083084   -0.851168
      2         11           0       -0.988935    0.159287    1.899923
      3         11           0       -0.122047   -2.585232    1.253073
      4         11           0       -3.217461   -1.840034   -1.235858
      5         11           0       -3.286256    1.998916   -0.901130
      6         11           0        0.739258    3.021732    0.537429
      7         11           0        3.687236    1.328415   -0.702270
 ---------------------------------------------------------------------

 SCF Done:  E(UB3LYP) =  -1136.10946353     A.U. after   22 cycles

 The electronic state is 2-A.
 Alpha  occ. eigenvalues --  -38.45540 -38.45302 -38.44547 -38.44459 -38.44216
 Alpha  occ. eigenvalues --  -38.43860 -38.43616  -2.21284  -2.21033  -2.20321
 Alpha  occ. eigenvalues --   -2.20303  -2.19982  -2.19626  -2.19451  -1.14959
 Alpha  occ. eigenvalues --   -1.14918  -1.14908  -1.14717  -1.14682  -1.14662
 Alpha  occ. eigenvalues --   -1.14043  -1.13976  -1.13958  -1.13954  -1.13940
 Alpha  occ. eigenvalues --   -1.13938  -1.13661  -1.13642  -1.13620  -1.13308
 Alpha  occ. eigenvalues --   -1.13295  -1.13249  -1.13160  -1.13082  -1.13058
 Alpha  occ. eigenvalues --   -0.16356  -0.13380  -0.12111  -0.11336
 Alpha virt. eigenvalues --   -0.07053  -0.05394  -0.04628  -0.03643  -0.03533
 Alpha virt. eigenvalues --   -0.02146  -0.01677  -0.01518  -0.01211  -0.00831
 Alpha virt. eigenvalues --   -0.00295  -0.00232   0.00144   0.00507   0.00539

  Beta  occ. eigenvalues --  -38.45485 -38.45277 -38.44522 -38.44391 -38.44207
  Beta  occ. eigenvalues --  -38.43846 -38.43587  -2.21182  -2.20987  -2.20257
  Beta  occ. eigenvalues --   -2.20198  -2.19967  -2.19601  -2.19401  -1.14891
  Beta  occ. eigenvalues --   -1.14851  -1.14827  -1.14688  -1.14655  -1.14614
  Beta  occ. eigenvalues --   -1.13952  -1.13946  -1.13929  -1.13902  -1.13864
  Beta  occ. eigenvalues --   -1.13855  -1.13651  -1.13634  -1.13599  -1.13283
  Beta  occ. eigenvalues --   -1.13280  -1.13237  -1.13108  -1.13046  -1.13030
  Beta  occ. eigenvalues --   -0.15683  -0.12708  -0.11942
  Beta virt. eigenvalues --   -0.07913  -0.06924  -0.05101  -0.04074  -0.03412
  Beta virt. eigenvalues --   -0.03057  -0.01725  -0.01417  -0.01344  -0.01123
  Beta virt. eigenvalues --   -0.00778  -0.00229   0.00037   0.00355   0.00580

 Mulliken charges and spin densities:
               1          2
     1  Na   0.018267   0.127939
     2  Na   0.689677   0.229451
     3  Na  -0.507637   0.152550
     4  Na  -0.028681   0.259603
     5  Na   0.020124   0.180910
     6  Na  -0.185617   0.001982
     7  Na  -0.006131   0.047565
 Sum of Mulliken charges =  -0.00000   1.00000

 Dipole moment (field-independent basis, Debye):
    X=             -0.8868    Y=             -0.1657    Z=             -0.7212  Tot=              1.1550
 Quadrupole moment (field-independent basis, Debye-Ang):
   XX=            -64.4953   YY=            -62.5798   ZZ=            -71.1581
   XY=             -0.1878   XZ=              0.9533   YZ=              1.6771

 Normal termination of Gaussian 16 at Sun Dec  3 17:29:56 2023.
