 Gaussian 16, Revision B.01,
 Gaussian 16:  ES64L-G16RevB.01 20-Dec-2017

 -------------------------
 #P B3LYP/6-311+g(d) force
 -------------------------

 -----
 DPGEN
 -----
 Symbolic Z-matrix:
 Charge =  0 Multiplicity = 2

                         Standard orientation:
 ---------------------------------------------------------------------
 Center     Atomic      Atomic             Coordinates (Angstroms)
 Number     Number       Type             X           Y           Z
 ---------------------------------------------------------------------
      1         11           0        0.110995    0.071270   -1.423390
      2         11           0       -0.725888    0.653832    1.595628
      3         11           0        1.787292    1.829054    0.452467
      4         11           0        2.932757   -0.779751   -0.577149
      5         11           0       -2.165069    1.586590   -0.669490
      6         11           0        0.464646   -1.799259    0.782845
      7         11           0       -2.404733   -1.561737   -0.160911
 ---------------------------------------------------------------------

 SCF Done:  E(UB3LYP) =  -1136.10352916     A.U. after   20 cycles

 The electronic state is 2-A.
 Alpha  occ. eigenvalues --  -38.44262 -38.43908 -38.43615 -38.43542 -38.43503
 Alpha  occ. eigenvalues --  -38.43467 -38.42948  -2.20230  -2.19925  -2.19725
 Alpha  occ. eigenvalues --   -2.19710  -2.19591  -2.19486  -2.19061  -1.13967
 Alpha  occ. eigenvalues --   -1.13889  -1.13877  -1.13819  -1.13696  -1.13570
 Alpha  occ. eigenvalues --   -1.13516  -1.13407  -1.13397  -1.13343  -1.13279
 Alpha  occ. eigenvalues --   -1.13272  -1.13255  -1.13225  -1.13213  -1.13117
 Alpha  occ. eigenvalues --   -1.13108  -1.13072  -1.12734  -1.12683  -1.12632
 Alpha  occ. eigenvalues --   -0.20632  -0.14316  -0.12048  -0.11579
 Alpha virt. eigenvalues --   -0.05789  -0.04881  -0.03863  -0.03441  -0.02628
 Alpha virt. eigenvalues --   -0.02390  -0.01707  -0.00805  -0.00150   0.00303
 Alpha virt. eigenvalues --    0.00467   0.00562   0.00830   0.00923   0.01034

  Beta  occ. eigenvalues --  -38.44249 -38.43886 -38.43607 -38.43488 -38.43462
  Beta  occ. eigenvalues --  -38.43405 -38.42917  -2.20208  -2.19886  -2.19604
  Beta  occ. eigenvalues --   -2.19581  -2.19579  -2.19464  -2.19011  -1.13948
  Beta  occ. eigenvalues --   -1.13877  -1.13845  -1.13782  -1.13629  -1.13494
  Beta  occ. eigenvalues --   -1.13481  -1.13356  -1.13307  -1.13267  -1.13248
  Beta  occ. eigenvalues --   -1.13214  -1.13196  -1.13179  -1.13169  -1.13090
  Beta  occ. eigenvalues --   -1.13057  -1.13041  -1.12702  -1.12616  -1.12586
  Beta  occ. eigenvalues --   -0.19871  -0.13994  -0.11785
  Beta virt. eigenvalues --   -0.07417  -0.05713  -0.04883  -0.03442  -0.02976
  Beta virt. eigenvalues --   -0.01891  -0.01592  -0.01304  -0.00772   0.00051
  Beta virt. eigenvalues --    0.00342   0.00468   0.00538   0.00883   0.00929

 Mulliken charges and spin densities:
               1          2
     1  Na  -0.765475   0.317460
     2  Na   0.318933   0.312457
     3  Na  -0.466709   0.082713
     4  Na   0.933551   0.049051
     5  Na   0.122267   0.022322
     6  Na  -0.292436   0.152034
     7  Na   0.149869   0.063962
 Sum of Mulliken charges =  -0.00000   1.00000

 Dipole moment (field-independent basis, Debye):
    X=              0.0887    Y=              0.0774    Z=             -0.1030  Tot=              0.1564
 Quadrupole moment (field-independent basis, Debye-Ang):
   XX=            -52.1396   YY=            -70.7935   ZZ=            -70.9476
   XY=              0.4452   XZ=              0.5329   YZ=              0.2584

 Normal termination of Gaussian 16 at Sat Dec  9 05:55:16 2023.
