 Gaussian 16, Revision B.01,
 Gaussian 16:  ES64L-G16RevB.01 20-Dec-2017

 -------------------------
 #P B3LYP/6-311+g(d) force
 -------------------------

 -----
 DPGEN
 -----
 Symbolic Z-matrix:
 Charge =  0 Multiplicity = 2

                         Standard orientation:
 ---------------------------------------------------------------------
 Center     Atomic      Atomic             Coordinates (Angstroms)
 Number     Number       Type             X           Y           Z
 ---------------------------------------------------------------------
      1         11           0       -0.664748   -0.488823    2.176937
      2         11           0        2.766111    1.409089   -0.000622
      3         11           0        2.412715   -2.131730    0.126285
      4         11           0       -1.718267   -2.296551   -0.729840
      5         11           0       -2.974024    0.898682   -0.092651
      6         11           0        0.299751   -0.084598   -1.341961
      7         11           0       -0.121537    2.693931   -0.138147
 ---------------------------------------------------------------------

 SCF Done:  E(UB3LYP) =  -1136.13217916     A.U. after   19 cycles

 The electronic state is 2-A.
 Alpha  occ. eigenvalues --  -38.44061 -38.44022 -38.43865 -38.43745 -38.43741
 Alpha  occ. eigenvalues --  -38.42988 -38.42905  -2.19915  -2.19829  -2.19739
 Alpha  occ. eigenvalues --   -2.19617  -2.19602  -2.18986  -2.18902  -1.13585
 Alpha  occ. eigenvalues --   -1.13581  -1.13564  -1.13515  -1.13492  -1.13466
 Alpha  occ. eigenvalues --   -1.13446  -1.13398  -1.13362  -1.13349  -1.13274
 Alpha  occ. eigenvalues --   -1.13254  -1.13226  -1.13219  -1.13215  -1.12753
 Alpha  occ. eigenvalues --   -1.12645  -1.12613  -1.12549  -1.12525  -1.12522
 Alpha  occ. eigenvalues --   -0.18761  -0.13297  -0.12385  -0.10710
 Alpha virt. eigenvalues --   -0.05765  -0.05382  -0.04388  -0.03259  -0.02771
 Alpha virt. eigenvalues --   -0.02493  -0.01603  -0.01192  -0.00411  -0.00163
 Alpha virt. eigenvalues --   -0.00017   0.00337   0.00767   0.00847   0.00908

  Beta  occ. eigenvalues --  -38.44056 -38.44021 -38.43865 -38.43720 -38.43642
  Beta  occ. eigenvalues --  -38.42983 -38.42856  -2.19909  -2.19830  -2.19740
  Beta  occ. eigenvalues --   -2.19574  -2.19420  -2.18904  -2.18890  -1.13584
  Beta  occ. eigenvalues --   -1.13566  -1.13544  -1.13514  -1.13480  -1.13469
  Beta  occ. eigenvalues --   -1.13444  -1.13392  -1.13361  -1.13312  -1.13216
  Beta  occ. eigenvalues --   -1.13199  -1.13135  -1.13103  -1.13084  -1.12712
  Beta  occ. eigenvalues --   -1.12584  -1.12552  -1.12532  -1.12510  -1.12486
  Beta  occ. eigenvalues --   -0.18072  -0.13078  -0.12157
  Beta virt. eigenvalues --   -0.06746  -0.05720  -0.05316  -0.04357  -0.02525
  Beta virt. eigenvalues --   -0.02048  -0.01530  -0.01393  -0.01113  -0.00446
  Beta virt. eigenvalues --   -0.00183   0.00165   0.00385   0.00814   0.00873

 Mulliken charges and spin densities:
               1          2
     1  Na  -0.716578   0.716883
     2  Na   0.114918   0.046393
     3  Na   0.104392   0.005534
     4  Na   0.263617   0.031190
     5  Na   0.418475   0.112039
     6  Na  -0.372788   0.077346
     7  Na   0.187964   0.010615
 Sum of Mulliken charges =  -0.00000   1.00000

 Dipole moment (field-independent basis, Debye):
    X=              0.0350    Y=             -0.2861    Z=              0.3085  Tot=              0.4222
 Quadrupole moment (field-independent basis, Debye-Ang):
   XX=            -54.6831   YY=            -63.7803   ZZ=            -74.6846
   XY=             -0.7787   XZ=              1.9082   YZ=              0.5863

 Normal termination of Gaussian 16 at Thu Dec  7 04:14:13 2023.
