 Gaussian 16, Revision B.01,
 Gaussian 16:  ES64L-G16RevB.01 20-Dec-2017

 -------------------------
 #P B3LYP/6-311+g(d) force
 -------------------------

 -----
 DPGEN
 -----
 Symbolic Z-matrix:
 Charge =  0 Multiplicity = 2

                         Standard orientation:
 ---------------------------------------------------------------------
 Center     Atomic      Atomic             Coordinates (Angstroms)
 Number     Number       Type             X           Y           Z
 ---------------------------------------------------------------------
      1         11           0        0.128401    0.280515   -1.878728
      2         11           0       -0.450129   -2.757597   -0.075003
      3         11           0        2.964193    1.631514   -0.171722
      4         11           0       -1.411365    2.723011    0.304158
      5         11           0       -3.349881   -0.377471   -0.363136
      6         11           0        2.409221   -1.470697    0.208823
      7         11           0       -0.290440   -0.029274    1.975609
 ---------------------------------------------------------------------

 SCF Done:  E(UB3LYP) =  -1136.13404941     A.U. after   20 cycles

 The electronic state is 2-A.
 Alpha  occ. eigenvalues --  -38.44774 -38.44030 -38.43774 -38.43710 -38.43637
 Alpha  occ. eigenvalues --  -38.43455 -38.42819  -2.20553  -2.19841  -2.19660
 Alpha  occ. eigenvalues --   -2.19535  -2.19518  -2.19371  -2.18701  -1.14229
 Alpha  occ. eigenvalues --   -1.14202  -1.14191  -1.13537  -1.13503  -1.13477
 Alpha  occ. eigenvalues --   -1.13344  -1.13305  -1.13271  -1.13230  -1.13203
 Alpha  occ. eigenvalues --   -1.13178  -1.13165  -1.13146  -1.13137  -1.13051
 Alpha  occ. eigenvalues --   -1.13030  -1.13010  -1.12382  -1.12361  -1.12338
 Alpha  occ. eigenvalues --   -0.18420  -0.13183  -0.12080  -0.10849
 Alpha virt. eigenvalues --   -0.06205  -0.05088  -0.04374  -0.03378  -0.02851
 Alpha virt. eigenvalues --   -0.02659  -0.01904  -0.01026  -0.00550  -0.00168
 Alpha virt. eigenvalues --   -0.00068   0.00332   0.00760   0.00768   0.00826

  Beta  occ. eigenvalues --  -38.44767 -38.44031 -38.43704 -38.43701 -38.43550
  Beta  occ. eigenvalues --  -38.43449 -38.42814  -2.20540  -2.19845  -2.19530
  Beta  occ. eigenvalues --   -2.19504  -2.19375  -2.19362  -2.18697  -1.14206
  Beta  occ. eigenvalues --   -1.14194  -1.14184  -1.13542  -1.13491  -1.13479
  Beta  occ. eigenvalues --   -1.13260  -1.13221  -1.13190  -1.13174  -1.13155
  Beta  occ. eigenvalues --   -1.13140  -1.13103  -1.13056  -1.13052  -1.13034
  Beta  occ. eigenvalues --   -1.13014  -1.12978  -1.12382  -1.12348  -1.12318
  Beta  occ. eigenvalues --   -0.17680  -0.12970  -0.11837
  Beta virt. eigenvalues --   -0.06986  -0.06121  -0.05039  -0.04341  -0.02626
  Beta virt. eigenvalues --   -0.02106  -0.01806  -0.01621  -0.00941  -0.00589
  Beta virt. eigenvalues --   -0.00209   0.00079   0.00362   0.00801   0.00848

 Mulliken charges and spin densities:
               1          2
     1  Na  -0.309847   0.626684
     2  Na   0.048393  -0.024125
     3  Na   0.172489  -0.080137
     4  Na  -0.004221  -0.119088
     5  Na   0.084889  -0.024802
     6  Na   0.192708   0.042381
     7  Na  -0.184411   0.579086
 Sum of Mulliken charges =  -0.00000   1.00000

 Dipole moment (field-independent basis, Debye):
    X=             -0.4700    Y=              0.3504    Z=             -0.0673  Tot=              0.5901
 Quadrupole moment (field-independent basis, Debye-Ang):
   XX=            -54.8331   YY=            -65.5373   ZZ=            -73.5834
   XY=              1.3603   XZ=              1.2718   YZ=              0.5570

 Normal termination of Gaussian 16 at Thu Dec  7 03:51:54 2023.
