 Gaussian 16, Revision B.01,
 Gaussian 16:  ES64L-G16RevB.01 20-Dec-2017

 -------------------------
 #P B3LYP/6-311+g(d) force
 -------------------------

 -----
 DPGEN
 -----
 Symbolic Z-matrix:
 Charge =  0 Multiplicity = 2

                         Standard orientation:
 ---------------------------------------------------------------------
 Center     Atomic      Atomic             Coordinates (Angstroms)
 Number     Number       Type             X           Y           Z
 ---------------------------------------------------------------------
      1         11           0       -2.380475   -1.438228   -1.232585
      2         11           0        1.158662    3.559431   -0.489627
      3         11           0       -0.488372    0.512849    0.614285
      4         11           0        2.320352    0.364170   -1.172436
      5         11           0       -3.374508    1.162755    0.977743
      6         11           0        0.383905   -2.848081   -0.426860
      7         11           0        2.380436   -1.312896    1.729479
 ---------------------------------------------------------------------

 SCF Done:  E(UB3LYP) =  -1136.12650568     A.U. after   20 cycles

 The electronic state is 2-A.
 Alpha  occ. eigenvalues --  -38.44160 -38.43966 -38.43851 -38.43766 -38.43711
 Alpha  occ. eigenvalues --  -38.43515 -38.43043  -2.20024  -2.19817  -2.19728
 Alpha  occ. eigenvalues --   -2.19585  -2.19547  -2.19400  -2.19047  -1.13728
 Alpha  occ. eigenvalues --   -1.13707  -1.13622  -1.13540  -1.13447  -1.13428
 Alpha  occ. eigenvalues --   -1.13383  -1.13366  -1.13352  -1.13298  -1.13247
 Alpha  occ. eigenvalues --   -1.13213  -1.13203  -1.13199  -1.13182  -1.13068
 Alpha  occ. eigenvalues --   -1.13064  -1.13020  -1.12763  -1.12705  -1.12657
 Alpha  occ. eigenvalues --   -0.18028  -0.13461  -0.12553  -0.10545
 Alpha virt. eigenvalues --   -0.05770  -0.05343  -0.04775  -0.03400  -0.02876
 Alpha virt. eigenvalues --   -0.01967  -0.01600  -0.01428  -0.00561  -0.00191
 Alpha virt. eigenvalues --   -0.00072   0.00224   0.00400   0.00667   0.00746

  Beta  occ. eigenvalues --  -38.44146 -38.43926 -38.43788 -38.43757 -38.43673
  Beta  occ. eigenvalues --  -38.43492 -38.43028  -2.20001  -2.19742  -2.19609
  Beta  occ. eigenvalues --   -2.19532  -2.19519  -2.19363  -2.19022  -1.13714
  Beta  occ. eigenvalues --   -1.13676  -1.13605  -1.13485  -1.13395  -1.13381
  Beta  occ. eigenvalues --   -1.13299  -1.13285  -1.13279  -1.13251  -1.13205
  Beta  occ. eigenvalues --   -1.13201  -1.13193  -1.13169  -1.13137  -1.13046
  Beta  occ. eigenvalues --   -1.13036  -1.12958  -1.12712  -1.12688  -1.12653
  Beta  occ. eigenvalues --   -0.17519  -0.13068  -0.12061
  Beta virt. eigenvalues --   -0.07136  -0.05602  -0.05074  -0.04348  -0.03082
  Beta virt. eigenvalues --   -0.02352  -0.01635  -0.01391  -0.01143  -0.00260
  Beta virt. eigenvalues --   -0.00027   0.00050   0.00339   0.00520   0.00718

 Mulliken charges and spin densities:
               1          2
     1  Na   0.067787   0.120416
     2  Na  -0.003004   0.022310
     3  Na  -1.869023   0.225501
     4  Na   0.444169   0.219992
     5  Na   0.164144   0.153301
     6  Na   0.297087   0.142504
     7  Na   0.898841   0.115975
 Sum of Mulliken charges =  -0.00000   1.00000

 Dipole moment (field-independent basis, Debye):
    X=              0.0432    Y=              0.1165    Z=             -0.0636  Tot=              0.1396
 Quadrupole moment (field-independent basis, Debye-Ang):
   XX=            -59.9486   YY=            -63.8928   ZZ=            -69.6137
   XY=             -2.6067   XZ=              0.2404   YZ=              1.3036

 Normal termination of Gaussian 16 at Tue Nov 28 22:35:32 2023.
