 Gaussian 16, Revision B.01,
 Gaussian 16:  ES64L-G16RevB.01 20-Dec-2017

 -------------------------
 #P B3LYP/6-311+g(d) force
 -------------------------

 -----
 DPGEN
 -----
 Symbolic Z-matrix:
 Charge =  0 Multiplicity = 2

                         Standard orientation:
 ---------------------------------------------------------------------
 Center     Atomic      Atomic             Coordinates (Angstroms)
 Number     Number       Type             X           Y           Z
 ---------------------------------------------------------------------
      1         11           0       -0.006480   -0.092354    2.076123
      2         11           0       -1.084606    0.162431   -1.489069
      3         11           0       -3.715223   -1.318714    0.398202
      4         11           0       -0.803817    3.299996    0.083455
      5         11           0        1.843979    1.424525   -0.784924
      6         11           0        3.049403   -0.945969    0.684058
      7         11           0        0.716744   -2.529915   -0.967845
 ---------------------------------------------------------------------

 SCF Done:  E(UB3LYP) =  -1136.12619679     A.U. after   21 cycles

 The electronic state is 2-A.
 Alpha  occ. eigenvalues --  -38.44487 -38.44372 -38.44156 -38.43760 -38.43647
 Alpha  occ. eigenvalues --  -38.43551 -38.43143  -2.20226  -2.20213  -2.20000
 Alpha  occ. eigenvalues --   -2.19657  -2.19482  -2.19454  -2.19074  -1.13901
 Alpha  occ. eigenvalues --   -1.13889  -1.13886  -1.13857  -1.13845  -1.13828
 Alpha  occ. eigenvalues --   -1.13693  -1.13658  -1.13622  -1.13408  -1.13298
 Alpha  occ. eigenvalues --   -1.13284  -1.13188  -1.13142  -1.13120  -1.13118
 Alpha  occ. eigenvalues --   -1.13106  -1.13044  -1.12779  -1.12724  -1.12676
 Alpha  occ. eigenvalues --   -0.18401  -0.12793  -0.12120  -0.11088
 Alpha virt. eigenvalues --   -0.06323  -0.05345  -0.04040  -0.03326  -0.02908
 Alpha virt. eigenvalues --   -0.02771  -0.01877  -0.01377  -0.00499  -0.00066
 Alpha virt. eigenvalues --    0.00086   0.00284   0.00432   0.00706   0.00818

  Beta  occ. eigenvalues --  -38.44488 -38.44284 -38.44122 -38.43749 -38.43650
  Beta  occ. eigenvalues --  -38.43533 -38.43098  -2.20228  -2.20051  -2.19940
  Beta  occ. eigenvalues --   -2.19641  -2.19461  -2.19452  -2.18994  -1.13902
  Beta  occ. eigenvalues --   -1.13887  -1.13859  -1.13779  -1.13733  -1.13706
  Beta  occ. eigenvalues --   -1.13644  -1.13610  -1.13581  -1.13399  -1.13283
  Beta  occ. eigenvalues --   -1.13251  -1.13167  -1.13129  -1.13114  -1.13109
  Beta  occ. eigenvalues --   -1.13087  -1.13035  -1.12729  -1.12647  -1.12619
  Beta  occ. eigenvalues --   -0.17610  -0.12644  -0.11922
  Beta virt. eigenvalues --   -0.07164  -0.06143  -0.05229  -0.03908  -0.02773
  Beta virt. eigenvalues --   -0.02319  -0.01921  -0.01563  -0.01276  -0.00332
  Beta virt. eigenvalues --   -0.00044   0.00149   0.00319   0.00593   0.00740

 Mulliken charges and spin densities:
               1          2
     1  Na  -0.574531   0.617983
     2  Na   0.294058   0.104549
     3  Na  -0.068914  -0.041806
     4  Na   0.086754  -0.080944
     5  Na  -0.265140   0.211287
     6  Na   0.778770   0.054623
     7  Na  -0.250998   0.134308
 Sum of Mulliken charges =  -0.00000   1.00000

 Dipole moment (field-independent basis, Debye):
    X=             -0.2356    Y=             -0.1071    Z=              0.3960  Tot=              0.4731
 Quadrupole moment (field-independent basis, Debye-Ang):
   XX=            -57.7714   YY=            -63.8920   ZZ=            -71.9232
   XY=             -1.8127   XZ=             -1.5440   YZ=              0.9642

 Normal termination of Gaussian 16 at Thu Dec  7 22:10:15 2023.
