 Gaussian 16, Revision B.01,
 Gaussian 16:  ES64L-G16RevB.01 20-Dec-2017

 -------------------------
 #P B3LYP/6-311+g(d) force
 -------------------------

 -----
 DPGEN
 -----
 Symbolic Z-matrix:
 Charge =  0 Multiplicity = 2

                         Standard orientation:
 ---------------------------------------------------------------------
 Center     Atomic      Atomic             Coordinates (Angstroms)
 Number     Number       Type             X           Y           Z
 ---------------------------------------------------------------------
      1         11           0        2.931017   -1.037276    1.616631
      2         11           0        4.017375    1.517143   -0.353168
      3         11           0        0.420533    1.223240   -0.165352
      4         11           0       -3.122601    1.992857    0.401921
      5         11           0       -4.222291   -1.147212    0.787271
      6         11           0       -1.918246   -0.691903   -1.485061
      7         11           0        1.894213   -1.856850   -0.802242
 ---------------------------------------------------------------------

 SCF Done:  E(UB3LYP) =  -1136.10469974     A.U. after   33 cycles

 The electronic state is 2-A.
 Alpha  occ. eigenvalues --  -38.45234 -38.44721 -38.44624 -38.44219 -38.44120
 Alpha  occ. eigenvalues --  -38.43471 -38.43347  -2.21140  -2.20566  -2.20435
 Alpha  occ. eigenvalues --   -2.20029  -2.19991  -2.19374  -2.19242  -1.14919
 Alpha  occ. eigenvalues --   -1.14779  -1.14720  -1.14219  -1.14214  -1.14201
 Alpha  occ. eigenvalues --   -1.14123  -1.14096  -1.14067  -1.13702  -1.13691
 Alpha  occ. eigenvalues --   -1.13675  -1.13669  -1.13660  -1.13604  -1.13096
 Alpha  occ. eigenvalues --   -1.13017  -1.12976  -1.12941  -1.12891  -1.12851
 Alpha  occ. eigenvalues --   -0.17777  -0.15394  -0.11162  -0.10424
 Alpha virt. eigenvalues --   -0.07127  -0.05435  -0.05222  -0.03278  -0.02793
 Alpha virt. eigenvalues --   -0.02415  -0.02003  -0.01610  -0.00822  -0.00617
 Alpha virt. eigenvalues --   -0.00152   0.00078   0.00168   0.00300   0.00491

  Beta  occ. eigenvalues --  -38.45200 -38.44647 -38.44630 -38.44189 -38.44099
  Beta  occ. eigenvalues --  -38.43455 -38.43293  -2.21079  -2.20453  -2.20427
  Beta  occ. eigenvalues --   -2.19973  -2.19961  -2.19349  -2.19148  -1.14879
  Beta  occ. eigenvalues --   -1.14732  -1.14671  -1.14152  -1.14141  -1.14126
  Beta  occ. eigenvalues --   -1.14105  -1.14092  -1.14037  -1.13661  -1.13657
  Beta  occ. eigenvalues --   -1.13632  -1.13629  -1.13625  -1.13577  -1.13076
  Beta  occ. eigenvalues --   -1.12989  -1.12946  -1.12875  -1.12817  -1.12783
  Beta  occ. eigenvalues --   -0.17077  -0.14821  -0.10172
  Beta virt. eigenvalues --   -0.07514  -0.06958  -0.05335  -0.04665  -0.03042
  Beta virt. eigenvalues --   -0.02633  -0.01951  -0.01389  -0.01286  -0.00659
  Beta virt. eigenvalues --   -0.00393  -0.00038   0.00159   0.00257   0.00365

 Mulliken charges and spin densities:
               1          2
     1  Na   0.557931   0.325716
     2  Na   0.254812   0.163239
     3  Na  -1.749944  -0.170707
     4  Na   0.570708   0.192807
     5  Na   0.148136   0.422834
     6  Na   0.206978   0.071242
     7  Na   0.011378  -0.005132
 Sum of Mulliken charges =  -0.00000   1.00000

 Dipole moment (field-independent basis, Debye):
    X=             -0.2747    Y=             -0.0923    Z=              0.5838  Tot=              0.6518
 Quadrupole moment (field-independent basis, Debye-Ang):
   XX=            -58.2353   YY=            -78.1904   ZZ=            -63.1022
   XY=             -1.7498   XZ=             -0.9243   YZ=             -1.9030

 Normal termination of Gaussian 16 at Tue Dec  5 23:31:51 2023.
