 Gaussian 16, Revision B.01,
 Gaussian 16:  ES64L-G16RevB.01 20-Dec-2017

 -------------------------
 #P B3LYP/6-311+g(d) force
 -------------------------

 -----
 DPGEN
 -----
 Symbolic Z-matrix:
 Charge =  0 Multiplicity = 2

                         Standard orientation:
 ---------------------------------------------------------------------
 Center     Atomic      Atomic             Coordinates (Angstroms)
 Number     Number       Type             X           Y           Z
 ---------------------------------------------------------------------
      1         11           0       -3.668807    1.483782   -0.023196
      2         11           0        3.083395   -2.645626   -0.281011
      3         11           0        4.126125    0.180390    0.753664
      4         11           0       -3.724211   -2.299279    0.182981
      5         11           0        2.221444    3.111428   -0.656322
      6         11           0       -1.371859    3.549568    0.245111
      7         11           0       -0.666087   -3.380263   -0.221225
 ---------------------------------------------------------------------

 SCF Done:  E(UB3LYP) =  -1136.10782864     A.U. after   23 cycles

 The electronic state is 2-A.
 Alpha  occ. eigenvalues --  -38.45276 -38.45085 -38.44461 -38.44424 -38.44338
 Alpha  occ. eigenvalues --  -38.44311 -38.44100  -2.21047  -2.20849  -2.20274
 Alpha  occ. eigenvalues --   -2.20216  -2.20134  -2.20093  -2.19912  -1.14729
 Alpha  occ. eigenvalues --   -1.14722  -1.14695  -1.14528  -1.14519  -1.14491
 Alpha  occ. eigenvalues --   -1.13996  -1.13927  -1.13905  -1.13876  -1.13868
 Alpha  occ. eigenvalues --   -1.13856  -1.13801  -1.13792  -1.13758  -1.13745
 Alpha  occ. eigenvalues --   -1.13731  -1.13709  -1.13563  -1.13558  -1.13548
 Alpha  occ. eigenvalues --   -0.15512  -0.14022  -0.13575  -0.10871
 Alpha virt. eigenvalues --   -0.07826  -0.04774  -0.04427  -0.03565  -0.03391
 Alpha virt. eigenvalues --   -0.02612  -0.02332  -0.02029  -0.01448  -0.00525
 Alpha virt. eigenvalues --   -0.00370  -0.00164   0.00114   0.00338   0.00387

  Beta  occ. eigenvalues --  -38.45277 -38.45069 -38.44410 -38.44398 -38.44331
  Beta  occ. eigenvalues --  -38.44228 -38.44051  -2.21055  -2.20826  -2.20184
  Beta  occ. eigenvalues --   -2.20171  -2.20127  -2.19939  -2.19820  -1.14736
  Beta  occ. eigenvalues --   -1.14730  -1.14666  -1.14515  -1.14507  -1.14448
  Beta  occ. eigenvalues --   -1.13935  -1.13868  -1.13848  -1.13847  -1.13833
  Beta  occ. eigenvalues --   -1.13815  -1.13801  -1.13788  -1.13704  -1.13640
  Beta  occ. eigenvalues --   -1.13630  -1.13609  -1.13504  -1.13496  -1.13487
  Beta  occ. eigenvalues --   -0.14980  -0.13350  -0.12766
  Beta virt. eigenvalues --   -0.07984  -0.07722  -0.04348  -0.03956  -0.03322
  Beta virt. eigenvalues --   -0.03048  -0.02392  -0.02092  -0.01858  -0.01327
  Beta virt. eigenvalues --   -0.00246  -0.00104   0.00134   0.00178   0.00328

 Mulliken charges and spin densities:
               1          2
     1  Na   0.073894   0.212851
     2  Na   0.032026   0.269223
     3  Na  -0.155214   0.000143
     4  Na   0.526304   0.030286
     5  Na  -0.198632   0.409393
     6  Na  -0.150392  -0.045522
     7  Na  -0.127986   0.123626
 Sum of Mulliken charges =  -0.00000   1.00000

 Dipole moment (field-independent basis, Debye):
    X=              0.0169    Y=             -0.4574    Z=              0.1137  Tot=              0.4716
 Quadrupole moment (field-independent basis, Debye-Ang):
   XX=            -59.5756   YY=            -68.9630   ZZ=            -72.2542
   XY=              1.6657   XZ=              1.0268   YZ=              1.2856

 Normal termination of Gaussian 16 at Sun Dec  3 16:49:43 2023.
