 Gaussian 16, Revision B.01,
 Gaussian 16:  ES64L-G16RevB.01 20-Dec-2017

 -------------------------
 #P B3LYP/6-311+g(d) force
 -------------------------

 -----
 DPGEN
 -----
 Symbolic Z-matrix:
 Charge =  0 Multiplicity = 2

                         Standard orientation:
 ---------------------------------------------------------------------
 Center     Atomic      Atomic             Coordinates (Angstroms)
 Number     Number       Type             X           Y           Z
 ---------------------------------------------------------------------
      1         11           0        3.744213    0.118504   -0.295550
      2         11           0       -1.351379    1.916187    1.408763
      3         11           0        1.097504    1.674708   -0.820787
      4         11           0        1.085362   -0.950427    2.182460
      5         11           0       -2.840737   -1.440493    0.548234
      6         11           0        0.622610   -1.966698   -1.351396
      7         11           0       -2.357573    0.648219   -1.671724
 ---------------------------------------------------------------------

 SCF Done:  E(UB3LYP) =  -1136.12464084     A.U. after   23 cycles

 The electronic state is 2-A.
 Alpha  occ. eigenvalues --  -38.45018 -38.44689 -38.44253 -38.44235 -38.43793
 Alpha  occ. eigenvalues --  -38.43108 -38.42825  -2.20827  -2.20497  -2.20124
 Alpha  occ. eigenvalues --   -2.20048  -2.19585  -2.18962  -2.18725  -1.14523
 Alpha  occ. eigenvalues --   -1.14483  -1.14445  -1.14161  -1.14129  -1.14117
 Alpha  occ. eigenvalues --   -1.13884  -1.13788  -1.13737  -1.13700  -1.13675
 Alpha  occ. eigenvalues --   -1.13667  -1.13285  -1.13257  -1.13189  -1.12649
 Alpha  occ. eigenvalues --   -1.12609  -1.12599  -1.12405  -1.12391  -1.12355
 Alpha  occ. eigenvalues --   -0.18127  -0.13658  -0.11652  -0.10969
 Alpha virt. eigenvalues --   -0.06601  -0.05173  -0.04443  -0.03301  -0.03110
 Alpha virt. eigenvalues --   -0.02749  -0.02144  -0.00846  -0.00497  -0.00302
 Alpha virt. eigenvalues --    0.00119   0.00174   0.00342   0.00637   0.00764

  Beta  occ. eigenvalues --  -38.45015 -38.44606 -38.44238 -38.44220 -38.43772
  Beta  occ. eigenvalues --  -38.43080 -38.42807  -2.20823  -2.20344  -2.20066
  Beta  occ. eigenvalues --   -2.20053  -2.19549  -2.18912  -2.18693  -1.14517
  Beta  occ. eigenvalues --   -1.14473  -1.14445  -1.14057  -1.14021  -1.14006
  Beta  occ. eigenvalues --   -1.13862  -1.13742  -1.13704  -1.13687  -1.13680
  Beta  occ. eigenvalues --   -1.13649  -1.13259  -1.13218  -1.13165  -1.12618
  Beta  occ. eigenvalues --   -1.12576  -1.12549  -1.12385  -1.12356  -1.12329
  Beta  occ. eigenvalues --   -0.17376  -0.13511  -0.10812
  Beta virt. eigenvalues --   -0.07746  -0.06425  -0.04620  -0.04197  -0.03010
  Beta virt. eigenvalues --   -0.02483  -0.02067  -0.01985  -0.00615  -0.00250
  Beta virt. eigenvalues --   -0.00176   0.00193   0.00248   0.00372   0.00766

 Mulliken charges and spin densities:
               1          2
     1  Na   0.558375  -0.032819
     2  Na   0.027434   0.310134
     3  Na  -0.386827   0.141820
     4  Na  -0.228993   0.370537
     5  Na   0.049129  -0.044329
     6  Na  -0.287851   0.141076
     7  Na   0.268733   0.113581
 Sum of Mulliken charges =  -0.00000   1.00000

 Dipole moment (field-independent basis, Debye):
    X=              0.6329    Y=             -0.3675    Z=              0.1232  Tot=              0.7422
 Quadrupole moment (field-independent basis, Debye-Ang):
   XX=            -51.4320   YY=            -79.0502   ZZ=            -64.6651
   XY=             -0.7365   XZ=             -0.2106   YZ=             -1.3148

 Normal termination of Gaussian 16 at Thu Dec  7 23:41:18 2023.
