 Gaussian 16, Revision B.01,
 Gaussian 16:  ES64L-G16RevB.01 20-Dec-2017

 -------------------------
 #P B3LYP/6-311+g(d) force
 -------------------------

 -----
 DPGEN
 -----
 Symbolic Z-matrix:
 Charge =  0 Multiplicity = 2

                         Standard orientation:
 ---------------------------------------------------------------------
 Center     Atomic      Atomic             Coordinates (Angstroms)
 Number     Number       Type             X           Y           Z
 ---------------------------------------------------------------------
      1         11           0       -4.048977    0.006617    0.429576
      2         11           0       -0.770482   -2.147239   -0.776073
      3         11           0        1.865168    0.362324   -1.165279
      4         11           0        1.811701    3.130349    0.356411
      5         11           0        2.615168   -2.447122    0.462422
      6         11           0       -1.421975    1.108103   -1.090059
      7         11           0       -0.050604   -0.013032    1.783002
 ---------------------------------------------------------------------

 SCF Done:  E(UB3LYP) =  -1136.12909815     A.U. after   21 cycles

 The electronic state is 2-A.
 Alpha  occ. eigenvalues --  -38.44781 -38.43970 -38.43912 -38.43893 -38.43428
 Alpha  occ. eigenvalues --  -38.43315 -38.43010  -2.20564  -2.19849  -2.19780
 Alpha  occ. eigenvalues --   -2.19703  -2.19252  -2.19236  -2.18969  -1.14250
 Alpha  occ. eigenvalues --   -1.14219  -1.14190  -1.13578  -1.13499  -1.13476
 Alpha  occ. eigenvalues --   -1.13457  -1.13444  -1.13393  -1.13372  -1.13354
 Alpha  occ. eigenvalues --   -1.13319  -1.12972  -1.12941  -1.12917  -1.12888
 Alpha  occ. eigenvalues --   -1.12874  -1.12842  -1.12665  -1.12630  -1.12562
 Alpha  occ. eigenvalues --   -0.18428  -0.13175  -0.12090  -0.10375
 Alpha virt. eigenvalues --   -0.06590  -0.05129  -0.04315  -0.03169  -0.02599
 Alpha virt. eigenvalues --   -0.02253  -0.02165  -0.01395  -0.00738  -0.00149
 Alpha virt. eigenvalues --    0.00150   0.00238   0.00618   0.00685   0.00766

  Beta  occ. eigenvalues --  -38.44778 -38.43899 -38.43889 -38.43885 -38.43428
  Beta  occ. eigenvalues --  -38.43279 -38.42979  -2.20559  -2.19734  -2.19718
  Beta  occ. eigenvalues --   -2.19697  -2.19238  -2.19190  -2.18916  -1.14248
  Beta  occ. eigenvalues --   -1.14208  -1.14187  -1.13506  -1.13443  -1.13399
  Beta  occ. eigenvalues --   -1.13390  -1.13367  -1.13363  -1.13351  -1.13334
  Beta  occ. eigenvalues --   -1.13310  -1.12942  -1.12933  -1.12880  -1.12874
  Beta  occ. eigenvalues --   -1.12836  -1.12806  -1.12628  -1.12568  -1.12529
  Beta  occ. eigenvalues --   -0.17647  -0.13035  -0.11929
  Beta virt. eigenvalues --   -0.06548  -0.06345  -0.05055  -0.04212  -0.02674
  Beta virt. eigenvalues --   -0.02148  -0.01989  -0.01354  -0.01212  -0.00474
  Beta virt. eigenvalues --   -0.00069   0.00174   0.00309   0.00676   0.00734

 Mulliken charges and spin densities:
               1          2
     1  Na   0.291049  -0.008798
     2  Na  -0.032333   0.032054
     3  Na   0.378477   0.384286
     4  Na  -0.126290  -0.220178
     5  Na   0.203065  -0.143688
     6  Na  -0.260094   0.080435
     7  Na  -0.453875   0.875890
 Sum of Mulliken charges =  -0.00000   1.00000

 Dipole moment (field-independent basis, Debye):
    X=             -0.6543    Y=             -0.3554    Z=              0.2723  Tot=              0.7928
 Quadrupole moment (field-independent basis, Debye-Ang):
   XX=            -51.4699   YY=            -64.0993   ZZ=            -74.4461
   XY=             -0.3078   XZ=             -0.4364   YZ=              0.7388

 Normal termination of Gaussian 16 at Tue Dec  5 10:08:46 2023.
