 Gaussian 16, Revision B.01,
 Gaussian 16:  ES64L-G16RevB.01 20-Dec-2017

 -------------------------
 #P B3LYP/6-311+g(d) force
 -------------------------

 -----
 DPGEN
 -----
 Symbolic Z-matrix:
 Charge =  0 Multiplicity = 2

                         Standard orientation:
 ---------------------------------------------------------------------
 Center     Atomic      Atomic             Coordinates (Angstroms)
 Number     Number       Type             X           Y           Z
 ---------------------------------------------------------------------
      1         11           0        3.308440   -0.489829    0.323924
      2         11           0        1.148381    2.761179    0.047444
      3         11           0        0.496369   -2.775866   -0.402235
      4         11           0       -2.626399   -1.896873    0.194151
      5         11           0        0.437798    0.120100   -1.674490
      6         11           0       -2.431592    2.119193   -0.390607
      7         11           0       -0.332997    0.162095    1.901813
 ---------------------------------------------------------------------

 SCF Done:  E(UB3LYP) =  -1136.13638516     A.U. after   19 cycles

 The electronic state is 2-A.
 Alpha  occ. eigenvalues --  -38.44095 -38.44057 -38.43892 -38.43776 -38.43422
 Alpha  occ. eigenvalues --  -38.43413 -38.43212  -2.19886  -2.19848  -2.19735
 Alpha  occ. eigenvalues --   -2.19591  -2.19312  -2.19287  -2.19166  -1.13562
 Alpha  occ. eigenvalues --   -1.13543  -1.13526  -1.13520  -1.13502  -1.13496
 Alpha  occ. eigenvalues --   -1.13439  -1.13409  -1.13342  -1.13269  -1.13258
 Alpha  occ. eigenvalues --   -1.13236  -1.13030  -1.12991  -1.12946  -1.12932
 Alpha  occ. eigenvalues --   -1.12928  -1.12902  -1.12838  -1.12804  -1.12762
 Alpha  occ. eigenvalues --   -0.18345  -0.12791  -0.12563  -0.10465
 Alpha virt. eigenvalues --   -0.05712  -0.05341  -0.04872  -0.03016  -0.02988
 Alpha virt. eigenvalues --   -0.02309  -0.01633  -0.01323  -0.00538  -0.00411
 Alpha virt. eigenvalues --   -0.00003   0.00346   0.00760   0.00828   0.00858

  Beta  occ. eigenvalues --  -38.44087 -38.44053 -38.43886 -38.43775 -38.43402
  Beta  occ. eigenvalues --  -38.43342 -38.43146  -2.19875  -2.19842  -2.19727
  Beta  occ. eigenvalues --   -2.19591  -2.19270  -2.19162  -2.19046  -1.13542
  Beta  occ. eigenvalues --   -1.13535  -1.13517  -1.13508  -1.13498  -1.13486
  Beta  occ. eigenvalues --   -1.13430  -1.13383  -1.13335  -1.13270  -1.13241
  Beta  occ. eigenvalues --   -1.13237  -1.13001  -1.12913  -1.12895  -1.12889
  Beta  occ. eigenvalues --   -1.12834  -1.12818  -1.12755  -1.12721  -1.12677
  Beta  occ. eigenvalues --   -0.17638  -0.12539  -0.12356
  Beta virt. eigenvalues --   -0.06640  -0.05693  -0.05251  -0.04812  -0.02296
  Beta virt. eigenvalues --   -0.02246  -0.01527  -0.01335  -0.01225  -0.00587
  Beta virt. eigenvalues --   -0.00430   0.00130   0.00376   0.00782   0.00861

 Mulliken charges and spin densities:
               1          2
     1  Na  -0.031432  -0.017746
     2  Na   0.143650  -0.048576
     3  Na   0.139277  -0.042220
     4  Na   0.013992  -0.073796
     5  Na   0.052611   0.477358
     6  Na  -0.029797  -0.068446
     7  Na  -0.288301   0.773425
 Sum of Mulliken charges =  -0.00000   1.00000

 Dipole moment (field-independent basis, Debye):
    X=             -0.0057    Y=              0.2896    Z=              0.0999  Tot=              0.3064
 Quadrupole moment (field-independent basis, Debye-Ang):
   XX=            -55.7430   YY=            -61.0318   ZZ=            -75.6571
   XY=             -0.2086   XZ=              1.9189   YZ=             -0.2364

 Normal termination of Gaussian 16 at Tue Dec  5 16:01:48 2023.
