 Gaussian 16, Revision B.01,
 Gaussian 16:  ES64L-G16RevB.01 20-Dec-2017

 -------------------------
 #P B3LYP/6-311+g(d) force
 -------------------------

 -----
 DPGEN
 -----
 Symbolic Z-matrix:
 Charge =  0 Multiplicity = 2

                         Standard orientation:
 ---------------------------------------------------------------------
 Center     Atomic      Atomic             Coordinates (Angstroms)
 Number     Number       Type             X           Y           Z
 ---------------------------------------------------------------------
      1         11           0        2.421751    1.265692   -1.342727
      2         11           0       -4.099188   -0.824750   -0.683597
      3         11           0       -0.800254    2.306377   -0.222353
      4         11           0        2.954902   -1.981982    0.045630
      5         11           0        1.592019    0.354407    1.530741
      6         11           0       -1.522411   -0.081728    1.980899
      7         11           0       -0.546819   -1.038016   -1.308593
 ---------------------------------------------------------------------

 SCF Done:  E(UB3LYP) =  -1136.12418608     A.U. after   25 cycles

 The electronic state is 2-A.
 Alpha  occ. eigenvalues --  -38.44479 -38.44355 -38.44266 -38.44104 -38.43457
 Alpha  occ. eigenvalues --  -38.43330 -38.42931  -2.20362  -2.20120  -2.20106
 Alpha  occ. eigenvalues --   -2.20005  -2.19466  -2.19181  -2.18807  -1.14064
 Alpha  occ. eigenvalues --   -1.14026  -1.13947  -1.13821  -1.13795  -1.13791
 Alpha  occ. eigenvalues --   -1.13785  -1.13752  -1.13713  -1.13686  -1.13644
 Alpha  occ. eigenvalues --   -1.13602  -1.13164  -1.13144  -1.13092  -1.12844
 Alpha  occ. eigenvalues --   -1.12822  -1.12805  -1.12498  -1.12467  -1.12430
 Alpha  occ. eigenvalues --   -0.18679  -0.13731  -0.11658  -0.11136
 Alpha virt. eigenvalues --   -0.06560  -0.04914  -0.04677  -0.03240  -0.02634
 Alpha virt. eigenvalues --   -0.02468  -0.02346  -0.00967  -0.00881  -0.00054
 Alpha virt. eigenvalues --    0.00160   0.00276   0.00373   0.00594   0.00703

  Beta  occ. eigenvalues --  -38.44432 -38.44352 -38.44242 -38.44041 -38.43407
  Beta  occ. eigenvalues --  -38.43320 -38.42921  -2.20276  -2.20114  -2.20064
  Beta  occ. eigenvalues --   -2.19893  -2.19380  -2.19165  -2.18792  -1.14009
  Beta  occ. eigenvalues --   -1.13960  -1.13882  -1.13788  -1.13786  -1.13783
  Beta  occ. eigenvalues --   -1.13748  -1.13747  -1.13663  -1.13630  -1.13572
  Beta  occ. eigenvalues --   -1.13512  -1.13097  -1.13071  -1.13031  -1.12817
  Beta  occ. eigenvalues --   -1.12811  -1.12793  -1.12488  -1.12431  -1.12422
  Beta  occ. eigenvalues --   -0.17923  -0.13570  -0.10885
  Beta virt. eigenvalues --   -0.07655  -0.06398  -0.04725  -0.04158  -0.02846
  Beta virt. eigenvalues --   -0.02367  -0.02050  -0.01708  -0.00875  -0.00457
  Beta virt. eigenvalues --   -0.00018   0.00199   0.00389   0.00444   0.00681

 Mulliken charges and spin densities:
               1          2
     1  Na   0.014271   0.278270
     2  Na   0.276623  -0.025167
     3  Na  -0.156357   0.115911
     4  Na   0.175911  -0.138695
     5  Na   0.305516   0.460320
     6  Na   0.003682   0.030280
     7  Na  -0.619648   0.279081
 Sum of Mulliken charges =  -0.00000   1.00000

 Dipole moment (field-independent basis, Debye):
    X=             -0.3591    Y=              0.4308    Z=             -0.2257  Tot=              0.6045
 Quadrupole moment (field-independent basis, Debye-Ang):
   XX=            -53.8523   YY=            -73.1444   ZZ=            -68.3690
   XY=             -0.5895   XZ=             -2.2284   YZ=             -3.3306

 Normal termination of Gaussian 16 at Thu Dec  7 03:08:33 2023.
