 Gaussian 16, Revision B.01,
 Gaussian 16:  ES64L-G16RevB.01 20-Dec-2017

 -------------------------
 #P B3LYP/6-311+g(d) force
 -------------------------

 -----
 DPGEN
 -----
 Symbolic Z-matrix:
 Charge =  0 Multiplicity = 2

                         Standard orientation:
 ---------------------------------------------------------------------
 Center     Atomic      Atomic             Coordinates (Angstroms)
 Number     Number       Type             X           Y           Z
 ---------------------------------------------------------------------
      1         11           0       -1.385322   -2.044215   -0.423009
      2         11           0       -4.656520   -2.117941    0.567128
      3         11           0       -3.142010    0.551102   -0.282855
      4         11           0       -1.580064    3.743821    0.166179
      5         11           0        0.405957    1.055710   -0.163516
      6         11           0        3.705398   -0.824777   -0.200132
      7         11           0        6.652561   -0.363699    0.336206
 ---------------------------------------------------------------------

 SCF Done:  E(UB3LYP) =  -1136.12174751     A.U. after   19 cycles

 The electronic state is 2-A.
 Alpha  occ. eigenvalues --  -38.44783 -38.44390 -38.44274 -38.43966 -38.43768
 Alpha  occ. eigenvalues --  -38.43747 -38.43423  -2.20650  -2.20228  -2.20192
 Alpha  occ. eigenvalues --   -2.19783  -2.19600  -2.19584  -2.19230  -1.14373
 Alpha  occ. eigenvalues --   -1.14319  -1.14237  -1.13940  -1.13903  -1.13886
 Alpha  occ. eigenvalues --   -1.13869  -1.13854  -1.13735  -1.13467  -1.13417
 Alpha  occ. eigenvalues --   -1.13417  -1.13289  -1.13287  -1.13261  -1.13238
 Alpha  occ. eigenvalues --   -1.13230  -1.13165  -1.12900  -1.12898  -1.12876
 Alpha  occ. eigenvalues --   -0.17234  -0.13698  -0.12728  -0.11130
 Alpha virt. eigenvalues --   -0.06123  -0.05363  -0.04387  -0.04115  -0.02572
 Alpha virt. eigenvalues --   -0.02269  -0.02083  -0.01662  -0.01379  -0.00656
 Alpha virt. eigenvalues --   -0.00460  -0.00040   0.00135   0.00382   0.00747

  Beta  occ. eigenvalues --  -38.44738 -38.44368 -38.44253 -38.43915 -38.43735
  Beta  occ. eigenvalues --  -38.43716 -38.43430  -2.20568  -2.20188  -2.20156
  Beta  occ. eigenvalues --   -2.19687  -2.19547  -2.19523  -2.19248  -1.14323
  Beta  occ. eigenvalues --   -1.14267  -1.14156  -1.13906  -1.13861  -1.13857
  Beta  occ. eigenvalues --   -1.13845  -1.13829  -1.13709  -1.13407  -1.13351
  Beta  occ. eigenvalues --   -1.13351  -1.13256  -1.13247  -1.13220  -1.13196
  Beta  occ. eigenvalues --   -1.13181  -1.13115  -1.12919  -1.12916  -1.12844
  Beta  occ. eigenvalues --   -0.16594  -0.13300  -0.12319
  Beta virt. eigenvalues --   -0.07727  -0.05759  -0.04892  -0.04104  -0.03832
  Beta virt. eigenvalues --   -0.02379  -0.02103  -0.01628  -0.01489  -0.01178
  Beta virt. eigenvalues --   -0.00356  -0.00115   0.00170   0.00327   0.00440

 Mulliken charges and spin densities:
               1          2
     1  Na  -0.646704  -0.088970
     2  Na   0.828466   0.135988
     3  Na  -0.356218   0.441169
     4  Na   1.459518   0.319871
     5  Na  -1.724573   0.092191
     6  Na  -0.571403  -0.142227
     7  Na   1.010914   0.241978
 Sum of Mulliken charges =  -0.00000   1.00000

 Dipole moment (field-independent basis, Debye):
    X=             -1.7776    Y=             -0.3912    Z=              0.3187  Tot=              1.8478
 Quadrupole moment (field-independent basis, Debye-Ang):
   XX=            -57.7967   YY=            -61.9197   ZZ=            -72.5634
   XY=              5.6578   XZ=             -0.4870   YZ=              0.0987

 Normal termination of Gaussian 16 at Wed Nov 29 02:02:35 2023.
