 Gaussian 16, Revision B.01,
 Gaussian 16:  ES64L-G16RevB.01 20-Dec-2017

 -------------------------
 #P B3LYP/6-311+g(d) force
 -------------------------

 -----
 DPGEN
 -----
 Symbolic Z-matrix:
 Charge =  0 Multiplicity = 2

                         Standard orientation:
 ---------------------------------------------------------------------
 Center     Atomic      Atomic             Coordinates (Angstroms)
 Number     Number       Type             X           Y           Z
 ---------------------------------------------------------------------
      1         11           0        0.668227   -2.795800   -1.232159
      2         11           0       -0.637642    0.934927   -0.214637
      3         11           0       -2.476499   -0.773787    1.425392
      4         11           0        2.112966    2.823735    0.347511
      5         11           0        2.852855    0.033397   -1.251814
      6         11           0       -4.087815    0.913202   -0.990505
      7         11           0        1.567908   -1.135673    1.916213
 ---------------------------------------------------------------------

 SCF Done:  E(UB3LYP) =  -1136.12558905     A.U. after   22 cycles

 The electronic state is 2-A.
 Alpha  occ. eigenvalues --  -38.44444 -38.44432 -38.44278 -38.43993 -38.43701
 Alpha  occ. eigenvalues --  -38.43318 -38.42881  -2.20301  -2.20241  -2.20095
 Alpha  occ. eigenvalues --   -2.19857  -2.19625  -2.19119  -2.18713  -1.14063
 Alpha  occ. eigenvalues --   -1.13956  -1.13924  -1.13896  -1.13892  -1.13830
 Alpha  occ. eigenvalues --   -1.13763  -1.13750  -1.13716  -1.13548  -1.13519
 Alpha  occ. eigenvalues --   -1.13460  -1.13351  -1.13297  -1.13225  -1.12792
 Alpha  occ. eigenvalues --   -1.12767  -1.12747  -1.12383  -1.12366  -1.12358
 Alpha  occ. eigenvalues --   -0.17689  -0.13858  -0.11558  -0.10661
 Alpha virt. eigenvalues --   -0.06232  -0.05278  -0.04610  -0.03437  -0.02731
 Alpha virt. eigenvalues --   -0.02258  -0.02057  -0.01225  -0.00831  -0.00358
 Alpha virt. eigenvalues --   -0.00122   0.00171   0.00295   0.00679   0.00759

  Beta  occ. eigenvalues --  -38.44422 -38.44402 -38.44233 -38.43958 -38.43691
  Beta  occ. eigenvalues --  -38.43287 -38.42881  -2.20264  -2.20185  -2.20013
  Beta  occ. eigenvalues --   -2.19792  -2.19611  -2.19062  -2.18712  -1.14039
  Beta  occ. eigenvalues --   -1.13928  -1.13885  -1.13855  -1.13853  -1.13791
  Beta  occ. eigenvalues --   -1.13708  -1.13679  -1.13659  -1.13500  -1.13479
  Beta  occ. eigenvalues --   -1.13405  -1.13306  -1.13292  -1.13215  -1.12752
  Beta  occ. eigenvalues --   -1.12722  -1.12707  -1.12383  -1.12364  -1.12354
  Beta  occ. eigenvalues --   -0.17069  -0.13585  -0.11335
  Beta virt. eigenvalues --   -0.07027  -0.05943  -0.04960  -0.04399  -0.03134
  Beta virt. eigenvalues --   -0.02242  -0.02105  -0.01475  -0.00986  -0.00582
  Beta virt. eigenvalues --   -0.00132   0.00061   0.00253   0.00384   0.00738

 Mulliken charges and spin densities:
               1          2
     1  Na  -0.286698   0.244680
     2  Na  -2.588556   0.369924
     3  Na   0.334355  -0.011552
     4  Na   0.965712  -0.174681
     5  Na   0.566183   0.146231
     6  Na   0.568258   0.213661
     7  Na   0.440746   0.211736
 Sum of Mulliken charges =  -0.00000   1.00000

 Dipole moment (field-independent basis, Debye):
    X=             -0.8839    Y=             -0.2388    Z=              0.2877  Tot=              0.9597
 Quadrupole moment (field-independent basis, Debye-Ang):
   XX=            -54.5419   YY=            -71.1237   ZZ=            -67.6680
   XY=              0.7962   XZ=              3.3383   YZ=             -0.7463

 Normal termination of Gaussian 16 at Thu Dec  7 16:18:35 2023.
