 Gaussian 16, Revision B.01,
 Gaussian 16:  ES64L-G16RevB.01 20-Dec-2017

 -------------------------
 #P B3LYP/6-311+g(d) force
 -------------------------

 -----
 DPGEN
 -----
 Symbolic Z-matrix:
 Charge =  0 Multiplicity = 2

                         Standard orientation:
 ---------------------------------------------------------------------
 Center     Atomic      Atomic             Coordinates (Angstroms)
 Number     Number       Type             X           Y           Z
 ---------------------------------------------------------------------
      1         11           0        3.518091    2.315968    0.486492
      2         11           0       -1.762484   -2.902359   -0.627448
      3         11           0        4.030009   -1.449247   -0.927303
      4         11           0       -3.721396    2.603682   -0.386818
      5         11           0        1.583600   -2.250656    1.036743
      6         11           0        0.361509    2.877467   -0.110826
      7         11           0       -4.009329   -1.194856    0.529159
 ---------------------------------------------------------------------

 SCF Done:  E(UB3LYP) =  -1136.10623100     A.U. after   20 cycles

 The electronic state is 2-A.
 Alpha  occ. eigenvalues --  -38.44947 -38.44907 -38.44868 -38.44268 -38.44266
 Alpha  occ. eigenvalues --  -38.44128 -38.44116  -2.20718  -2.20696  -2.20659
 Alpha  occ. eigenvalues --   -2.20064  -2.20023  -2.19950  -2.19891  -1.14419
 Alpha  occ. eigenvalues --   -1.14406  -1.14388  -1.14375  -1.14363  -1.14330
 Alpha  occ. eigenvalues --   -1.14314  -1.14290  -1.14266  -1.13758  -1.13726
 Alpha  occ. eigenvalues --   -1.13706  -1.13705  -1.13686  -1.13619  -1.13607
 Alpha  occ. eigenvalues --   -1.13594  -1.13581  -1.13541  -1.13518  -1.13516
 Alpha  occ. eigenvalues --   -0.15605  -0.13950  -0.12920  -0.10716
 Alpha virt. eigenvalues --   -0.07204  -0.05263  -0.04429  -0.03562  -0.02927
 Alpha virt. eigenvalues --   -0.02844  -0.02316  -0.02088  -0.00901  -0.00845
 Alpha virt. eigenvalues --   -0.00416  -0.00338   0.00145   0.00270   0.00548

  Beta  occ. eigenvalues --  -38.44946 -38.44903 -38.44828 -38.44264 -38.44218
  Beta  occ. eigenvalues --  -38.44090 -38.44022  -2.20719  -2.20695  -2.20586
  Beta  occ. eigenvalues --   -2.20023  -2.19977  -2.19881  -2.19717  -1.14407
  Beta  occ. eigenvalues --   -1.14394  -1.14389  -1.14366  -1.14363  -1.14309
  Beta  occ. eigenvalues --   -1.14265  -1.14240  -1.14223  -1.13720  -1.13712
  Beta  occ. eigenvalues --   -1.13690  -1.13665  -1.13629  -1.13574  -1.13561
  Beta  occ. eigenvalues --   -1.13546  -1.13536  -1.13423  -1.13402  -1.13400
  Beta  occ. eigenvalues --   -0.15211  -0.13227  -0.12060
  Beta virt. eigenvalues --   -0.07590  -0.07327  -0.05060  -0.03886  -0.03383
  Beta virt. eigenvalues --   -0.02657  -0.02545  -0.02036  -0.01804  -0.00695
  Beta virt. eigenvalues --   -0.00550  -0.00195  -0.00049   0.00180   0.00275

 Mulliken charges and spin densities:
               1          2
     1  Na   0.365928   0.084510
     2  Na  -0.036245   0.139275
     3  Na   0.191087   0.144026
     4  Na   0.049083   0.502078
     5  Na  -0.185102   0.062509
     6  Na  -0.432870   0.090137
     7  Na   0.048119  -0.022536
 Sum of Mulliken charges =  -0.00000   1.00000

 Dipole moment (field-independent basis, Debye):
    X=              1.0113    Y=             -0.9784    Z=             -0.0534  Tot=              1.4081
 Quadrupole moment (field-independent basis, Debye-Ang):
   XX=            -56.5412   YY=            -77.1145   ZZ=            -68.1063
   XY=              1.6105   XZ=             -3.4796   YZ=              0.2434

 Normal termination of Gaussian 16 at Mon Dec  4 02:41:18 2023.
