 Gaussian 16, Revision B.01,
 Gaussian 16:  ES64L-G16RevB.01 20-Dec-2017

 -------------------------
 #P B3LYP/6-311+g(d) force
 -------------------------

 -----
 DPGEN
 -----
 Symbolic Z-matrix:
 Charge =  0 Multiplicity = 2

                         Standard orientation:
 ---------------------------------------------------------------------
 Center     Atomic      Atomic             Coordinates (Angstroms)
 Number     Number       Type             X           Y           Z
 ---------------------------------------------------------------------
      1         11           0       -1.529688    2.900430   -0.882671
      2         11           0       -1.289401   -2.893055    0.069695
      3         11           0        1.952554    2.363172   -0.299534
      4         11           0       -3.388429    0.203765    0.149567
      5         11           0        3.612592   -0.126909    0.811289
      6         11           0        1.233915   -2.304411   -1.648813
      7         11           0       -0.591543   -0.142992    1.800467
 ---------------------------------------------------------------------

 SCF Done:  E(UB3LYP) =  -1136.12253363     A.U. after   19 cycles

 The electronic state is 2-A.
 Alpha  occ. eigenvalues --  -38.44644 -38.44547 -38.44420 -38.44125 -38.43944
 Alpha  occ. eigenvalues --  -38.43727 -38.43411  -2.20465  -2.20397  -2.20218
 Alpha  occ. eigenvalues --   -2.19929  -2.19766  -2.19584  -2.19222  -1.14172
 Alpha  occ. eigenvalues --   -1.14136  -1.14099  -1.14063  -1.14041  -1.14000
 Alpha  occ. eigenvalues --   -1.13903  -1.13871  -1.13853  -1.13604  -1.13597
 Alpha  occ. eigenvalues --   -1.13565  -1.13475  -1.13412  -1.13380  -1.13257
 Alpha  occ. eigenvalues --   -1.13241  -1.13205  -1.12884  -1.12871  -1.12856
 Alpha  occ. eigenvalues --   -0.17225  -0.13401  -0.12949  -0.10384
 Alpha virt. eigenvalues --   -0.06498  -0.05675  -0.04468  -0.03638  -0.03298
 Alpha virt. eigenvalues --   -0.02016  -0.01894  -0.01268  -0.00929  -0.00672
 Alpha virt. eigenvalues --   -0.00116   0.00245   0.00364   0.00610   0.00709

  Beta  occ. eigenvalues --  -38.44643 -38.44491 -38.44400 -38.44120 -38.43875
  Beta  occ. eigenvalues --  -38.43723 -38.43369  -2.20465  -2.20294  -2.20181
  Beta  occ. eigenvalues --   -2.19924  -2.19639  -2.19583  -2.19143  -1.14158
  Beta  occ. eigenvalues --   -1.14134  -1.14090  -1.14002  -1.13975  -1.13926
  Beta  occ. eigenvalues --   -1.13881  -1.13838  -1.13829  -1.13601  -1.13596
  Beta  occ. eigenvalues --   -1.13537  -1.13403  -1.13327  -1.13290  -1.13255
  Beta  occ. eigenvalues --   -1.13239  -1.13157  -1.12830  -1.12818  -1.12803
  Beta  occ. eigenvalues --   -0.16732  -0.13151  -0.12285
  Beta virt. eigenvalues --   -0.07063  -0.06344  -0.05558  -0.04089  -0.03134
  Beta virt. eigenvalues --   -0.02689  -0.01924  -0.01371  -0.01162  -0.00858
  Beta virt. eigenvalues --   -0.00567   0.00123   0.00349   0.00539   0.00712

 Mulliken charges and spin densities:
               1          2
     1  Na  -0.293959   0.202878
     2  Na  -0.146651  -0.004545
     3  Na  -0.174854   0.102468
     4  Na   0.362891   0.068900
     5  Na   0.182518   0.069148
     6  Na  -0.131098   0.360686
     7  Na   0.201154   0.200465
 Sum of Mulliken charges =  -0.00000   1.00000

 Dipole moment (field-independent basis, Debye):
    X=             -0.1698    Y=             -0.2596    Z=              0.2879  Tot=              0.4232
 Quadrupole moment (field-independent basis, Debye-Ang):
   XX=            -55.6094   YY=            -71.7359   ZZ=            -72.0638
   XY=              1.2755   XZ=              1.1605   YZ=             -1.7684

 Normal termination of Gaussian 16 at Mon Dec  4 04:59:19 2023.
