 Gaussian 16, Revision B.01,
 Gaussian 16:  ES64L-G16RevB.01 20-Dec-2017

 -------------------------
 #P B3LYP/6-311+g(d) force
 -------------------------

 -----
 DPGEN
 -----
 Symbolic Z-matrix:
 Charge =  0 Multiplicity = 2

                         Standard orientation:
 ---------------------------------------------------------------------
 Center     Atomic      Atomic             Coordinates (Angstroms)
 Number     Number       Type             X           Y           Z
 ---------------------------------------------------------------------
      1         11           0        3.105605   -1.543443    0.157089
      2         11           0       -0.306755   -0.425580    2.404079
      3         11           0       -3.583190   -0.730521   -0.104738
      4         11           0        1.612979    2.285859    0.587126
      5         11           0       -1.394392    1.847668   -0.394375
      6         11           0       -0.381967   -1.724864   -0.667868
      7         11           0        0.947719    0.290880   -1.981312
 ---------------------------------------------------------------------

 SCF Done:  E(UB3LYP) =  -1136.12417701     A.U. after   22 cycles

 The electronic state is 2-A.
 Alpha  occ. eigenvalues --  -38.45004 -38.44290 -38.44156 -38.44096 -38.43234
 Alpha  occ. eigenvalues --  -38.43002 -38.42735  -2.20838  -2.20159  -2.20094
 Alpha  occ. eigenvalues --   -2.19880  -2.19217  -2.18871  -2.18669  -1.14509
 Alpha  occ. eigenvalues --   -1.14464  -1.14441  -1.14003  -1.13768  -1.13761
 Alpha  occ. eigenvalues --   -1.13758  -1.13736  -1.13731  -1.13547  -1.13543
 Alpha  occ. eigenvalues --   -1.13518  -1.12941  -1.12883  -1.12750  -1.12565
 Alpha  occ. eigenvalues --   -1.12531  -1.12511  -1.12373  -1.12334  -1.12264
 Alpha  occ. eigenvalues --   -0.18846  -0.13003  -0.11885  -0.11627
 Alpha virt. eigenvalues --   -0.06237  -0.04613  -0.03958  -0.03436  -0.03199
 Alpha virt. eigenvalues --   -0.03008  -0.02003  -0.00917  -0.00354   0.00187
 Alpha virt. eigenvalues --    0.00249   0.00368   0.00498   0.00759   0.00901

  Beta  occ. eigenvalues --  -38.44903 -38.44294 -38.44100 -38.44086 -38.43206
  Beta  occ. eigenvalues --  -38.42993 -38.42724  -2.20650  -2.20104  -2.20032
  Beta  occ. eigenvalues --   -2.19889  -2.19173  -2.18856  -2.18652  -1.14385
  Beta  occ. eigenvalues --   -1.14329  -1.14306  -1.13912  -1.13776  -1.13756
  Beta  occ. eigenvalues --   -1.13737  -1.13675  -1.13645  -1.13552  -1.13538
  Beta  occ. eigenvalues --   -1.13523  -1.12891  -1.12827  -1.12726  -1.12559
  Beta  occ. eigenvalues --   -1.12513  -1.12490  -1.12355  -1.12300  -1.12259
  Beta  occ. eigenvalues --   -0.18004  -0.12898  -0.11421
  Beta virt. eigenvalues --   -0.07789  -0.06043  -0.04611  -0.03349  -0.03069
  Beta virt. eigenvalues --   -0.02429  -0.02192  -0.01908  -0.00845  -0.00124
  Beta virt. eigenvalues --    0.00208   0.00268   0.00382   0.00699   0.00842

 Mulliken charges and spin densities:
               1          2
     1  Na  -0.042634  -0.030092
     2  Na  -0.496631   0.562972
     3  Na   0.429977  -0.179563
     4  Na  -0.106690   0.145775
     5  Na  -0.074141   0.193336
     6  Na  -0.145518   0.392756
     7  Na   0.435638  -0.085184
 Sum of Mulliken charges =  -0.00000   1.00000

 Dipole moment (field-independent basis, Debye):
    X=             -0.0319    Y=             -0.1905    Z=              0.6397  Tot=              0.6682
 Quadrupole moment (field-independent basis, Debye-Ang):
   XX=            -52.4426   YY=            -75.0772   ZZ=            -66.4675
   XY=              0.4590   XZ=              1.5774   YZ=             -0.5141

 Normal termination of Gaussian 16 at Thu Dec  7 12:09:39 2023.
