 Gaussian 16, Revision B.01,
 Gaussian 16:  ES64L-G16RevB.01 20-Dec-2017

 -------------------------
 #P B3LYP/6-311+g(d) force
 -------------------------

 -----
 DPGEN
 -----
 Symbolic Z-matrix:
 Charge =  0 Multiplicity = 2

                         Standard orientation:
 ---------------------------------------------------------------------
 Center     Atomic      Atomic             Coordinates (Angstroms)
 Number     Number       Type             X           Y           Z
 ---------------------------------------------------------------------
      1         11           0        1.846456   -1.765743    0.681207
      2         11           0       -3.783104   -0.374660   -0.743789
      3         11           0       -1.647224    1.752787   -0.277562
      4         11           0        1.313167    1.859302    1.196890
      5         11           0        3.481666    0.298412   -0.987254
      6         11           0        0.148316   -0.767036   -1.648912
      7         11           0       -1.359277   -1.003063    1.779421
 ---------------------------------------------------------------------

 SCF Done:  E(UB3LYP) =  -1136.12008650     A.U. after   26 cycles

 The electronic state is 2-A.
 Alpha  occ. eigenvalues --  -38.45163 -38.45014 -38.44606 -38.44158 -38.43327
 Alpha  occ. eigenvalues --  -38.43037 -38.42145  -2.21000  -2.20875  -2.20497
 Alpha  occ. eigenvalues --   -2.20040  -2.19265  -2.18975  -2.18012  -1.14692
 Alpha  occ. eigenvalues --   -1.14652  -1.14618  -1.14562  -1.14522  -1.14490
 Alpha  occ. eigenvalues --   -1.14218  -1.14163  -1.14097  -1.13717  -1.13675
 Alpha  occ. eigenvalues --   -1.13658  -1.12963  -1.12910  -1.12895  -1.12673
 Alpha  occ. eigenvalues --   -1.12635  -1.12607  -1.11688  -1.11669  -1.11658
 Alpha  occ. eigenvalues --   -0.18826  -0.14480  -0.11523  -0.10755
 Alpha virt. eigenvalues --   -0.07087  -0.05012  -0.04495  -0.03138  -0.02951
 Alpha virt. eigenvalues --   -0.02440  -0.02233  -0.01066  -0.00702  -0.00047
 Alpha virt. eigenvalues --    0.00094   0.00262   0.00355   0.00800   0.00825

  Beta  occ. eigenvalues --  -38.45145 -38.44985 -38.44576 -38.44081 -38.43307
  Beta  occ. eigenvalues --  -38.43028 -38.42131  -2.20968  -2.20821  -2.20444
  Beta  occ. eigenvalues --   -2.19900  -2.19234  -2.18960  -2.17989  -1.14668
  Beta  occ. eigenvalues --   -1.14623  -1.14599  -1.14529  -1.14480  -1.14452
  Beta  occ. eigenvalues --   -1.14172  -1.14128  -1.14054  -1.13621  -1.13569
  Beta  occ. eigenvalues --   -1.13556  -1.12947  -1.12882  -1.12841  -1.12667
  Beta  occ. eigenvalues --   -1.12619  -1.12579  -1.11674  -1.11653  -1.11628
  Beta  occ. eigenvalues --   -0.18102  -0.14186  -0.10566
  Beta virt. eigenvalues --   -0.07639  -0.06879  -0.04586  -0.04210  -0.02872
  Beta virt. eigenvalues --   -0.02623  -0.01902  -0.01560  -0.00679  -0.00625
  Beta virt. eigenvalues --    0.00044   0.00132   0.00346   0.00394   0.00872

 Mulliken charges and spin densities:
               1          2
     1  Na   0.281587   0.165737
     2  Na   0.777220   0.028513
     3  Na  -0.321256   0.121586
     4  Na  -0.424259   0.172126
     5  Na   0.420924   0.046049
     6  Na  -0.399791   0.183645
     7  Na  -0.334426   0.282344
 Sum of Mulliken charges =  -0.00000   1.00000

 Dipole moment (field-independent basis, Debye):
    X=             -0.4656    Y=             -0.4367    Z=             -0.4832  Tot=              0.8006
 Quadrupole moment (field-independent basis, Debye-Ang):
   XX=            -45.4065   YY=            -81.2393   ZZ=            -67.0621
   XY=              2.0067   XZ=             -0.4964   YZ=             -3.5925

 Normal termination of Gaussian 16 at Thu Dec  7 15:38:48 2023.
