 Gaussian 16, Revision B.01,
 Gaussian 16:  ES64L-G16RevB.01 20-Dec-2017

 -------------------------
 #P B3LYP/6-311+g(d) force
 -------------------------

 -----
 DPGEN
 -----
 Symbolic Z-matrix:
 Charge =  0 Multiplicity = 2

                         Standard orientation:
 ---------------------------------------------------------------------
 Center     Atomic      Atomic             Coordinates (Angstroms)
 Number     Number       Type             X           Y           Z
 ---------------------------------------------------------------------
      1         11           0       -4.039131    0.539952   -0.684798
      2         11           0        1.413647   -0.295751    2.401962
      3         11           0       -1.707170   -1.936928    1.332223
      4         11           0        2.277266   -2.350765   -0.984777
      5         11           0       -0.661901   -0.121888   -2.061124
      6         11           0        2.580134    1.634765   -1.231433
      7         11           0        0.137155    2.530614    1.227947
 ---------------------------------------------------------------------

 SCF Done:  E(UB3LYP) =  -1136.11787732     A.U. after   24 cycles

 The electronic state is 2-A.
 Alpha  occ. eigenvalues --  -38.45301 -38.44761 -38.44450 -38.43984 -38.43927
 Alpha  occ. eigenvalues --  -38.43797 -38.43571  -2.21056  -2.20541  -2.20200
 Alpha  occ. eigenvalues --   -2.19749  -2.19706  -2.19608  -2.19378  -1.14730
 Alpha  occ. eigenvalues --   -1.14712  -1.14672  -1.14230  -1.14188  -1.14154
 Alpha  occ. eigenvalues --   -1.13870  -1.13863  -1.13824  -1.13418  -1.13414
 Alpha  occ. eigenvalues --   -1.13406  -1.13400  -1.13368  -1.13296  -1.13286
 Alpha  occ. eigenvalues --   -1.13261  -1.13252  -1.13044  -1.13022  -1.13017
 Alpha  occ. eigenvalues --   -0.17080  -0.12682  -0.12099  -0.11196
 Alpha virt. eigenvalues --   -0.06115  -0.05579  -0.04698  -0.03407  -0.03311
 Alpha virt. eigenvalues --   -0.03057  -0.01816  -0.01230  -0.00660  -0.00494
 Alpha virt. eigenvalues --   -0.00094   0.00229   0.00386   0.00420   0.00622

  Beta  occ. eigenvalues --  -38.45257 -38.44727 -38.44435 -38.43950 -38.43913
  Beta  occ. eigenvalues --  -38.43770 -38.43552  -2.20976  -2.20479  -2.20173
  Beta  occ. eigenvalues --   -2.19687  -2.19681  -2.19560  -2.19342  -1.14675
  Beta  occ. eigenvalues --   -1.14660  -1.14603  -1.14178  -1.14150  -1.14107
  Beta  occ. eigenvalues --   -1.13850  -1.13843  -1.13808  -1.13390  -1.13377
  Beta  occ. eigenvalues --   -1.13371  -1.13360  -1.13328  -1.13281  -1.13258
  Beta  occ. eigenvalues --   -1.13225  -1.13206  -1.13018  -1.12998  -1.12986
  Beta  occ. eigenvalues --   -0.16295  -0.12421  -0.11078
  Beta virt. eigenvalues --   -0.08399  -0.05665  -0.05244  -0.04224  -0.03130
  Beta virt. eigenvalues --   -0.02946  -0.02505  -0.01678  -0.00821  -0.00585
  Beta virt. eigenvalues --   -0.00306   0.00110   0.00291   0.00407   0.00541

 Mulliken charges and spin densities:
               1          2
     1  Na   0.198630   0.008748
     2  Na   0.096768   0.125196
     3  Na   0.028763   0.126696
     4  Na   0.039821   0.217974
     5  Na  -0.418920   0.242656
     6  Na   0.247767   0.034154
     7  Na  -0.192829   0.244576
 Sum of Mulliken charges =  -0.00000   1.00000

 Dipole moment (field-independent basis, Debye):
    X=             -0.3185    Y=              0.0634    Z=              0.0636  Tot=              0.3309
 Quadrupole moment (field-independent basis, Debye-Ang):
   XX=            -58.3569   YY=            -63.2403   ZZ=            -75.5585
   XY=             -1.6296   XZ=             -0.4118   YZ=             -7.4049

 Normal termination of Gaussian 16 at Sun Dec  3 13:05:36 2023.
