 Gaussian 16, Revision B.01,
 Gaussian 16:  ES64L-G16RevB.01 20-Dec-2017

 -------------------------
 #P B3LYP/6-311+g(d) force
 -------------------------

 -----
 DPGEN
 -----
 Symbolic Z-matrix:
 Charge =  0 Multiplicity = 2

                         Standard orientation:
 ---------------------------------------------------------------------
 Center     Atomic      Atomic             Coordinates (Angstroms)
 Number     Number       Type             X           Y           Z
 ---------------------------------------------------------------------
      1         11           0        0.452737   -0.044339   -1.233947
      2         11           0       -2.209637   -1.511960   -1.607774
      3         11           0        1.243709   -2.390944    1.210932
      4         11           0       -2.121041   -0.670398    1.769682
      5         11           0        3.665743    0.088307   -0.790025
      6         11           0        0.741434    2.361394    1.314054
      7         11           0       -1.772946    2.167941   -0.662922
 ---------------------------------------------------------------------

 SCF Done:  E(UB3LYP) =  -1136.12727681     A.U. after   20 cycles

 The electronic state is 2-A.
 Alpha  occ. eigenvalues --  -38.44320 -38.44302 -38.44277 -38.43787 -38.43521
 Alpha  occ. eigenvalues --  -38.43322 -38.42899  -2.20140  -2.20078  -2.20061
 Alpha  occ. eigenvalues --   -2.19651  -2.19348  -2.19203  -2.18926  -1.13809
 Alpha  occ. eigenvalues --   -1.13785  -1.13769  -1.13756  -1.13754  -1.13745
 Alpha  occ. eigenvalues --   -1.13703  -1.13695  -1.13681  -1.13378  -1.13276
 Alpha  occ. eigenvalues --   -1.13260  -1.13051  -1.13010  -1.12979  -1.12917
 Alpha  occ. eigenvalues --   -1.12849  -1.12808  -1.12601  -1.12578  -1.12555
 Alpha  occ. eigenvalues --   -0.18121  -0.12810  -0.11865  -0.11380
 Alpha virt. eigenvalues --   -0.05883  -0.04904  -0.04521  -0.03345  -0.03085
 Alpha virt. eigenvalues --   -0.02721  -0.01672  -0.00821  -0.00803  -0.00044
 Alpha virt. eigenvalues --    0.00236   0.00297   0.00409   0.00611   0.00782

  Beta  occ. eigenvalues --  -38.44274 -38.44269 -38.44268 -38.43747 -38.43504
  Beta  occ. eigenvalues --  -38.43316 -38.42856  -2.20047  -2.20044  -2.20027
  Beta  occ. eigenvalues --   -2.19579  -2.19317  -2.19195  -2.18851  -1.13739
  Beta  occ. eigenvalues --   -1.13738  -1.13721  -1.13720  -1.13707  -1.13697
  Beta  occ. eigenvalues --   -1.13694  -1.13682  -1.13644  -1.13317  -1.13232
  Beta  occ. eigenvalues --   -1.13202  -1.13035  -1.12984  -1.12951  -1.12902
  Beta  occ. eigenvalues --   -1.12839  -1.12791  -1.12541  -1.12517  -1.12500
  Beta  occ. eigenvalues --   -0.17405  -0.12613  -0.11623
  Beta virt. eigenvalues --   -0.07532  -0.05641  -0.04778  -0.04190  -0.02981
  Beta virt. eigenvalues --   -0.02563  -0.01855  -0.01525  -0.00780  -0.00412
  Beta virt. eigenvalues --    0.00060   0.00277   0.00347   0.00532   0.00695

 Mulliken charges and spin densities:
               1          2
     1  Na  -0.291887   0.160746
     2  Na   0.329510  -0.004487
     3  Na  -0.232551   0.207832
     4  Na  -0.190646   0.411849
     5  Na   0.357579  -0.022509
     6  Na  -0.156645   0.183971
     7  Na   0.184640   0.062599
 Sum of Mulliken charges =  -0.00000   1.00000

 Dipole moment (field-independent basis, Debye):
    X=              0.1770    Y=             -0.1958    Z=              0.4293  Tot=              0.5040
 Quadrupole moment (field-independent basis, Debye-Ang):
   XX=            -56.0081   YY=            -70.1051   ZZ=            -66.8695
   XY=              0.4634   XZ=              1.1843   YZ=             -0.2413

 Normal termination of Gaussian 16 at Sun Dec  3 20:16:00 2023.
