 Gaussian 16, Revision B.01,
 Gaussian 16:  ES64L-G16RevB.01 20-Dec-2017

 -------------------------
 #P B3LYP/6-311+g(d) force
 -------------------------

 -----
 DPGEN
 -----
 Symbolic Z-matrix:
 Charge =  0 Multiplicity = 2

                         Standard orientation:
 ---------------------------------------------------------------------
 Center     Atomic      Atomic             Coordinates (Angstroms)
 Number     Number       Type             X           Y           Z
 ---------------------------------------------------------------------
      1         11           0       -3.811163   -0.843699    1.463722
      2         11           0        3.172032   -2.584690   -0.291756
      3         11           0        0.688626    2.975861   -0.714234
      4         11           0        3.251383    0.533207    1.054470
      5         11           0       -0.928286    0.424648    2.134410
      6         11           0        0.490667    0.044022   -1.458755
      7         11           0       -2.863260   -0.549349   -2.187856
 ---------------------------------------------------------------------

 SCF Done:  E(UB3LYP) =  -1136.11432938     A.U. after   23 cycles

 The electronic state is 2-A.
 Alpha  occ. eigenvalues --  -38.45232 -38.45178 -38.44776 -38.44003 -38.43952
 Alpha  occ. eigenvalues --  -38.43229 -38.43122  -2.21019  -2.20987  -2.20562
 Alpha  occ. eigenvalues --   -2.19895  -2.19747  -2.19020  -2.18951  -1.14684
 Alpha  occ. eigenvalues --   -1.14657  -1.14653  -1.14637  -1.14624  -1.14598
 Alpha  occ. eigenvalues --   -1.14258  -1.14225  -1.14180  -1.13594  -1.13581
 Alpha  occ. eigenvalues --   -1.13512  -1.13427  -1.13410  -1.13379  -1.12684
 Alpha  occ. eigenvalues --   -1.12679  -1.12650  -1.12640  -1.12600  -1.12584
 Alpha  occ. eigenvalues --   -0.17133  -0.13588  -0.12014  -0.11136
 Alpha virt. eigenvalues --   -0.06319  -0.05803  -0.04506  -0.03519  -0.03158
 Alpha virt. eigenvalues --   -0.02469  -0.02061  -0.01422  -0.00935  -0.00347
 Alpha virt. eigenvalues --   -0.00178  -0.00002   0.00280   0.00292   0.00572

  Beta  occ. eigenvalues --  -38.45152 -38.45104 -38.44781 -38.43976 -38.43945
  Beta  occ. eigenvalues --  -38.43208 -38.43126  -2.20872  -2.20851  -2.20572
  Beta  occ. eigenvalues --   -2.19848  -2.19738  -2.18980  -2.18958  -1.14578
  Beta  occ. eigenvalues --   -1.14562  -1.14558  -1.14549  -1.14527  -1.14491
  Beta  occ. eigenvalues --   -1.14263  -1.14233  -1.14179  -1.13562  -1.13545
  Beta  occ. eigenvalues --   -1.13463  -1.13408  -1.13405  -1.13370  -1.12654
  Beta  occ. eigenvalues --   -1.12652  -1.12647  -1.12627  -1.12606  -1.12579
  Beta  occ. eigenvalues --   -0.16483  -0.13251  -0.11038
  Beta virt. eigenvalues --   -0.08173  -0.06015  -0.05296  -0.04225  -0.02899
  Beta virt. eigenvalues --   -0.02789  -0.02216  -0.01914  -0.01044  -0.00816
  Beta virt. eigenvalues --   -0.00245   0.00067   0.00151   0.00295   0.00513

 Mulliken charges and spin densities:
               1          2
     1  Na   0.093713  -0.001663
     2  Na   0.002339   0.115080
     3  Na   0.098798   0.118054
     4  Na   0.536986  -0.095801
     5  Na  -0.177792   0.402894
     6  Na  -0.544252   0.152321
     7  Na  -0.009793   0.309115
 Sum of Mulliken charges =  -0.00000   1.00000

 Dipole moment (field-independent basis, Debye):
    X=             -0.6930    Y=              0.5462    Z=              0.1530  Tot=              0.8956
 Quadrupole moment (field-independent basis, Debye-Ang):
   XX=            -62.5611   YY=            -69.1529   ZZ=            -67.3489
   XY=              5.4222   XZ=              4.9600   YZ=              4.7325

 Normal termination of Gaussian 16 at Sun Dec  3 15:42:28 2023.
