 Gaussian 16, Revision B.01,
 Gaussian 16:  ES64L-G16RevB.01 20-Dec-2017

 -------------------------
 #P B3LYP/6-311+g(d) force
 -------------------------

 -----
 DPGEN
 -----
 Symbolic Z-matrix:
 Charge =  0 Multiplicity = 2

                         Standard orientation:
 ---------------------------------------------------------------------
 Center     Atomic      Atomic             Coordinates (Angstroms)
 Number     Number       Type             X           Y           Z
 ---------------------------------------------------------------------
      1         11           0        1.238741   -2.887112   -0.680890
      2         11           0       -1.372227    2.775814   -0.852305
      3         11           0        3.279270   -0.553264   -0.142779
      4         11           0        0.051192    0.213991    0.002264
      5         11           0       -2.516043   -0.809772   -1.497524
      6         11           0        1.486736    2.704507    0.888882
      7         11           0       -2.167669   -1.444163    2.282352
 ---------------------------------------------------------------------

 SCF Done:  E(UB3LYP) =  -1136.12390531     A.U. after   23 cycles

 The electronic state is 2-A.
 Alpha  occ. eigenvalues --  -38.44129 -38.44108 -38.44063 -38.43837 -38.43778
 Alpha  occ. eigenvalues --  -38.43553 -38.42540  -2.19985  -2.19937  -2.19867
 Alpha  occ. eigenvalues --   -2.19661  -2.19620  -2.19421  -2.18659  -1.13702
 Alpha  occ. eigenvalues --   -1.13640  -1.13628  -1.13593  -1.13593  -1.13574
 Alpha  occ. eigenvalues --   -1.13515  -1.13501  -1.13466  -1.13370  -1.13305
 Alpha  occ. eigenvalues --   -1.13295  -1.13282  -1.13281  -1.13247  -1.13152
 Alpha  occ. eigenvalues --   -1.13063  -1.13030  -1.12370  -1.12317  -1.12296
 Alpha  occ. eigenvalues --   -0.17774  -0.12991  -0.12804  -0.10580
 Alpha virt. eigenvalues --   -0.05719  -0.05224  -0.04801  -0.03511  -0.02628
 Alpha virt. eigenvalues --   -0.02111  -0.01379  -0.01332  -0.00611  -0.00483
 Alpha virt. eigenvalues --   -0.00227   0.00331   0.00588   0.00682   0.00764

  Beta  occ. eigenvalues --  -38.44111 -38.44094 -38.43953 -38.43817 -38.43781
  Beta  occ. eigenvalues --  -38.43540 -38.42528  -2.19952  -2.19913  -2.19662
  Beta  occ. eigenvalues --   -2.19628  -2.19625  -2.19397  -2.18641  -1.13682
  Beta  occ. eigenvalues --   -1.13616  -1.13613  -1.13570  -1.13561  -1.13560
  Beta  occ. eigenvalues --   -1.13373  -1.13361  -1.13348  -1.13331  -1.13301
  Beta  occ. eigenvalues --   -1.13286  -1.13278  -1.13242  -1.13242  -1.13135
  Beta  occ. eigenvalues --   -1.13044  -1.13015  -1.12315  -1.12309  -1.12287
  Beta  occ. eigenvalues --   -0.17313  -0.12744  -0.12428
  Beta virt. eigenvalues --   -0.06871  -0.05556  -0.04865  -0.04620  -0.02996
  Beta virt. eigenvalues --   -0.02242  -0.01528  -0.01291  -0.01114  -0.00460
  Beta virt. eigenvalues --   -0.00371   0.00050   0.00408   0.00752   0.00822

 Mulliken charges and spin densities:
               1          2
     1  Na   1.618917   0.251102
     2  Na   0.234034  -0.060400
     3  Na   0.024821  -0.161708
     4  Na  -3.399258   0.676759
     5  Na   1.639357   0.257497
     6  Na  -0.246543  -0.377020
     7  Na   0.128672   0.413770
 Sum of Mulliken charges =  -0.00000   1.00000

 Dipole moment (field-independent basis, Debye):
    X=              0.1692    Y=              0.1243    Z=             -0.4189  Tot=              0.4686
 Quadrupole moment (field-independent basis, Debye-Ang):
   XX=            -61.3545   YY=            -59.4213   ZZ=            -71.5501
   XY=             -0.1229   XZ=              3.1215   YZ=              1.8071

 Normal termination of Gaussian 16 at Tue Dec  5 19:11:11 2023.
