 Gaussian 16, Revision B.01,
 Gaussian 16:  ES64L-G16RevB.01 20-Dec-2017

 -------------------------
 #P B3LYP/6-311+g(d) force
 -------------------------

 -----
 DPGEN
 -----
 Symbolic Z-matrix:
 Charge =  0 Multiplicity = 2

                         Standard orientation:
 ---------------------------------------------------------------------
 Center     Atomic      Atomic             Coordinates (Angstroms)
 Number     Number       Type             X           Y           Z
 ---------------------------------------------------------------------
      1         11           0        3.152063   -0.298017   -0.102508
      2         11           0        0.266058    0.010063   -1.456722
      3         11           0        1.269770    2.692786    0.313343
      4         11           0        0.992872   -2.957964    0.261776
      5         11           0       -1.214948   -0.237202    1.977144
      6         11           0       -1.689146    2.170679   -0.277969
      7         11           0       -2.776669   -1.380345   -0.715064
 ---------------------------------------------------------------------

 SCF Done:  E(UB3LYP) =  -1136.13365394     A.U. after   19 cycles

 The electronic state is 2-A.
 Alpha  occ. eigenvalues --  -38.44074 -38.43942 -38.43861 -38.43611 -38.43535
 Alpha  occ. eigenvalues --  -38.43458 -38.42937  -2.19875  -2.19781  -2.19702
 Alpha  occ. eigenvalues --   -2.19546  -2.19410  -2.19345  -2.18959  -1.13549
 Alpha  occ. eigenvalues --   -1.13548  -1.13511  -1.13454  -1.13448  -1.13415
 Alpha  occ. eigenvalues --   -1.13400  -1.13361  -1.13325  -1.13303  -1.13219
 Alpha  occ. eigenvalues --   -1.13199  -1.13064  -1.13055  -1.13023  -1.12999
 Alpha  occ. eigenvalues --   -1.12977  -1.12960  -1.12641  -1.12605  -1.12580
 Alpha  occ. eigenvalues --   -0.18623  -0.13079  -0.12740  -0.10485
 Alpha virt. eigenvalues --   -0.05738  -0.05059  -0.05019  -0.03187  -0.02951
 Alpha virt. eigenvalues --   -0.02235  -0.01432  -0.01203  -0.00540  -0.00289
 Alpha virt. eigenvalues --   -0.00000   0.00355   0.00802   0.00822   0.00874

  Beta  occ. eigenvalues --  -38.44069 -38.43923 -38.43861 -38.43599 -38.43531
  Beta  occ. eigenvalues --  -38.43379 -38.42880  -2.19869  -2.19750  -2.19703
  Beta  occ. eigenvalues --   -2.19529  -2.19404  -2.19198  -2.18857  -1.13545
  Beta  occ. eigenvalues --   -1.13529  -1.13508  -1.13432  -1.13409  -1.13395
  Beta  occ. eigenvalues --   -1.13389  -1.13355  -1.13328  -1.13297  -1.13196
  Beta  occ. eigenvalues --   -1.13160  -1.13061  -1.13036  -1.13015  -1.12903
  Beta  occ. eigenvalues --   -1.12877  -1.12854  -1.12572  -1.12522  -1.12505
  Beta  occ. eigenvalues --   -0.17940  -0.12862  -0.12522
  Beta virt. eigenvalues --   -0.06602  -0.05711  -0.05008  -0.04878  -0.02514
  Beta virt. eigenvalues --   -0.02239  -0.01366  -0.01219  -0.01116  -0.00534
  Beta virt. eigenvalues --   -0.00330   0.00180   0.00410   0.00823   0.00863

 Mulliken charges and spin densities:
               1          2
     1  Na   0.123093  -0.002234
     2  Na   0.112024   0.271807
     3  Na  -0.187762   0.004330
     4  Na  -0.155209  -0.046189
     5  Na  -0.576870   0.617247
     6  Na   0.472422   0.163448
     7  Na   0.212302  -0.008408
 Sum of Mulliken charges =  -0.00000   1.00000

 Dipole moment (field-independent basis, Debye):
    X=              0.0844    Y=             -0.3528    Z=              0.1554  Tot=              0.3947
 Quadrupole moment (field-independent basis, Debye-Ang):
   XX=            -58.1945   YY=            -60.3473   ZZ=            -74.9273
   XY=              1.1283   XZ=              2.6628   YZ=              0.5482

 Normal termination of Gaussian 16 at Fri Dec  8 04:59:29 2023.
