 Gaussian 16, Revision B.01,
 Gaussian 16:  ES64L-G16RevB.01 20-Dec-2017

 -------------------------
 #P B3LYP/6-311+g(d) force
 -------------------------

 -----
 DPGEN
 -----
 Symbolic Z-matrix:
 Charge =  0 Multiplicity = 2

                         Standard orientation:
 ---------------------------------------------------------------------
 Center     Atomic      Atomic             Coordinates (Angstroms)
 Number     Number       Type             X           Y           Z
 ---------------------------------------------------------------------
      1         11           0        3.587922   -0.426212    0.986616
      2         11           0        0.188497    0.104786    1.767234
      3         11           0        1.608771    2.112166   -1.583714
      4         11           0       -1.107675    2.726519    0.350219
      5         11           0       -4.106299    0.000201   -0.202589
      6         11           0       -1.499636   -2.522398    0.006578
      7         11           0        1.328421   -1.995062   -1.324344
 ---------------------------------------------------------------------

 SCF Done:  E(UB3LYP) =  -1136.11836135     A.U. after   21 cycles

 The electronic state is 2-A.
 Alpha  occ. eigenvalues --  -38.45730 -38.45001 -38.44241 -38.43910 -38.43679
 Alpha  occ. eigenvalues --  -38.43564 -38.43442  -2.21447  -2.20790  -2.20103
 Alpha  occ. eigenvalues --   -2.19711  -2.19516  -2.19392  -2.19255  -1.15131
 Alpha  occ. eigenvalues --   -1.15103  -1.15085  -1.14449  -1.14441  -1.14423
 Alpha  occ. eigenvalues --   -1.13779  -1.13765  -1.13725  -1.13378  -1.13348
 Alpha  occ. eigenvalues --   -1.13339  -1.13238  -1.13167  -1.13147  -1.13068
 Alpha  occ. eigenvalues --   -1.13051  -1.13001  -1.12956  -1.12921  -1.12876
 Alpha  occ. eigenvalues --   -0.17360  -0.13006  -0.12353  -0.10555
 Alpha virt. eigenvalues --   -0.07346  -0.05394  -0.04340  -0.03253  -0.03005
 Alpha virt. eigenvalues --   -0.02852  -0.02237  -0.01186  -0.00573  -0.00441
 Alpha virt. eigenvalues --   -0.00341   0.00017   0.00294   0.00596   0.00720

  Beta  occ. eigenvalues --  -38.45740 -38.44963 -38.44182 -38.43847 -38.43645
  Beta  occ. eigenvalues --  -38.43557 -38.43445  -2.21467  -2.20721  -2.19996
  Beta  occ. eigenvalues --   -2.19594  -2.19455  -2.19380  -2.19264  -1.15143
  Beta  occ. eigenvalues --   -1.15119  -1.15097  -1.14397  -1.14385  -1.14375
  Beta  occ. eigenvalues --   -1.13704  -1.13694  -1.13641  -1.13296  -1.13269
  Beta  occ. eigenvalues --   -1.13259  -1.13201  -1.13120  -1.13102  -1.13055
  Beta  occ. eigenvalues --   -1.13036  -1.12988  -1.12958  -1.12919  -1.12877
  Beta  occ. eigenvalues --   -0.16772  -0.12853  -0.12013
  Beta virt. eigenvalues --   -0.07240  -0.06877  -0.05194  -0.04020  -0.02818
  Beta virt. eigenvalues --   -0.02620  -0.02503  -0.01555  -0.01087  -0.00416
  Beta virt. eigenvalues --   -0.00380  -0.00185   0.00113   0.00451   0.00734

 Mulliken charges and spin densities:
               1          2
     1  Na   0.097186   0.137387
     2  Na   0.047556   0.244773
     3  Na  -0.286822   0.287703
     4  Na   0.196566   0.099144
     5  Na  -0.012141  -0.078139
     6  Na  -0.012685   0.037697
     7  Na  -0.029659   0.271435
 Sum of Mulliken charges =  -0.00000   1.00000

 Dipole moment (field-independent basis, Debye):
    X=             -0.3749    Y=              0.0419    Z=             -0.1256  Tot=              0.3976
 Quadrupole moment (field-independent basis, Debye-Ang):
   XX=            -48.0080   YY=            -72.6949   ZZ=            -73.6795
   XY=             -1.7633   XZ=              0.7671   YZ=             -0.6014

 Normal termination of Gaussian 16 at Sun Dec  3 11:42:10 2023.
