 Gaussian 16, Revision B.01,
 Gaussian 16:  ES64L-G16RevB.01 20-Dec-2017

 -------------------------
 #P B3LYP/6-311+g(d) force
 -------------------------

 -----
 DPGEN
 -----
 Symbolic Z-matrix:
 Charge =  0 Multiplicity = 2

                         Standard orientation:
 ---------------------------------------------------------------------
 Center     Atomic      Atomic             Coordinates (Angstroms)
 Number     Number       Type             X           Y           Z
 ---------------------------------------------------------------------
      1         11           0        2.769219    1.121909   -0.228432
      2         11           0       -1.681899   -2.433607   -0.113828
      3         11           0       -0.005441    3.230903    0.055100
      4         11           0        2.726213   -2.219502    0.118290
      5         11           0       -0.113651    0.016391    1.567275
      6         11           0       -3.557090    0.318920   -0.030704
      7         11           0       -0.137350   -0.035014   -1.367701
 ---------------------------------------------------------------------

 SCF Done:  E(UB3LYP) =  -1136.12687080     A.U. after   23 cycles

 The electronic state is 2-A.
 Alpha  occ. eigenvalues --  -38.45197 -38.43976 -38.43968 -38.43915 -38.43298
 Alpha  occ. eigenvalues --  -38.43153 -38.42782  -2.20988  -2.19858  -2.19791
 Alpha  occ. eigenvalues --   -2.19756  -2.19173  -2.19117  -2.18768  -1.14656
 Alpha  occ. eigenvalues --   -1.14644  -1.14629  -1.13583  -1.13517  -1.13493
 Alpha  occ. eigenvalues --   -1.13468  -1.13467  -1.13448  -1.13421  -1.13396
 Alpha  occ. eigenvalues --   -1.13373  -1.12986  -1.12810  -1.12782  -1.12773
 Alpha  occ. eigenvalues --   -1.12764  -1.12749  -1.12474  -1.12370  -1.12347
 Alpha  occ. eigenvalues --   -0.18567  -0.13564  -0.12110  -0.09620
 Alpha virt. eigenvalues --   -0.06456  -0.05256  -0.04948  -0.03011  -0.02313
 Alpha virt. eigenvalues --   -0.02200  -0.01556  -0.01461  -0.00702  -0.00596
 Alpha virt. eigenvalues --    0.00010   0.00268   0.00666   0.00753   0.00802

  Beta  occ. eigenvalues --  -38.45194 -38.43969 -38.43964 -38.43905 -38.43297
  Beta  occ. eigenvalues --  -38.43098 -38.42701  -2.20985  -2.19842  -2.19775
  Beta  occ. eigenvalues --   -2.19761  -2.19117  -2.19076  -2.18619  -1.14651
  Beta  occ. eigenvalues --   -1.14631  -1.14625  -1.13573  -1.13487  -1.13478
  Beta  occ. eigenvalues --   -1.13455  -1.13452  -1.13424  -1.13410  -1.13397
  Beta  occ. eigenvalues --   -1.13373  -1.12900  -1.12786  -1.12773  -1.12758
  Beta  occ. eigenvalues --   -1.12717  -1.12686  -1.12370  -1.12264  -1.12238
  Beta  occ. eigenvalues --   -0.17873  -0.13311  -0.11902
  Beta virt. eigenvalues --   -0.06407  -0.05812  -0.05213  -0.04941  -0.02247
  Beta virt. eigenvalues --   -0.02200  -0.01603  -0.01376  -0.00806  -0.00750
  Beta virt. eigenvalues --   -0.00468   0.00183   0.00325   0.00696   0.00780

 Mulliken charges and spin densities:
               1          2
     1  Na   0.256786   0.057659
     2  Na   0.294215   0.013728
     3  Na  -0.003061  -0.092232
     4  Na   0.069451  -0.049906
     5  Na  -0.410094   0.733197
     6  Na   0.147691  -0.059724
     7  Na  -0.354989   0.397277
 Sum of Mulliken charges =  -0.00000   1.00000

 Dipole moment (field-independent basis, Debye):
    X=             -0.7316    Y=             -0.0412    Z=              0.1129  Tot=              0.7414
 Quadrupole moment (field-independent basis, Debye-Ang):
   XX=            -49.1435   YY=            -59.1467   ZZ=            -80.2408
   XY=             -1.7659   XZ=             -0.1002   YZ=             -0.1420

 Normal termination of Gaussian 16 at Thu Dec  7 04:17:15 2023.
