 Gaussian 16, Revision B.01,
 Gaussian 16:  ES64L-G16RevB.01 20-Dec-2017

 -------------------------
 #P B3LYP/6-311+g(d) force
 -------------------------

 -----
 DPGEN
 -----
 Symbolic Z-matrix:
 Charge =  0 Multiplicity = 2

                         Standard orientation:
 ---------------------------------------------------------------------
 Center     Atomic      Atomic             Coordinates (Angstroms)
 Number     Number       Type             X           Y           Z
 ---------------------------------------------------------------------
      1         11           0        0.293794    2.979559   -0.252587
      2         11           0       -2.303395    1.017484   -1.153920
      3         11           0       -0.811929   -1.188402    1.550194
      4         11           0        4.125954   -1.483992   -0.744506
      5         11           0        2.451542    0.989138    1.545300
      6         11           0       -4.406749   -1.128442    0.282153
      7         11           0        0.650783   -1.185344   -1.226635
 ---------------------------------------------------------------------

 SCF Done:  E(UB3LYP) =  -1136.11368549     A.U. after   28 cycles

 The electronic state is 2-A.
 Alpha  occ. eigenvalues --  -38.45451 -38.45117 -38.44869 -38.44571 -38.44307
 Alpha  occ. eigenvalues --  -38.43582 -38.42504  -2.21217  -2.20946  -2.20702
 Alpha  occ. eigenvalues --   -2.20380  -2.20086  -2.19455  -2.18313  -1.14899
 Alpha  occ. eigenvalues --   -1.14885  -1.14842  -1.14709  -1.14587  -1.14548
 Alpha  occ. eigenvalues --   -1.14406  -1.14341  -1.14272  -1.14052  -1.14035
 Alpha  occ. eigenvalues --   -1.13999  -1.13750  -1.13746  -1.13709  -1.13143
 Alpha  occ. eigenvalues --   -1.13119  -1.13065  -1.11992  -1.11974  -1.11970
 Alpha  occ. eigenvalues --   -0.17678  -0.13790  -0.11523  -0.10668
 Alpha virt. eigenvalues --   -0.07898  -0.04970  -0.04772  -0.03313  -0.03150
 Alpha virt. eigenvalues --   -0.02569  -0.02165  -0.01590  -0.01109  -0.00367
 Alpha virt. eigenvalues --   -0.00074   0.00080   0.00257   0.00400   0.00689

  Beta  occ. eigenvalues --  -38.45457 -38.45091 -38.44802 -38.44531 -38.44280
  Beta  occ. eigenvalues --  -38.43545 -38.42510  -2.21228  -2.20901  -2.20579
  Beta  occ. eigenvalues --   -2.20306  -2.20036  -2.19385  -2.18329  -1.14905
  Beta  occ. eigenvalues --   -1.14888  -1.14848  -1.14654  -1.14559  -1.14514
  Beta  occ. eigenvalues --   -1.14324  -1.14258  -1.14177  -1.13993  -1.13984
  Beta  occ. eigenvalues --   -1.13954  -1.13717  -1.13706  -1.13678  -1.13093
  Beta  occ. eigenvalues --   -1.13071  -1.13016  -1.12004  -1.11984  -1.11963
  Beta  occ. eigenvalues --   -0.17065  -0.13558  -0.11191
  Beta virt. eigenvalues --   -0.07755  -0.07158  -0.04582  -0.04312  -0.03119
  Beta virt. eigenvalues --   -0.02942  -0.02106  -0.01542  -0.01350  -0.00779
  Beta virt. eigenvalues --   -0.00310  -0.00082   0.00190   0.00404   0.00541

 Mulliken charges and spin densities:
               1          2
     1  Na  -0.339624  -0.091042
     2  Na   0.185356   0.202760
     3  Na  -0.260204   0.337452
     4  Na   0.106310   0.006606
     5  Na   0.265160   0.240653
     6  Na   0.257222  -0.058224
     7  Na  -0.214219   0.361795
 Sum of Mulliken charges =  -0.00000   1.00000

 Dipole moment (field-independent basis, Debye):
    X=             -0.6686    Y=             -0.6448    Z=              0.4669  Tot=              1.0396
 Quadrupole moment (field-independent basis, Debye-Ang):
   XX=            -45.5975   YY=            -75.4216   ZZ=            -72.9241
   XY=              4.3249   XZ=              2.3762   YZ=              0.7106

 Normal termination of Gaussian 16 at Sun Dec  3 13:12:40 2023.
