 Gaussian 16, Revision B.01,
 Gaussian 16:  ES64L-G16RevB.01 20-Dec-2017

 -------------------------
 #P B3LYP/6-311+g(d) force
 -------------------------

 -----
 DPGEN
 -----
 Symbolic Z-matrix:
 Charge =  0 Multiplicity = 2

                         Standard orientation:
 ---------------------------------------------------------------------
 Center     Atomic      Atomic             Coordinates (Angstroms)
 Number     Number       Type             X           Y           Z
 ---------------------------------------------------------------------
      1         11           0       -3.288803   -0.074162   -0.306508
      2         11           0        2.592056    2.000409   -0.061750
      3         11           0       -0.185778    0.083451    1.993875
      4         11           0        0.242390   -0.246876   -1.652646
      5         11           0       -1.266644    2.466388   -0.078882
      6         11           0        3.085666   -1.691962   -0.012203
      7         11           0       -1.178887   -2.537249    0.118115
 ---------------------------------------------------------------------

 SCF Done:  E(UB3LYP) =  -1136.13237773     A.U. after   20 cycles

 The electronic state is 2-A.
 Alpha  occ. eigenvalues --  -38.44656 -38.44421 -38.44282 -38.43468 -38.43422
 Alpha  occ. eigenvalues --  -38.43202 -38.42990  -2.20417  -2.20277  -2.20063
 Alpha  occ. eigenvalues --   -2.19398  -2.19325  -2.19083  -2.18865  -1.14096
 Alpha  occ. eigenvalues --   -1.14066  -1.14062  -1.13947  -1.13930  -1.13929
 Alpha  occ. eigenvalues --   -1.13746  -1.13722  -1.13697  -1.13110  -1.13054
 Alpha  occ. eigenvalues --   -1.13008  -1.13000  -1.12963  -1.12937  -1.12761
 Alpha  occ. eigenvalues --   -1.12741  -1.12707  -1.12548  -1.12530  -1.12496
 Alpha  occ. eigenvalues --   -0.18491  -0.13307  -0.11967  -0.10544
 Alpha virt. eigenvalues --   -0.06228  -0.05707  -0.04065  -0.03255  -0.02636
 Alpha virt. eigenvalues --   -0.02435  -0.02017  -0.01395  -0.00545  -0.00242
 Alpha virt. eigenvalues --   -0.00048   0.00292   0.00664   0.00784   0.00868

  Beta  occ. eigenvalues --  -38.44659 -38.44412 -38.44282 -38.43411 -38.43323
  Beta  occ. eigenvalues --  -38.43192 -38.42982  -2.20424  -2.20263  -2.20065
  Beta  occ. eigenvalues --   -2.19294  -2.19144  -2.19069  -2.18854  -1.14089
  Beta  occ. eigenvalues --   -1.14072  -1.14067  -1.13940  -1.13923  -1.13897
  Beta  occ. eigenvalues --   -1.13734  -1.13723  -1.13700  -1.13038  -1.12982
  Beta  occ. eigenvalues --   -1.12928  -1.12883  -1.12834  -1.12811  -1.12747
  Beta  occ. eigenvalues --   -1.12704  -1.12691  -1.12543  -1.12497  -1.12484
  Beta  occ. eigenvalues --   -0.17753  -0.13113  -0.11725
  Beta virt. eigenvalues --   -0.06634  -0.06146  -0.05712  -0.04057  -0.02533
  Beta virt. eigenvalues --   -0.01948  -0.01859  -0.01350  -0.01334  -0.00604
  Beta virt. eigenvalues --   -0.00262   0.00110   0.00330   0.00733   0.00784

 Mulliken charges and spin densities:
               1          2
     1  Na   0.221286   0.078370
     2  Na   0.001082  -0.111796
     3  Na  -0.393508   0.741311
     4  Na  -0.217482   0.513697
     5  Na   0.120792  -0.039173
     6  Na   0.048130  -0.124018
     7  Na   0.219700  -0.058391
 Sum of Mulliken charges =  -0.00000   1.00000

 Dipole moment (field-independent basis, Debye):
    X=              0.5063    Y=             -0.1069    Z=              0.0415  Tot=              0.5191
 Quadrupole moment (field-independent basis, Debye-Ang):
   XX=            -50.8147   YY=            -65.9728   ZZ=            -75.4974
   XY=             -0.0513   XZ=              1.2464   YZ=             -0.7648

 Normal termination of Gaussian 16 at Thu Dec  7 20:41:27 2023.
