 Gaussian 16, Revision B.01,
 Gaussian 16:  ES64L-G16RevB.01 20-Dec-2017

 -------------------------
 #P B3LYP/6-311+g(d) force
 -------------------------

 -----
 DPGEN
 -----
 Symbolic Z-matrix:
 Charge =  0 Multiplicity = 2

                         Standard orientation:
 ---------------------------------------------------------------------
 Center     Atomic      Atomic             Coordinates (Angstroms)
 Number     Number       Type             X           Y           Z
 ---------------------------------------------------------------------
      1         11           0       -2.847355   -1.373444   -0.060982
      2         11           0       -0.096412    0.162573    2.354455
      3         11           0       -2.077587    2.220778   -0.169421
      4         11           0        1.487527    2.299590   -0.162644
      5         11           0        0.318731   -2.706701   -0.092190
      6         11           0        0.042947   -0.023335   -1.886147
      7         11           0        3.172149   -0.579462    0.016929
 ---------------------------------------------------------------------

 SCF Done:  E(UB3LYP) =  -1136.13843586     A.U. after   19 cycles

 The electronic state is 2-A.
 Alpha  occ. eigenvalues --  -38.44375 -38.43883 -38.43868 -38.43740 -38.43493
 Alpha  occ. eigenvalues --  -38.43241 -38.43083  -2.20207  -2.19705  -2.19682
 Alpha  occ. eigenvalues --   -2.19678  -2.19314  -2.19121  -2.18947  -1.13856
 Alpha  occ. eigenvalues --   -1.13835  -1.13827  -1.13382  -1.13368  -1.13367
 Alpha  occ. eigenvalues --   -1.13358  -1.13351  -1.13346  -1.13330  -1.13325
 Alpha  occ. eigenvalues --   -1.13286  -1.12989  -1.12977  -1.12956  -1.12812
 Alpha  occ. eigenvalues --   -1.12784  -1.12737  -1.12644  -1.12611  -1.12565
 Alpha  occ. eigenvalues --   -0.18477  -0.12805  -0.12303  -0.11294
 Alpha virt. eigenvalues --   -0.05554  -0.05146  -0.04404  -0.03319  -0.03214
 Alpha virt. eigenvalues --   -0.03069  -0.01463  -0.01000  -0.00176  -0.00154
 Alpha virt. eigenvalues --   -0.00112   0.00374   0.00750   0.00854   0.00914

  Beta  occ. eigenvalues --  -38.44269 -38.43883 -38.43868 -38.43671 -38.43491
  Beta  occ. eigenvalues --  -38.43234 -38.43077  -2.20011  -2.19707  -2.19681
  Beta  occ. eigenvalues --   -2.19554  -2.19313  -2.19112  -2.18941  -1.13727
  Beta  occ. eigenvalues --   -1.13696  -1.13688  -1.13379  -1.13361  -1.13352
  Beta  occ. eigenvalues --   -1.13347  -1.13335  -1.13329  -1.13282  -1.13246
  Beta  occ. eigenvalues --   -1.13199  -1.12981  -1.12963  -1.12959  -1.12802
  Beta  occ. eigenvalues --   -1.12753  -1.12737  -1.12635  -1.12586  -1.12566
  Beta  occ. eigenvalues --   -0.17712  -0.12628  -0.12081
  Beta virt. eigenvalues --   -0.07309  -0.05473  -0.05176  -0.04313  -0.02529
  Beta virt. eigenvalues --   -0.02298  -0.02120  -0.01376  -0.00946  -0.00241
  Beta virt. eigenvalues --   -0.00206   0.00060   0.00392   0.00845   0.00891

 Mulliken charges and spin densities:
               1          2
     1  Na   0.108899  -0.061589
     2  Na  -0.671207   0.733124
     3  Na   0.158340  -0.061744
     4  Na   0.271053   0.001924
     5  Na   0.156514  -0.011419
     6  Na  -0.155917   0.432826
     7  Na   0.132319  -0.033122
 Sum of Mulliken charges =  -0.00000   1.00000

 Dipole moment (field-independent basis, Debye):
    X=             -0.0828    Y=             -0.0072    Z=              0.2187  Tot=              0.2340
 Quadrupole moment (field-independent basis, Debye-Ang):
   XX=            -57.6290   YY=            -66.8114   ZZ=            -70.8477
   XY=             -0.4678   XZ=              0.3177   YZ=             -0.3917

 Normal termination of Gaussian 16 at Thu Dec  7 13:13:20 2023.
