 Gaussian 16, Revision B.01,
 Gaussian 16:  ES64L-G16RevB.01 20-Dec-2017

 -------------------------
 #P B3LYP/6-311+g(d) force
 -------------------------

 -----
 DPGEN
 -----
 Symbolic Z-matrix:
 Charge =  0 Multiplicity = 2

                         Standard orientation:
 ---------------------------------------------------------------------
 Center     Atomic      Atomic             Coordinates (Angstroms)
 Number     Number       Type             X           Y           Z
 ---------------------------------------------------------------------
      1         11           0        0.120779   -0.048355   -1.718606
      2         11           0        2.057723   -2.242875   -0.267654
      3         11           0       -1.960273   -2.287367    0.431256
      4         11           0       -2.912054    0.729526   -0.591055
      5         11           0       -0.115795    2.887279    0.270601
      6         11           0        0.068973    0.014969    1.956117
      7         11           0        2.740647    0.946824   -0.080659
 ---------------------------------------------------------------------

 SCF Done:  E(UB3LYP) =  -1136.13903062     A.U. after   19 cycles

 The electronic state is 2-A.
 Alpha  occ. eigenvalues --  -38.43792 -38.43700 -38.43574 -38.43567 -38.43525
 Alpha  occ. eigenvalues --  -38.43370 -38.43031  -2.19647  -2.19604  -2.19496
 Alpha  occ. eigenvalues --   -2.19411  -2.19382  -2.19352  -2.18897  -1.13343
 Alpha  occ. eigenvalues --   -1.13317  -1.13304  -1.13283  -1.13281  -1.13238
 Alpha  occ. eigenvalues --   -1.13170  -1.13140  -1.13123  -1.13095  -1.13069
 Alpha  occ. eigenvalues --   -1.13060  -1.13045  -1.13036  -1.13017  -1.13007
 Alpha  occ. eigenvalues --   -1.12975  -1.12954  -1.12578  -1.12558  -1.12531
 Alpha  occ. eigenvalues --   -0.18884  -0.13203  -0.12339  -0.11039
 Alpha virt. eigenvalues --   -0.05302  -0.05169  -0.04596  -0.03350  -0.02943
 Alpha virt. eigenvalues --   -0.02685  -0.01382  -0.01084  -0.00299  -0.00085
 Alpha virt. eigenvalues --    0.00027   0.00369   0.00839   0.00905   0.00915

  Beta  occ. eigenvalues --  -38.43778 -38.43694 -38.43565 -38.43520 -38.43477
  Beta  occ. eigenvalues --  -38.43302 -38.43026  -2.19623  -2.19596  -2.19398
  Beta  occ. eigenvalues --   -2.19377  -2.19331  -2.19228  -2.18891  -1.13318
  Beta  occ. eigenvalues --   -1.13307  -1.13279  -1.13269  -1.13261  -1.13221
  Beta  occ. eigenvalues --   -1.13093  -1.13072  -1.13052  -1.13044  -1.13040
  Beta  occ. eigenvalues --   -1.13031  -1.13009  -1.12994  -1.12981  -1.12937
  Beta  occ. eigenvalues --   -1.12891  -1.12871  -1.12569  -1.12546  -1.12517
  Beta  occ. eigenvalues --   -0.18152  -0.12930  -0.12073
  Beta virt. eigenvalues --   -0.07131  -0.05254  -0.05136  -0.04553  -0.02574
  Beta virt. eigenvalues --   -0.02179  -0.01639  -0.01280  -0.01004  -0.00300
  Beta virt. eigenvalues --   -0.00122   0.00123   0.00391   0.00894   0.00908

 Mulliken charges and spin densities:
               1          2
     1  Na  -0.154202   0.458846
     2  Na   0.077310  -0.068768
     3  Na  -0.004145  -0.018459
     4  Na   0.083686   0.018313
     5  Na   0.085945  -0.020629
     6  Na  -0.303753   0.671003
     7  Na   0.215159  -0.040307
 Sum of Mulliken charges =  -0.00000   1.00000

 Dipole moment (field-independent basis, Debye):
    X=              0.0142    Y=             -0.1151    Z=              0.0582  Tot=              0.1297
 Quadrupole moment (field-independent basis, Debye-Ang):
   XX=            -58.3498   YY=            -62.7771   ZZ=            -72.9669
   XY=             -0.2939   XZ=              0.4268   YZ=             -0.4703

 Normal termination of Gaussian 16 at Fri Dec  8 06:38:39 2023.
