 Gaussian 16, Revision B.01,
 Gaussian 16:  ES64L-G16RevB.01 20-Dec-2017

 -------------------------
 #P B3LYP/6-311+g(d) force
 -------------------------

 -----
 DPGEN
 -----
 Symbolic Z-matrix:
 Charge =  0 Multiplicity = 2

                         Standard orientation:
 ---------------------------------------------------------------------
 Center     Atomic      Atomic             Coordinates (Angstroms)
 Number     Number       Type             X           Y           Z
 ---------------------------------------------------------------------
      1         11           0       -0.372238   -1.017771   -0.967233
      2         11           0       -2.790878   -0.101818   -1.942906
      3         11           0        2.994052   -1.614406   -0.626666
      4         11           0        1.208109   -0.634982    1.769598
      5         11           0       -1.042456    2.312285    0.644351
      6         11           0        2.503708    1.996446   -0.512564
      7         11           0       -2.500297   -0.939754    1.635420
 ---------------------------------------------------------------------

 SCF Done:  E(UB3LYP) =  -1136.12163300     A.U. after   23 cycles

 The electronic state is 2-A.
 Alpha  occ. eigenvalues --  -38.44790 -38.44654 -38.44291 -38.43804 -38.43623
 Alpha  occ. eigenvalues --  -38.43308 -38.42700  -2.20634  -2.20549  -2.20210
 Alpha  occ. eigenvalues --   -2.19596  -2.19481  -2.19330  -2.18511  -1.14357
 Alpha  occ. eigenvalues --   -1.14308  -1.14273  -1.14259  -1.14142  -1.14126
 Alpha  occ. eigenvalues --   -1.13935  -1.13854  -1.13814  -1.13280  -1.13246
 Alpha  occ. eigenvalues --   -1.13226  -1.13156  -1.13142  -1.13109  -1.13049
 Alpha  occ. eigenvalues --   -1.12948  -1.12937  -1.12195  -1.12192  -1.12133
 Alpha  occ. eigenvalues --   -0.18516  -0.13927  -0.11769  -0.10931
 Alpha virt. eigenvalues --   -0.05910  -0.05213  -0.04983  -0.03286  -0.02804
 Alpha virt. eigenvalues --   -0.02393  -0.01903  -0.01080  -0.00695   0.00071
 Alpha virt. eigenvalues --    0.00229   0.00280   0.00388   0.00498   0.00701

  Beta  occ. eigenvalues --  -38.44739 -38.44588 -38.44244 -38.43791 -38.43624
  Beta  occ. eigenvalues --  -38.43280 -38.42697  -2.20542  -2.20428  -2.20127
  Beta  occ. eigenvalues --   -2.19571  -2.19483  -2.19285  -2.18506  -1.14270
  Beta  occ. eigenvalues --   -1.14239  -1.14210  -1.14183  -1.14058  -1.14045
  Beta  occ. eigenvalues --   -1.13883  -1.13779  -1.13754  -1.13260  -1.13231
  Beta  occ. eigenvalues --   -1.13210  -1.13153  -1.13143  -1.13108  -1.12966
  Beta  occ. eigenvalues --   -1.12926  -1.12908  -1.12195  -1.12168  -1.12135
  Beta  occ. eigenvalues --   -0.17788  -0.13680  -0.10790
  Beta virt. eigenvalues --   -0.07792  -0.05638  -0.05020  -0.04473  -0.03034
  Beta virt. eigenvalues --   -0.02128  -0.01883  -0.01711  -0.00717  -0.00490
  Beta virt. eigenvalues --    0.00155   0.00291   0.00443   0.00537   0.00573

 Mulliken charges and spin densities:
               1          2
     1  Na  -1.553704   0.632524
     2  Na   0.989313  -0.140703
     3  Na   0.855607  -0.006420
     4  Na   0.188860   0.213717
     5  Na  -0.397905   0.126231
     6  Na  -0.243785  -0.021838
     7  Na   0.161613   0.196490
 Sum of Mulliken charges =  -0.00000   1.00000

 Dipole moment (field-independent basis, Debye):
    X=             -0.3579    Y=             -0.2714    Z=              0.1664  Tot=              0.4790
 Quadrupole moment (field-independent basis, Debye-Ang):
   XX=            -51.2051   YY=            -77.6100   ZZ=            -65.1242
   XY=             -0.7864   XZ=             -2.7193   YZ=             -3.9373

 Normal termination of Gaussian 16 at Sun Dec  3 20:30:49 2023.
