 Gaussian 16, Revision B.01,
 Gaussian 16:  ES64L-G16RevB.01 20-Dec-2017

 -------------------------
 #P B3LYP/6-311+g(d) force
 -------------------------

 -----
 DPGEN
 -----
 Symbolic Z-matrix:
 Charge =  0 Multiplicity = 2

                         Standard orientation:
 ---------------------------------------------------------------------
 Center     Atomic      Atomic             Coordinates (Angstroms)
 Number     Number       Type             X           Y           Z
 ---------------------------------------------------------------------
      1         11           0       -1.142940   -1.717021   -0.294877
      2         11           0       -2.185394    1.555017    0.410439
      3         11           0        1.802818    0.784854   -0.815670
      4         11           0        2.597621   -0.939880    1.932573
      5         11           0        2.487930   -2.405560   -1.030307
      6         11           0        0.641333    4.106354   -0.263416
      7         11           0       -4.201367   -1.383763    0.061260
 ---------------------------------------------------------------------

 SCF Done:  E(UB3LYP) =  -1136.12348468     A.U. after   21 cycles

 The electronic state is 2-A.
 Alpha  occ. eigenvalues --  -38.44967 -38.44568 -38.44202 -38.44026 -38.43965
 Alpha  occ. eigenvalues --  -38.43686 -38.43196  -2.20747  -2.20395  -2.20063
 Alpha  occ. eigenvalues --   -2.19889  -2.19832  -2.19453  -2.19073  -1.14463
 Alpha  occ. eigenvalues --   -1.14448  -1.14320  -1.14098  -1.14046  -1.14022
 Alpha  occ. eigenvalues --   -1.13765  -1.13745  -1.13648  -1.13588  -1.13549
 Alpha  occ. eigenvalues --   -1.13535  -1.13533  -1.13518  -1.13411  -1.13123
 Alpha  occ. eigenvalues --   -1.13121  -1.13080  -1.12720  -1.12707  -1.12680
 Alpha  occ. eigenvalues --   -0.17343  -0.14211  -0.12415  -0.09770
 Alpha virt. eigenvalues --   -0.06230  -0.05807  -0.05518  -0.03307  -0.02470
 Alpha virt. eigenvalues --   -0.02215  -0.01897  -0.01736  -0.01283  -0.00652
 Alpha virt. eigenvalues --   -0.00152   0.00108   0.00312   0.00589   0.00634

  Beta  occ. eigenvalues --  -38.44963 -38.44564 -38.44182 -38.44002 -38.43951
  Beta  occ. eigenvalues --  -38.43687 -38.43093  -2.20741  -2.20388  -2.20028
  Beta  occ. eigenvalues --   -2.19849  -2.19810  -2.19455  -2.18880  -1.14460
  Beta  occ. eigenvalues --   -1.14441  -1.14314  -1.14092  -1.14041  -1.14015
  Beta  occ. eigenvalues --   -1.13743  -1.13715  -1.13611  -1.13567  -1.13528
  Beta  occ. eigenvalues --   -1.13510  -1.13480  -1.13460  -1.13401  -1.13124
  Beta  occ. eigenvalues --   -1.13121  -1.13082  -1.12587  -1.12575  -1.12554
  Beta  occ. eigenvalues --   -0.16838  -0.13899  -0.12306
  Beta virt. eigenvalues --   -0.06181  -0.05967  -0.05524  -0.05282  -0.02924
  Beta virt. eigenvalues --   -0.02367  -0.01964  -0.01736  -0.01253  -0.01012
  Beta virt. eigenvalues --   -0.00412   0.00159   0.00290   0.00621   0.00668

 Mulliken charges and spin densities:
               1          2
     1  Na  -2.030264  -0.020569
     2  Na  -0.408808   0.031746
     3  Na  -1.310508   0.267627
     4  Na  -0.028789   0.444366
     5  Na   1.879379   0.313686
     6  Na   0.578230  -0.128222
     7  Na   1.320760   0.091366
 Sum of Mulliken charges =  -0.00000   1.00000

 Dipole moment (field-independent basis, Debye):
    X=             -1.7007    Y=             -0.3294    Z=             -0.4381  Tot=              1.7868
 Quadrupole moment (field-independent basis, Debye-Ang):
   XX=            -56.9388   YY=            -60.7493   ZZ=            -76.9377
   XY=              0.8963   XZ=             -5.8786   YZ=              1.3946

 Normal termination of Gaussian 16 at Tue Nov 28 21:45:12 2023.
