 Gaussian 16, Revision B.01,
 Gaussian 16:  ES64L-G16RevB.01 20-Dec-2017

 -------------------------
 #P B3LYP/6-311+g(d) force
 -------------------------

 -----
 DPGEN
 -----
 Symbolic Z-matrix:
 Charge =  0 Multiplicity = 2

                         Standard orientation:
 ---------------------------------------------------------------------
 Center     Atomic      Atomic             Coordinates (Angstroms)
 Number     Number       Type             X           Y           Z
 ---------------------------------------------------------------------
      1         11           0       -0.392070    3.154696    0.020217
      2         11           0       -0.016872    0.094337   -1.693192
      3         11           0       -2.139218   -2.606956    0.089398
      4         11           0        3.613849    0.791511   -0.025688
      5         11           0       -3.091465    0.820022   -0.200916
      6         11           0        0.002199    0.051140    1.989103
      7         11           0        2.023576   -2.304750   -0.178923
 ---------------------------------------------------------------------

 SCF Done:  E(UB3LYP) =  -1136.13188718     A.U. after   21 cycles

 The electronic state is 2-A.
 Alpha  occ. eigenvalues --  -38.44992 -38.44359 -38.44010 -38.43620 -38.43549
 Alpha  occ. eigenvalues --  -38.43516 -38.43404  -2.20742  -2.20179  -2.19817
 Alpha  occ. eigenvalues --   -2.19438  -2.19401  -2.19367  -2.19209  -1.14416
 Alpha  occ. eigenvalues --   -1.14400  -1.14383  -1.13862  -1.13843  -1.13805
 Alpha  occ. eigenvalues --   -1.13505  -1.13488  -1.13438  -1.13136  -1.13076
 Alpha  occ. eigenvalues --   -1.13071  -1.13065  -1.13058  -1.13046  -1.13038
 Alpha  occ. eigenvalues --   -1.12993  -1.12982  -1.12879  -1.12870  -1.12851
 Alpha  occ. eigenvalues --   -0.17870  -0.13104  -0.11933  -0.10271
 Alpha virt. eigenvalues --   -0.06347  -0.05353  -0.04900  -0.03153  -0.02590
 Alpha virt. eigenvalues --   -0.02363  -0.02051  -0.01362  -0.00800  -0.00692
 Alpha virt. eigenvalues --   -0.00060   0.00299   0.00672   0.00763   0.00785

  Beta  occ. eigenvalues --  -38.44995 -38.44352 -38.44004 -38.43620 -38.43486
  Beta  occ. eigenvalues --  -38.43421 -38.43402  -2.20749  -2.20169  -2.19809
  Beta  occ. eigenvalues --   -2.19403  -2.19323  -2.19208  -2.19192  -1.14413
  Beta  occ. eigenvalues --   -1.14402  -1.14388  -1.13846  -1.13825  -1.13804
  Beta  occ. eigenvalues --   -1.13495  -1.13466  -1.13436  -1.13067  -1.13059
  Beta  occ. eigenvalues --   -1.13054  -1.13048  -1.12992  -1.12975  -1.12922
  Beta  occ. eigenvalues --   -1.12879  -1.12869  -1.12861  -1.12851  -1.12842
  Beta  occ. eigenvalues --   -0.17154  -0.12925  -0.11746
  Beta virt. eigenvalues --   -0.06402  -0.06292  -0.05351  -0.04833  -0.02430
  Beta virt. eigenvalues --   -0.01956  -0.01897  -0.01353  -0.01256  -0.00843
  Beta virt. eigenvalues --   -0.00726   0.00102   0.00334   0.00720   0.00776

 Mulliken charges and spin densities:
               1          2
     1  Na  -0.039245  -0.146341
     2  Na   0.053614   0.560551
     3  Na  -0.049465  -0.083629
     4  Na   0.014078  -0.105929
     5  Na   0.240319  -0.003997
     6  Na  -0.280769   0.848308
     7  Na   0.061468  -0.068963
 Sum of Mulliken charges =  -0.00000   1.00000

 Dipole moment (field-independent basis, Debye):
    X=              0.4506    Y=              0.1633    Z=             -0.0203  Tot=              0.4797
 Quadrupole moment (field-independent basis, Debye-Ang):
   XX=            -52.6050   YY=            -62.1845   ZZ=            -77.3342
   XY=              1.2239   XZ=              0.0867   YZ=              0.0896

 Normal termination of Gaussian 16 at Thu Dec  7 20:04:31 2023.
