 Gaussian 16, Revision B.01,
 Gaussian 16:  ES64L-G16RevB.01 20-Dec-2017

 -------------------------
 #P B3LYP/6-311+g(d) force
 -------------------------

 -----
 DPGEN
 -----
 Symbolic Z-matrix:
 Charge =  0 Multiplicity = 2

                         Standard orientation:
 ---------------------------------------------------------------------
 Center     Atomic      Atomic             Coordinates (Angstroms)
 Number     Number       Type             X           Y           Z
 ---------------------------------------------------------------------
      1         11           0       -1.292909    2.634914    0.163374
      2         11           0        0.147008    0.139150    1.861024
      3         11           0       -3.040731   -0.062500   -0.523964
      4         11           0        2.587984    1.984450    0.029720
      5         11           0       -1.125009   -2.661799    0.690258
      6         11           0        2.725978   -1.810209   -0.352276
      7         11           0       -0.002321   -0.224006   -1.868136
 ---------------------------------------------------------------------

 SCF Done:  E(UB3LYP) =  -1136.13675457     A.U. after   19 cycles

 The electronic state is 2-A.
 Alpha  occ. eigenvalues --  -38.44137 -38.44113 -38.43715 -38.43704 -38.43494
 Alpha  occ. eigenvalues --  -38.43366 -38.43344  -2.19923  -2.19896  -2.19605
 Alpha  occ. eigenvalues --   -2.19587  -2.19417  -2.19212  -2.19193  -1.13607
 Alpha  occ. eigenvalues --   -1.13583  -1.13577  -1.13562  -1.13552  -1.13525
 Alpha  occ. eigenvalues --   -1.13318  -1.13270  -1.13248  -1.13235  -1.13225
 Alpha  occ. eigenvalues --   -1.13201  -1.13098  -1.13071  -1.13042  -1.12887
 Alpha  occ. eigenvalues --   -1.12870  -1.12857  -1.12853  -1.12839  -1.12820
 Alpha  occ. eigenvalues --   -0.18407  -0.12960  -0.12220  -0.10946
 Alpha virt. eigenvalues --   -0.05622  -0.05422  -0.04454  -0.03279  -0.02983
 Alpha virt. eigenvalues --   -0.02653  -0.01552  -0.01254  -0.00429  -0.00280
 Alpha virt. eigenvalues --    0.00000   0.00356   0.00763   0.00814   0.00901

  Beta  occ. eigenvalues --  -38.44130 -38.44114 -38.43703 -38.43632 -38.43414
  Beta  occ. eigenvalues --  -38.43344 -38.43340  -2.19913  -2.19899  -2.19568
  Beta  occ. eigenvalues --   -2.19473  -2.19269  -2.19190  -2.19176  -1.13587
  Beta  occ. eigenvalues --   -1.13577  -1.13569  -1.13558  -1.13551  -1.13525
  Beta  occ. eigenvalues --   -1.13273  -1.13237  -1.13205  -1.13187  -1.13143
  Beta  occ. eigenvalues --   -1.13116  -1.13005  -1.12971  -1.12939  -1.12861
  Beta  occ. eigenvalues --   -1.12843  -1.12840  -1.12823  -1.12815  -1.12809
  Beta  occ. eigenvalues --   -0.17682  -0.12714  -0.11954
  Beta virt. eigenvalues --   -0.07075  -0.05628  -0.05309  -0.04387  -0.02557
  Beta virt. eigenvalues --   -0.02251  -0.01656  -0.01415  -0.01183  -0.00427
  Beta virt. eigenvalues --   -0.00303   0.00108   0.00390   0.00810   0.00849

 Mulliken charges and spin densities:
               1          2
     1  Na  -0.037578  -0.084296
     2  Na   0.021129   0.577264
     3  Na   0.260012   0.089518
     4  Na  -0.102982  -0.121455
     5  Na   0.015041   0.023292
     6  Na  -0.042663  -0.065493
     7  Na  -0.112961   0.581170
 Sum of Mulliken charges =  -0.00000   1.00000

 Dipole moment (field-independent basis, Debye):
    X=              0.4136    Y=             -0.0016    Z=             -0.1216  Tot=              0.4311
 Quadrupole moment (field-independent basis, Debye-Ang):
   XX=            -56.7875   YY=            -63.3651   ZZ=            -73.4888
   XY=              0.1892   XZ=             -0.0112   YZ=             -0.7088

 Normal termination of Gaussian 16 at Fri Dec  8 01:23:54 2023.
