 Gaussian 16, Revision B.01,
 Gaussian 16:  ES64L-G16RevB.01 20-Dec-2017

 -------------------------
 #P B3LYP/6-311+g(d) force
 -------------------------

 -----
 DPGEN
 -----
 Symbolic Z-matrix:
 Charge =  0 Multiplicity = 2

                         Standard orientation:
 ---------------------------------------------------------------------
 Center     Atomic      Atomic             Coordinates (Angstroms)
 Number     Number       Type             X           Y           Z
 ---------------------------------------------------------------------
      1         11           0        2.353303    2.040286    0.220959
      2         11           0       -0.082545   -2.513196    0.601627
      3         11           0        3.333869   -1.051638   -0.327572
      4         11           0       -0.961675    0.351461    2.090028
      5         11           0       -1.732730    2.432747   -0.434570
      6         11           0       -3.009412   -1.021485   -0.672971
      7         11           0        0.099189   -0.238175   -1.477501
 ---------------------------------------------------------------------

 SCF Done:  E(UB3LYP) =  -1136.13305610     A.U. after   20 cycles

 The electronic state is 2-A.
 Alpha  occ. eigenvalues --  -38.44375 -38.44173 -38.44055 -38.43586 -38.43374
 Alpha  occ. eigenvalues --  -38.43324 -38.42960  -2.20225  -2.19986  -2.19852
 Alpha  occ. eigenvalues --   -2.19482  -2.19362  -2.19163  -2.18855  -1.13911
 Alpha  occ. eigenvalues --   -1.13872  -1.13852  -1.13668  -1.13658  -1.13625
 Alpha  occ. eigenvalues --   -1.13528  -1.13513  -1.13475  -1.13153  -1.13122
 Alpha  occ. eigenvalues --   -1.13097  -1.13084  -1.13019  -1.12980  -1.12837
 Alpha  occ. eigenvalues --   -1.12827  -1.12788  -1.12552  -1.12514  -1.12457
 Alpha  occ. eigenvalues --   -0.18498  -0.13398  -0.11925  -0.10872
 Alpha virt. eigenvalues --   -0.05981  -0.05462  -0.04131  -0.03237  -0.02863
 Alpha virt. eigenvalues --   -0.02560  -0.01892  -0.01126  -0.00422  -0.00253
 Alpha virt. eigenvalues --   -0.00001   0.00315   0.00712   0.00801   0.00864

  Beta  occ. eigenvalues --  -38.44351 -38.44173 -38.44055 -38.43491 -38.43328
  Beta  occ. eigenvalues --  -38.43316 -38.42942  -2.20185  -2.19987  -2.19855
  Beta  occ. eigenvalues --   -2.19307  -2.19279  -2.19152  -2.18827  -1.13872
  Beta  occ. eigenvalues --   -1.13841  -1.13820  -1.13670  -1.13651  -1.13627
  Beta  occ. eigenvalues --   -1.13521  -1.13515  -1.13477  -1.13047  -1.13017
  Beta  occ. eigenvalues --   -1.13003  -1.12972  -1.12963  -1.12910  -1.12820
  Beta  occ. eigenvalues --   -1.12810  -1.12771  -1.12536  -1.12460  -1.12442
  Beta  occ. eigenvalues --   -0.17788  -0.13190  -0.11712
  Beta virt. eigenvalues --   -0.06885  -0.05869  -0.05442  -0.04064  -0.02667
  Beta virt. eigenvalues --   -0.02116  -0.01803  -0.01456  -0.01101  -0.00399
  Beta virt. eigenvalues --   -0.00184   0.00115   0.00372   0.00809   0.00814

 Mulliken charges and spin densities:
               1          2
     1  Na  -0.162654  -0.059901
     2  Na  -0.045408   0.102421
     3  Na   0.188062  -0.015487
     4  Na  -0.237438   0.612039
     5  Na  -0.135825  -0.017276
     6  Na   0.341967   0.070805
     7  Na   0.051296   0.307399
 Sum of Mulliken charges =  -0.00000   1.00000

 Dipole moment (field-independent basis, Debye):
    X=              0.0734    Y=             -0.0188    Z=              0.0315  Tot=              0.0820
 Quadrupole moment (field-independent basis, Debye-Ang):
   XX=            -52.9290   YY=            -66.9322   ZZ=            -73.2816
   XY=             -0.0008   XZ=              1.6531   YZ=             -0.1886

 Normal termination of Gaussian 16 at Thu Dec  7 16:14:25 2023.
