 Gaussian 16, Revision B.01,
 Gaussian 16:  ES64L-G16RevB.01 20-Dec-2017

 -------------------------
 #P B3LYP/6-311+g(d) force
 -------------------------

 -----
 DPGEN
 -----
 Symbolic Z-matrix:
 Charge =  0 Multiplicity = 2

                         Standard orientation:
 ---------------------------------------------------------------------
 Center     Atomic      Atomic             Coordinates (Angstroms)
 Number     Number       Type             X           Y           Z
 ---------------------------------------------------------------------
      1         11           0       -0.170941    3.614234   -0.675422
      2         11           0       -3.652309   -1.466349   -0.482971
      3         11           0       -0.992283   -2.681279    1.231548
      4         11           0        1.861347   -3.323436   -0.415122
      5         11           0        3.680393   -0.433568   -0.939339
      6         11           0       -3.164226    1.798678   -0.080075
      7         11           0        2.438020    2.491720    1.361381
 ---------------------------------------------------------------------

 SCF Done:  E(UB3LYP) =  -1136.10894323     A.U. after   27 cycles

 The electronic state is 2-A.
 Alpha  occ. eigenvalues --  -38.44999 -38.44994 -38.44853 -38.44371 -38.44186
 Alpha  occ. eigenvalues --  -38.44117 -38.43704  -2.20767  -2.20751  -2.20639
 Alpha  occ. eigenvalues --   -2.20160  -2.19970  -2.19928  -2.19513  -1.14439
 Alpha  occ. eigenvalues --   -1.14434  -1.14425  -1.14418  -1.14392  -1.14388
 Alpha  occ. eigenvalues --   -1.14312  -1.14309  -1.14296  -1.13839  -1.13832
 Alpha  occ. eigenvalues --   -1.13804  -1.13626  -1.13610  -1.13601  -1.13584
 Alpha  occ. eigenvalues --   -1.13576  -1.13556  -1.13171  -1.13160  -1.13147
 Alpha  occ. eigenvalues --   -0.15711  -0.13586  -0.13476  -0.10217
 Alpha virt. eigenvalues --   -0.07655  -0.05090  -0.04563  -0.03556  -0.03161
 Alpha virt. eigenvalues --   -0.02257  -0.02160  -0.01582  -0.01402  -0.01069
 Alpha virt. eigenvalues --   -0.00574   0.00006   0.00190   0.00419   0.00677

  Beta  occ. eigenvalues --  -38.44992 -38.44951 -38.44860 -38.44363 -38.44128
  Beta  occ. eigenvalues --  -38.44071 -38.43652  -2.20753  -2.20682  -2.20656
  Beta  occ. eigenvalues --   -2.20150  -2.19863  -2.19842  -2.19415  -1.14441
  Beta  occ. eigenvalues --   -1.14431  -1.14383  -1.14364  -1.14356  -1.14329
  Beta  occ. eigenvalues --   -1.14325  -1.14311  -1.14275  -1.13834  -1.13829
  Beta  occ. eigenvalues --   -1.13768  -1.13553  -1.13538  -1.13528  -1.13526
  Beta  occ. eigenvalues --   -1.13517  -1.13501  -1.13103  -1.13094  -1.13085
  Beta  occ. eigenvalues --   -0.15254  -0.12919  -0.12848
  Beta virt. eigenvalues --   -0.07725  -0.07082  -0.04754  -0.04137  -0.03329
  Beta virt. eigenvalues --   -0.02699  -0.02084  -0.01894  -0.01409  -0.01318
  Beta virt. eigenvalues --   -0.00758  -0.00432   0.00306   0.00348   0.00439

 Mulliken charges and spin densities:
               1          2
     1  Na   0.053263  -0.022690
     2  Na   0.278280  -0.066277
     3  Na  -0.284025   0.280061
     4  Na   0.238309   0.023393
     5  Na  -0.132644   0.221553
     6  Na  -0.152772   0.278382
     7  Na  -0.000411   0.285577
 Sum of Mulliken charges =  -0.00000   1.00000

 Dipole moment (field-independent basis, Debye):
    X=              0.1257    Y=             -0.1395    Z=             -0.2996  Tot=              0.3535
 Quadrupole moment (field-independent basis, Debye-Ang):
   XX=            -65.7693   YY=            -67.7156   ZZ=            -68.4064
   XY=              3.2839   XZ=              1.4389   YZ=             -0.9522

 Normal termination of Gaussian 16 at Mon Dec  4 03:31:27 2023.
