 Gaussian 16, Revision B.01,
 Gaussian 16:  ES64L-G16RevB.01 20-Dec-2017

 -------------------------
 #P B3LYP/6-311+g(d) force
 -------------------------

 -----
 DPGEN
 -----
 Symbolic Z-matrix:
 Charge =  0 Multiplicity = 2

                         Standard orientation:
 ---------------------------------------------------------------------
 Center     Atomic      Atomic             Coordinates (Angstroms)
 Number     Number       Type             X           Y           Z
 ---------------------------------------------------------------------
      1         11           0        0.164998    0.068491   -1.909410
      2         11           0       -2.794499   -0.506218   -0.175913
      3         11           0       -0.332151   -2.438598    0.003624
      4         11           0       -0.329329    0.047727    1.984498
      5         11           0        2.010815    1.828518    0.113917
      6         11           0        2.505461   -1.252189    0.061292
      7         11           0       -1.225295    2.252268   -0.078009
 ---------------------------------------------------------------------

 SCF Done:  E(UB3LYP) =  -1136.13228794     A.U. after   17 cycles

 The electronic state is 2-A.
 Alpha  occ. eigenvalues --  -38.43798 -38.43663 -38.43567 -38.43432 -38.43249
 Alpha  occ. eigenvalues --  -38.43030 -38.42878  -2.19800  -2.19694  -2.19507
 Alpha  occ. eigenvalues --   -2.19370  -2.19186  -2.19004  -2.18872  -1.13490
 Alpha  occ. eigenvalues --   -1.13450  -1.13416  -1.13382  -1.13347  -1.13326
 Alpha  occ. eigenvalues --   -1.13183  -1.13173  -1.13150  -1.13073  -1.13061
 Alpha  occ. eigenvalues --   -1.13011  -1.12862  -1.12837  -1.12813  -1.12682
 Alpha  occ. eigenvalues --   -1.12667  -1.12609  -1.12552  -1.12526  -1.12492
 Alpha  occ. eigenvalues --   -0.19974  -0.13314  -0.12686  -0.11656
 Alpha virt. eigenvalues --   -0.05141  -0.04721  -0.04235  -0.03499  -0.03176
 Alpha virt. eigenvalues --   -0.03031  -0.01159  -0.00713  -0.00095   0.00335
 Alpha virt. eigenvalues --    0.00345   0.00404   0.00924   0.01039   0.01045

  Beta  occ. eigenvalues --  -38.43708 -38.43577 -38.43560 -38.43428 -38.43243
  Beta  occ. eigenvalues --  -38.43020 -38.42868  -2.19634  -2.19536  -2.19498
  Beta  occ. eigenvalues --   -2.19366  -2.19179  -2.18991  -2.18859  -1.13389
  Beta  occ. eigenvalues --   -1.13330  -1.13301  -1.13285  -1.13234  -1.13222
  Beta  occ. eigenvalues --   -1.13176  -1.13164  -1.13107  -1.13075  -1.13055
  Beta  occ. eigenvalues --   -1.12977  -1.12859  -1.12814  -1.12800  -1.12677
  Beta  occ. eigenvalues --   -1.12614  -1.12607  -1.12547  -1.12491  -1.12471
  Beta  occ. eigenvalues --   -0.19162  -0.13038  -0.12383
  Beta virt. eigenvalues --   -0.07618  -0.05112  -0.04728  -0.04247  -0.02628
  Beta virt. eigenvalues --   -0.02291  -0.01922  -0.01085  -0.00664   0.00058
  Beta virt. eigenvalues --    0.00282   0.00302   0.00398   0.00992   0.01014

 Mulliken charges and spin densities:
               1          2
     1  Na  -0.932125   0.518347
     2  Na   0.347128  -0.036660
     3  Na   0.514582   0.024833
     4  Na  -0.981469   0.572026
     5  Na   0.342094  -0.027595
     6  Na   0.166119  -0.040964
     7  Na   0.543671  -0.009986
 Sum of Mulliken charges =  -0.00000   1.00000

 Dipole moment (field-independent basis, Debye):
    X=             -0.0295    Y=              0.0683    Z=              0.0655  Tot=              0.0991
 Quadrupole moment (field-independent basis, Debye-Ang):
   XX=            -59.6205   YY=            -67.1153   ZZ=            -69.3686
   XY=              0.1459   XZ=              1.0135   YZ=              0.1031

 Normal termination of Gaussian 16 at Fri Dec  8 18:45:51 2023.
