 Gaussian 16, Revision B.01,
 Gaussian 16:  ES64L-G16RevB.01 20-Dec-2017

 -------------------------
 #P B3LYP/6-311+g(d) force
 -------------------------

 -----
 DPGEN
 -----
 Symbolic Z-matrix:
 Charge =  0 Multiplicity = 2

                         Standard orientation:
 ---------------------------------------------------------------------
 Center     Atomic      Atomic             Coordinates (Angstroms)
 Number     Number       Type             X           Y           Z
 ---------------------------------------------------------------------
      1         11           0       -0.599417   -2.780478   -0.180735
      2         11           0        0.198423    0.212819   -1.773328
      3         11           0       -3.317370   -0.287048    0.151692
      4         11           0        2.055205    2.257412    0.214891
      5         11           0       -1.329350    2.425975   -0.093760
      6         11           0        2.638793   -1.500510   -0.181268
      7         11           0        0.353715   -0.328170    1.862509
 ---------------------------------------------------------------------

 SCF Done:  E(UB3LYP) =  -1136.13890809     A.U. after   19 cycles

 The electronic state is 2-A.
 Alpha  occ. eigenvalues --  -38.43921 -38.43852 -38.43570 -38.43533 -38.43362
 Alpha  occ. eigenvalues --  -38.43362 -38.43230  -2.19721  -2.19717  -2.19426
 Alpha  occ. eigenvalues --   -2.19392  -2.19300  -2.19248  -2.19201  -1.13408
 Alpha  occ. eigenvalues --   -1.13397  -1.13391  -1.13382  -1.13362  -1.13348
 Alpha  occ. eigenvalues --   -1.13112  -1.13098  -1.13094  -1.13072  -1.13068
 Alpha  occ. eigenvalues --   -1.13008  -1.12995  -1.12964  -1.12927  -1.12911
 Alpha  occ. eigenvalues --   -1.12901  -1.12863  -1.12859  -1.12812  -1.12806
 Alpha  occ. eigenvalues --   -0.18808  -0.12915  -0.12675  -0.10698
 Alpha virt. eigenvalues --   -0.05563  -0.05198  -0.04740  -0.03103  -0.02951
 Alpha virt. eigenvalues --   -0.02456  -0.01470  -0.01195  -0.00358  -0.00227
 Alpha virt. eigenvalues --   -0.00001   0.00357   0.00827   0.00882   0.00910

  Beta  occ. eigenvalues --  -38.43922 -38.43844 -38.43563 -38.43526 -38.43356
  Beta  occ. eigenvalues --  -38.43282 -38.43152  -2.19722  -2.19709  -2.19417
  Beta  occ. eigenvalues --   -2.19383  -2.19241  -2.19152  -2.19058  -1.13402
  Beta  occ. eigenvalues --   -1.13395  -1.13374  -1.13366  -1.13357  -1.13342
  Beta  occ. eigenvalues --   -1.13106  -1.13084  -1.13070  -1.13057  -1.13038
  Beta  occ. eigenvalues --   -1.13005  -1.12967  -1.12886  -1.12869  -1.12862
  Beta  occ. eigenvalues --   -1.12817  -1.12805  -1.12769  -1.12716  -1.12709
  Beta  occ. eigenvalues --   -0.18068  -0.12680  -0.12440
  Beta virt. eigenvalues --   -0.06776  -0.05529  -0.05191  -0.04694  -0.02299
  Beta virt. eigenvalues --   -0.02199  -0.01446  -0.01354  -0.01127  -0.00406
  Beta virt. eigenvalues --   -0.00274   0.00133   0.00379   0.00853   0.00897

 Mulliken charges and spin densities:
               1          2
     1  Na   0.062712  -0.082455
     2  Na  -0.167081   0.617773
     3  Na  -0.124061  -0.090321
     4  Na   0.164576  -0.085882
     5  Na   0.130676  -0.055229
     6  Na   0.321573  -0.098072
     7  Na  -0.388395   0.794187
 Sum of Mulliken charges =  -0.00000   1.00000

 Dipole moment (field-independent basis, Debye):
    X=              0.1483    Y=             -0.1457    Z=              0.0565  Tot=              0.2155
 Quadrupole moment (field-independent basis, Debye-Ang):
   XX=            -56.5445   YY=            -62.1470   ZZ=            -74.5818
   XY=              0.6145   XZ=             -0.4510   YZ=              1.1893

 Normal termination of Gaussian 16 at Fri Dec  8 02:19:37 2023.
