 Gaussian 16, Revision B.01,
 Gaussian 16:  ES64L-G16RevB.01 20-Dec-2017

 -------------------------
 #P B3LYP/6-311+g(d) force
 -------------------------

 -----
 DPGEN
 -----
 Symbolic Z-matrix:
 Charge =  0 Multiplicity = 2

                         Standard orientation:
 ---------------------------------------------------------------------
 Center     Atomic      Atomic             Coordinates (Angstroms)
 Number     Number       Type             X           Y           Z
 ---------------------------------------------------------------------
      1         11           0        1.785947    0.174667   -1.110144
      2         11           0       -1.553355    1.356600   -0.827030
      3         11           0        0.366296    0.502455    1.880026
      4         11           0        2.371360   -2.719401    0.333205
      5         11           0        1.280900    3.202029    0.095564
      6         11           0       -3.654007   -0.803396    0.368065
      7         11           0       -0.597142   -1.712954   -0.739685
 ---------------------------------------------------------------------

 SCF Done:  E(UB3LYP) =  -1136.13246428     A.U. after   19 cycles

 The electronic state is 2-A.
 Alpha  occ. eigenvalues --  -38.43962 -38.43797 -38.43615 -38.43545 -38.43342
 Alpha  occ. eigenvalues --  -38.43140 -38.43123  -2.19786  -2.19629  -2.19473
 Alpha  occ. eigenvalues --   -2.19461  -2.19294  -2.19136  -2.19121  -1.13465
 Alpha  occ. eigenvalues --   -1.13440  -1.13430  -1.13308  -1.13289  -1.13271
 Alpha  occ. eigenvalues --   -1.13182  -1.13152  -1.13142  -1.13122  -1.13091
 Alpha  occ. eigenvalues --   -1.13047  -1.13042  -1.12961  -1.12943  -1.12880
 Alpha  occ. eigenvalues --   -1.12799  -1.12785  -1.12769  -1.12720  -1.12665
 Alpha  occ. eigenvalues --   -0.18893  -0.13032  -0.12827  -0.10409
 Alpha virt. eigenvalues --   -0.05968  -0.04979  -0.04563  -0.02950  -0.02918
 Alpha virt. eigenvalues --   -0.02149  -0.01667  -0.01580  -0.00312  -0.00234
 Alpha virt. eigenvalues --    0.00182   0.00409   0.00770   0.00819   0.00857

  Beta  occ. eigenvalues --  -38.43963 -38.43796 -38.43612 -38.43461 -38.43316
  Beta  occ. eigenvalues --  -38.43116 -38.43082  -2.19788  -2.19630  -2.19471
  Beta  occ. eigenvalues --   -2.19306  -2.19252  -2.19092  -2.19056  -1.13467
  Beta  occ. eigenvalues --   -1.13441  -1.13423  -1.13309  -1.13288  -1.13260
  Beta  occ. eigenvalues --   -1.13157  -1.13136  -1.13103  -1.13072  -1.13006
  Beta  occ. eigenvalues --   -1.12982  -1.12946  -1.12909  -1.12891  -1.12853
  Beta  occ. eigenvalues --   -1.12758  -1.12730  -1.12698  -1.12675  -1.12631
  Beta  occ. eigenvalues --   -0.18117  -0.12895  -0.12621
  Beta virt. eigenvalues --   -0.06436  -0.05806  -0.04917  -0.04555  -0.02385
  Beta virt. eigenvalues --   -0.02244  -0.01575  -0.01490  -0.01173  -0.00294
  Beta virt. eigenvalues --   -0.00015   0.00223   0.00498   0.00794   0.00854

 Mulliken charges and spin densities:
               1          2
     1  Na  -0.070386   0.199483
     2  Na  -0.077300   0.102719
     3  Na  -0.754159   0.727503
     4  Na   0.242842  -0.084067
     5  Na   0.638236  -0.034235
     6  Na   0.352609  -0.059541
     7  Na  -0.331842   0.148139
 Sum of Mulliken charges =  -0.00000   1.00000

 Dipole moment (field-independent basis, Debye):
    X=             -0.0561    Y=             -0.0231    Z=              0.3204  Tot=              0.3261
 Quadrupole moment (field-independent basis, Debye-Ang):
   XX=            -56.7112   YY=            -58.6421   ZZ=            -74.8283
   XY=              0.2611   XZ=             -0.9162   YZ=             -2.1909

 Normal termination of Gaussian 16 at Tue Dec  5 15:28:49 2023.
