 Gaussian 16, Revision B.01,
 Gaussian 16:  ES64L-G16RevB.01 20-Dec-2017

 -------------------------
 #P B3LYP/6-311+g(d) force
 -------------------------

 -----
 DPGEN
 -----
 Symbolic Z-matrix:
 Charge =  0 Multiplicity = 2

                         Standard orientation:
 ---------------------------------------------------------------------
 Center     Atomic      Atomic             Coordinates (Angstroms)
 Number     Number       Type             X           Y           Z
 ---------------------------------------------------------------------
      1         11           0       -2.820530    1.754138   -0.307138
      2         11           0        0.528921    2.418287   -0.538902
      3         11           0       -3.799558   -1.057376    0.440660
      4         11           0        5.353205   -0.008807    0.553614
      5         11           0       -1.033601   -1.737195   -1.476651
      6         11           0        2.640790   -0.936599   -0.638778
      7         11           0       -0.869228   -0.432448    1.967195
 ---------------------------------------------------------------------

 SCF Done:  E(UB3LYP) =  -1136.10920188     A.U. after   28 cycles

 The electronic state is 2-A.
 Alpha  occ. eigenvalues --  -38.47581 -38.44541 -38.44100 -38.43797 -38.43684
 Alpha  occ. eigenvalues --  -38.43300 -38.42779  -2.23355  -2.20362  -2.19925
 Alpha  occ. eigenvalues --   -2.19707  -2.19566  -2.19118  -2.18577  -1.17026
 Alpha  occ. eigenvalues --   -1.17016  -1.16981  -1.14032  -1.14014  -1.13985
 Alpha  occ. eigenvalues --   -1.13583  -1.13552  -1.13547  -1.13452  -1.13367
 Alpha  occ. eigenvalues --   -1.13318  -1.13239  -1.13201  -1.13170  -1.12808
 Alpha  occ. eigenvalues --   -1.12786  -1.12775  -1.12259  -1.12235  -1.12204
 Alpha  occ. eigenvalues --   -0.17865  -0.14002  -0.11113  -0.11078
 Alpha virt. eigenvalues --   -0.07906  -0.04843  -0.04604  -0.03284  -0.03141
 Alpha virt. eigenvalues --   -0.02411  -0.01933  -0.01665  -0.01433  -0.00809
 Alpha virt. eigenvalues --   -0.00370   0.00085   0.00132   0.00553   0.00637

  Beta  occ. eigenvalues --  -38.47575 -38.44496 -38.44012 -38.43767 -38.43655
  Beta  occ. eigenvalues --  -38.43299 -38.42768  -2.23347  -2.20280  -2.19761
  Beta  occ. eigenvalues --   -2.19652  -2.19515  -2.19126  -2.18556  -1.17016
  Beta  occ. eigenvalues --   -1.16996  -1.16981  -1.13974  -1.13957  -1.13923
  Beta  occ. eigenvalues --   -1.13477  -1.13440  -1.13435  -1.13407  -1.13330
  Beta  occ. eigenvalues --   -1.13274  -1.13205  -1.13172  -1.13116  -1.12819
  Beta  occ. eigenvalues --   -1.12796  -1.12722  -1.12242  -1.12218  -1.12194
  Beta  occ. eigenvalues --   -0.17338  -0.13184  -0.10909
  Beta virt. eigenvalues --   -0.07737  -0.07605  -0.04509  -0.04111  -0.03081
  Beta virt. eigenvalues --   -0.02931  -0.02188  -0.01826  -0.01138  -0.00977
  Beta virt. eigenvalues --   -0.00448  -0.00235   0.00172   0.00203   0.00607

 Mulliken charges and spin densities:
               1          2
     1  Na  -0.214643   0.195778
     2  Na  -0.166496   0.000239
     3  Na   0.905992   0.159534
     4  Na   0.849298   0.434437
     5  Na  -0.225166  -0.109532
     6  Na  -0.953330   0.349302
     7  Na  -0.195655  -0.029758
 Sum of Mulliken charges =  -0.00000   1.00000

 Dipole moment (field-independent basis, Debye):
    X=             -1.0447    Y=             -0.4363    Z=              1.1459  Tot=              1.6108
 Quadrupole moment (field-independent basis, Debye-Ang):
   XX=            -65.8894   YY=            -80.4713   ZZ=            -59.0717
   XY=              4.1901   XZ=              3.2933   YZ=             -0.6488

 Normal termination of Gaussian 16 at Fri Dec  8 02:11:53 2023.
