 Gaussian 16, Revision B.01,
 Gaussian 16:  ES64L-G16RevB.01 20-Dec-2017

 -------------------------
 #P B3LYP/6-311+g(d) force
 -------------------------

 -----
 DPGEN
 -----
 Symbolic Z-matrix:
 Charge =  0 Multiplicity = 2

                         Standard orientation:
 ---------------------------------------------------------------------
 Center     Atomic      Atomic             Coordinates (Angstroms)
 Number     Number       Type             X           Y           Z
 ---------------------------------------------------------------------
      1         11           0        3.917255    1.386342   -0.216582
      2         11           0       -0.835387   -0.808728    2.124114
      3         11           0       -2.388398    2.208902    0.596063
      4         11           0       -0.293406   -1.760066   -1.409478
      5         11           0        0.016718    1.436771   -1.030318
      6         11           0        2.804047   -1.544359    0.571744
      7         11           0       -3.220830   -0.918863   -0.635544
 ---------------------------------------------------------------------

 SCF Done:  E(UB3LYP) =  -1136.11674325     A.U. after   24 cycles

 The electronic state is 2-A.
 Alpha  occ. eigenvalues --  -38.45382 -38.44893 -38.44376 -38.44235 -38.44005
 Alpha  occ. eigenvalues --  -38.43184 -38.43027  -2.21231  -2.20661  -2.20181
 Alpha  occ. eigenvalues --   -2.20071  -2.19894  -2.19056  -2.18935  -1.14916
 Alpha  occ. eigenvalues --   -1.14886  -1.14859  -1.14343  -1.14326  -1.14302
 Alpha  occ. eigenvalues --   -1.13858  -1.13837  -1.13817  -1.13741  -1.13708
 Alpha  occ. eigenvalues --   -1.13677  -1.13607  -1.13576  -1.13505  -1.12744
 Alpha  occ. eigenvalues --   -1.12702  -1.12686  -1.12633  -1.12583  -1.12548
 Alpha  occ. eigenvalues --   -0.18254  -0.13828  -0.11347  -0.11079
 Alpha virt. eigenvalues --   -0.07239  -0.05693  -0.03784  -0.03360  -0.02893
 Alpha virt. eigenvalues --   -0.02628  -0.02410  -0.01463  -0.00576  -0.00416
 Alpha virt. eigenvalues --    0.00035   0.00096   0.00276   0.00572   0.00681

  Beta  occ. eigenvalues --  -38.45367 -38.44901 -38.44368 -38.44145 -38.43970
  Beta  occ. eigenvalues --  -38.43176 -38.42987  -2.21206  -2.20676  -2.20167
  Beta  occ. eigenvalues --   -2.19904  -2.19832  -2.19044  -2.18865  -1.14889
  Beta  occ. eigenvalues --   -1.14853  -1.14844  -1.14353  -1.14336  -1.14310
  Beta  occ. eigenvalues --   -1.13841  -1.13828  -1.13808  -1.13628  -1.13597
  Beta  occ. eigenvalues --   -1.13554  -1.13549  -1.13539  -1.13457  -1.12735
  Beta  occ. eigenvalues --   -1.12695  -1.12661  -1.12584  -1.12536  -1.12478
  Beta  occ. eigenvalues --   -0.17515  -0.13725  -0.11115
  Beta virt. eigenvalues --   -0.07151  -0.07090  -0.05503  -0.03364  -0.03045
  Beta virt. eigenvalues --   -0.02667  -0.02080  -0.01592  -0.01350  -0.00476
  Beta virt. eigenvalues --   -0.00180   0.00052   0.00149   0.00452   0.00611

 Mulliken charges and spin densities:
               1          2
     1  Na   0.088020  -0.107485
     2  Na  -0.447016   0.479354
     3  Na   0.578645   0.051849
     4  Na   0.195033   0.138131
     5  Na  -0.867443   0.198489
     6  Na   0.132690   0.156162
     7  Na   0.320070   0.083501
 Sum of Mulliken charges =  -0.00000   1.00000

 Dipole moment (field-independent basis, Debye):
    X=              0.0509    Y=             -0.2883    Z=              0.1691  Tot=              0.3381
 Quadrupole moment (field-independent basis, Debye-Ang):
   XX=            -47.8617   YY=            -74.2028   ZZ=            -72.5803
   XY=              2.1427   XZ=              0.7020   YZ=             -0.0516

 Normal termination of Gaussian 16 at Tue Dec  5 21:56:56 2023.
