 Gaussian 16, Revision B.01,
 Gaussian 16:  ES64L-G16RevB.01 20-Dec-2017

 -------------------------
 #P B3LYP/6-311+g(d) force
 -------------------------

 -----
 DPGEN
 -----
 Symbolic Z-matrix:
 Charge =  0 Multiplicity = 2

                         Standard orientation:
 ---------------------------------------------------------------------
 Center     Atomic      Atomic             Coordinates (Angstroms)
 Number     Number       Type             X           Y           Z
 ---------------------------------------------------------------------
      1         11           0       -2.852461   -1.425593   -0.574765
      2         11           0       -7.936818    2.666202   -0.112056
      3         11           0       -6.423868   -0.279155    0.297335
      4         11           0       -0.192718   -2.291670    0.936529
      5         11           0        8.020478    2.386675    0.467339
      6         11           0        2.855875   -0.712018   -0.663320
      7         11           0        6.529511   -0.344441   -0.351061
 ---------------------------------------------------------------------

 SCF Done:  E(UB3LYP) =  -1136.10573269     A.U. after   19 cycles

 The electronic state is 2-A.
 Alpha  occ. eigenvalues --  -38.44935 -38.44855 -38.44812 -38.44559 -38.44540
 Alpha  occ. eigenvalues --  -38.44246 -38.44097  -2.20712  -2.20624  -2.20606
 Alpha  occ. eigenvalues --   -2.20362  -2.20316  -2.20004  -2.19878  -1.14369
 Alpha  occ. eigenvalues --   -1.14367  -1.14307  -1.14277  -1.14277  -1.14252
 Alpha  occ. eigenvalues --   -1.14248  -1.14247  -1.14242  -1.14077  -1.14019
 Alpha  occ. eigenvalues --   -1.14011  -1.13988  -1.13966  -1.13918  -1.13686
 Alpha  occ. eigenvalues --   -1.13680  -1.13646  -1.13556  -1.13549  -1.13534
 Alpha  occ. eigenvalues --   -0.15018  -0.14110  -0.12948  -0.11264
 Alpha virt. eigenvalues --   -0.07308  -0.05180  -0.04530  -0.03290  -0.02980
 Alpha virt. eigenvalues --   -0.02810  -0.02368  -0.02241  -0.01644  -0.01153
 Alpha virt. eigenvalues --   -0.00933  -0.00447  -0.00301   0.00111   0.00343

  Beta  occ. eigenvalues --  -38.44843 -38.44810 -38.44743 -38.44560 -38.44505
  Beta  occ. eigenvalues --  -38.44260 -38.44110  -2.20542  -2.20540  -2.20477
  Beta  occ. eigenvalues --   -2.20359  -2.20262  -2.20034  -2.19907  -1.14252
  Beta  occ. eigenvalues --   -1.14249  -1.14220  -1.14219  -1.14200  -1.14198
  Beta  occ. eigenvalues --   -1.14162  -1.14159  -1.14157  -1.14063  -1.14026
  Beta  occ. eigenvalues --   -1.13989  -1.13945  -1.13937  -1.13886  -1.13709
  Beta  occ. eigenvalues --   -1.13703  -1.13643  -1.13581  -1.13573  -1.13512
  Beta  occ. eigenvalues --   -0.14436  -0.13487  -0.12535
  Beta virt. eigenvalues --   -0.08197  -0.06690  -0.04745  -0.04391  -0.03125
  Beta virt. eigenvalues --   -0.02764  -0.02582  -0.02163  -0.02041  -0.01472
  Beta virt. eigenvalues --   -0.00800  -0.00492  -0.00336  -0.00003   0.00198

 Mulliken charges and spin densities:
               1          2
     1  Na  -0.324955   0.262682
     2  Na   0.142523   0.210524
     3  Na  -0.169537  -0.060598
     4  Na   0.406337  -0.081386
     5  Na   0.248685   0.334036
     6  Na  -0.405630   0.442447
     7  Na   0.102576  -0.107705
 Sum of Mulliken charges =  -0.00000   1.00000

 Dipole moment (field-independent basis, Debye):
    X=             -0.0034    Y=              0.8756    Z=              0.0906  Tot=              0.8802
 Quadrupole moment (field-independent basis, Debye-Ang):
   XX=            -60.5061   YY=            -59.9640   ZZ=            -71.8199
   XY=             -1.4887   XZ=              2.8467   YZ=             -1.2633

 Normal termination of Gaussian 16 at Sun Dec  3 13:08:01 2023.
