 Gaussian 16, Revision B.01,
 Gaussian 16:  ES64L-G16RevB.01 20-Dec-2017

 -------------------------
 #P B3LYP/6-311+g(d) force
 -------------------------

 -----
 DPGEN
 -----
 Symbolic Z-matrix:
 Charge =  0 Multiplicity = 2

                         Standard orientation:
 ---------------------------------------------------------------------
 Center     Atomic      Atomic             Coordinates (Angstroms)
 Number     Number       Type             X           Y           Z
 ---------------------------------------------------------------------
      1         11           0       -0.034790    3.104138    0.114116
      2         11           0        0.243356   -0.114004   -1.799238
      3         11           0        3.082853    0.890619   -0.081458
      4         11           0       -0.302476   -0.156906    1.893037
      5         11           0        1.598116   -2.389760    0.272416
      6         11           0       -1.652026   -2.146408   -0.265401
      7         11           0       -2.935033    0.812319   -0.133472
 ---------------------------------------------------------------------

 SCF Done:  E(UB3LYP) =  -1136.13807027     A.U. after   19 cycles

 The electronic state is 2-A.
 Alpha  occ. eigenvalues --  -38.44012 -38.43756 -38.43708 -38.43431 -38.43381
 Alpha  occ. eigenvalues --  -38.43343 -38.43198  -2.19811  -2.19565  -2.19547
 Alpha  occ. eigenvalues --   -2.19375  -2.19301  -2.19274  -2.19158  -1.13493
 Alpha  occ. eigenvalues --   -1.13470  -1.13449  -1.13258  -1.13232  -1.13227
 Alpha  occ. eigenvalues --   -1.13223  -1.13200  -1.13174  -1.13091  -1.13023
 Alpha  occ. eigenvalues --   -1.13012  -1.13003  -1.12959  -1.12943  -1.12925
 Alpha  occ. eigenvalues --   -1.12915  -1.12889  -1.12810  -1.12799  -1.12767
 Alpha  occ. eigenvalues --   -0.18885  -0.12909  -0.12593  -0.10847
 Alpha virt. eigenvalues --   -0.05609  -0.04957  -0.04835  -0.03136  -0.02970
 Alpha virt. eigenvalues --   -0.02562  -0.01386  -0.01115  -0.00423  -0.00195
 Alpha virt. eigenvalues --    0.00001   0.00367   0.00834   0.00897   0.00926

  Beta  occ. eigenvalues --  -38.44011 -38.43755 -38.43704 -38.43371 -38.43347
  Beta  occ. eigenvalues --  -38.43266 -38.43184  -2.19812  -2.19560  -2.19547
  Beta  occ. eigenvalues --   -2.19260  -2.19220  -2.19162  -2.19137  -1.13482
  Beta  occ. eigenvalues --   -1.13467  -1.13454  -1.13256  -1.13224  -1.13214
  Beta  occ. eigenvalues --   -1.13201  -1.13199  -1.13177  -1.13024  -1.12947
  Beta  occ. eigenvalues --   -1.12933  -1.12912  -1.12896  -1.12894  -1.12854
  Beta  occ. eigenvalues --   -1.12843  -1.12810  -1.12781  -1.12759  -1.12731
  Beta  occ. eigenvalues --   -0.18123  -0.12672  -0.12352
  Beta virt. eigenvalues --   -0.06893  -0.05609  -0.04916  -0.04800  -0.02354
  Beta virt. eigenvalues --   -0.02191  -0.01515  -0.01304  -0.01033  -0.00466
  Beta virt. eigenvalues --   -0.00249   0.00130   0.00390   0.00852   0.00909

 Mulliken charges and spin densities:
               1          2
     1  Na  -0.121725  -0.147187
     2  Na  -0.259279   0.610893
     3  Na  -0.066159  -0.137209
     4  Na  -0.370560   0.718389
     5  Na   0.256234  -0.021898
     6  Na   0.529147   0.075919
     7  Na   0.032343  -0.098907
 Sum of Mulliken charges =  -0.00000   1.00000

 Dipole moment (field-independent basis, Debye):
    X=              0.1944    Y=              0.2788    Z=              0.0539  Tot=              0.3441
 Quadrupole moment (field-independent basis, Debye-Ang):
   XX=            -58.0068   YY=            -61.8186   ZZ=            -73.8265
   XY=             -0.4239   XZ=              1.1689   YZ=              0.0416

 Normal termination of Gaussian 16 at Thu Dec  7 03:02:10 2023.
