 Gaussian 16, Revision B.01,
 Gaussian 16:  ES64L-G16RevB.01 20-Dec-2017

 -------------------------
 #P B3LYP/6-311+g(d) force
 -------------------------

 -----
 DPGEN
 -----
 Symbolic Z-matrix:
 Charge =  0 Multiplicity = 2

                         Standard orientation:
 ---------------------------------------------------------------------
 Center     Atomic      Atomic             Coordinates (Angstroms)
 Number     Number       Type             X           Y           Z
 ---------------------------------------------------------------------
      1         11           0        0.107892   -2.837777   -0.102589
      2         11           0        3.576789   -1.909189    1.248995
      3         11           0        1.557113    3.223369   -0.384807
      4         11           0        4.132326    0.705595   -0.868896
      5         11           0       -4.373706    0.714241    0.329275
      6         11           0       -2.963456   -2.736405   -0.778647
      7         11           0       -2.036958    2.840166    0.556668
 ---------------------------------------------------------------------

 SCF Done:  E(UB3LYP) =  -1136.10865423     A.U. after   21 cycles

 The electronic state is 2-A.
 Alpha  occ. eigenvalues --  -38.45424 -38.44702 -38.44699 -38.44357 -38.44316
 Alpha  occ. eigenvalues --  -38.44089 -38.44076  -2.21180  -2.20503  -2.20482
 Alpha  occ. eigenvalues --   -2.20155  -2.20096  -2.19883  -2.19870  -1.14866
 Alpha  occ. eigenvalues --   -1.14846  -1.14826  -1.14182  -1.14162  -1.14156
 Alpha  occ. eigenvalues --   -1.14156  -1.14130  -1.14126  -1.13806  -1.13795
 Alpha  occ. eigenvalues --   -1.13786  -1.13773  -1.13767  -1.13740  -1.13544
 Alpha  occ. eigenvalues --   -1.13535  -1.13529  -1.13520  -1.13513  -1.13488
 Alpha  occ. eigenvalues --   -0.15575  -0.14077  -0.13221  -0.10900
 Alpha virt. eigenvalues --   -0.07597  -0.04947  -0.04415  -0.03553  -0.03523
 Alpha virt. eigenvalues --   -0.02377  -0.02310  -0.01625  -0.01274  -0.00864
 Alpha virt. eigenvalues --   -0.00788  -0.00409   0.00138   0.00465   0.00648

  Beta  occ. eigenvalues --  -38.45425 -38.44682 -38.44647 -38.44314 -38.44294
  Beta  occ. eigenvalues --  -38.44043 -38.44024  -2.21188  -2.20452  -2.20409
  Beta  occ. eigenvalues --   -2.20100  -2.20039  -2.19827  -2.19748  -1.14876
  Beta  occ. eigenvalues --   -1.14855  -1.14794  -1.14142  -1.14138  -1.14114
  Beta  occ. eigenvalues --   -1.14093  -1.14080  -1.14060  -1.13780  -1.13774
  Beta  occ. eigenvalues --   -1.13726  -1.13717  -1.13711  -1.13706  -1.13500
  Beta  occ. eigenvalues --   -1.13497  -1.13471  -1.13447  -1.13439  -1.13409
  Beta  occ. eigenvalues --   -0.15042  -0.13355  -0.12438
  Beta virt. eigenvalues --   -0.07829  -0.07705  -0.04497  -0.03955  -0.03329
  Beta virt. eigenvalues --   -0.03263  -0.02149  -0.02103  -0.01352  -0.01005
  Beta virt. eigenvalues --   -0.00669  -0.00536  -0.00181   0.00261   0.00526

 Mulliken charges and spin densities:
               1          2
     1  Na  -0.668472   0.179148
     2  Na   0.154314   0.328208
     3  Na  -0.159588   0.340913
     4  Na   0.083034  -0.007082
     5  Na   0.101289   0.200542
     6  Na   0.346546  -0.009373
     7  Na   0.142877  -0.032357
 Sum of Mulliken charges =  -0.00000   1.00000

 Dipole moment (field-independent basis, Debye):
    X=              0.2426    Y=             -0.3483    Z=             -0.0445  Tot=              0.4268
 Quadrupole moment (field-independent basis, Debye-Ang):
   XX=            -55.4362   YY=            -73.6014   ZZ=            -70.5944
   XY=              2.8812   XZ=             -0.5525   YZ=             -0.8244

 Normal termination of Gaussian 16 at Sun Dec  3 18:25:34 2023.
