 Gaussian 16, Revision B.01,
 Gaussian 16:  ES64L-G16RevB.01 20-Dec-2017

 -------------------------
 #P B3LYP/6-311+g(d) force
 -------------------------

 -----
 DPGEN
 -----
 Symbolic Z-matrix:
 Charge =  0 Multiplicity = 2

                         Standard orientation:
 ---------------------------------------------------------------------
 Center     Atomic      Atomic             Coordinates (Angstroms)
 Number     Number       Type             X           Y           Z
 ---------------------------------------------------------------------
      1         11           0        1.906819   -2.384646    0.226584
      2         11           0       -0.230644    0.146487    2.170670
      3         11           0        0.799335    2.903975    0.265787
      4         11           0       -3.055763    1.277840   -0.510599
      5         11           0       -0.031415   -0.155869   -1.528210
      6         11           0       -2.442196   -2.114091   -0.028053
      7         11           0        3.053865    0.326303   -0.596178
 ---------------------------------------------------------------------

 SCF Done:  E(UB3LYP) =  -1136.13298533     A.U. after   20 cycles

 The electronic state is 2-A.
 Alpha  occ. eigenvalues --  -38.44551 -38.44059 -38.43927 -38.43781 -38.43484
 Alpha  occ. eigenvalues --  -38.43473 -38.43005  -2.20349  -2.19865  -2.19818
 Alpha  occ. eigenvalues --   -2.19638  -2.19425  -2.19339  -2.18825  -1.14030
 Alpha  occ. eigenvalues --   -1.14000  -1.13980  -1.13546  -1.13527  -1.13525
 Alpha  occ. eigenvalues --   -1.13500  -1.13495  -1.13440  -1.13300  -1.13265
 Alpha  occ. eigenvalues --   -1.13254  -1.13122  -1.13066  -1.13061  -1.13004
 Alpha  occ. eigenvalues --   -1.12986  -1.12972  -1.12499  -1.12487  -1.12469
 Alpha  occ. eigenvalues --   -0.18306  -0.13418  -0.11873  -0.10825
 Alpha virt. eigenvalues --   -0.05863  -0.05472  -0.04394  -0.03354  -0.02785
 Alpha virt. eigenvalues --   -0.02648  -0.01800  -0.01211  -0.00515  -0.00316
 Alpha virt. eigenvalues --   -0.00031   0.00325   0.00692   0.00788   0.00890

  Beta  occ. eigenvalues --  -38.44538 -38.44058 -38.43913 -38.43677 -38.43482
  Beta  occ. eigenvalues --  -38.43428 -38.43002  -2.20325  -2.19865  -2.19794
  Beta  occ. eigenvalues --   -2.19445  -2.19345  -2.19337  -2.18822  -1.14001
  Beta  occ. eigenvalues --   -1.13986  -1.13963  -1.13542  -1.13523  -1.13512
  Beta  occ. eigenvalues --   -1.13491  -1.13468  -1.13420  -1.13173  -1.13133
  Beta  occ. eigenvalues --   -1.13111  -1.13062  -1.13024  -1.13005  -1.12999
  Beta  occ. eigenvalues --   -1.12964  -1.12955  -1.12494  -1.12473  -1.12466
  Beta  occ. eigenvalues --   -0.17611  -0.13157  -0.11669
  Beta virt. eigenvalues --   -0.06940  -0.05788  -0.05416  -0.04306  -0.02672
  Beta virt. eigenvalues --   -0.02044  -0.01673  -0.01631  -0.01147  -0.00510
  Beta virt. eigenvalues --   -0.00334   0.00113   0.00378   0.00775   0.00813

 Mulliken charges and spin densities:
               1          2
     1  Na   0.028612   0.060769
     2  Na  -0.427619   0.722479
     3  Na  -0.006221  -0.018743
     4  Na   0.092475   0.010985
     5  Na  -0.073793   0.153877
     6  Na   0.043353   0.012377
     7  Na   0.343193   0.058255
 Sum of Mulliken charges =  -0.00000   1.00000

 Dipole moment (field-independent basis, Debye):
    X=             -0.5841    Y=             -0.0822    Z=              0.0439  Tot=              0.5915
 Quadrupole moment (field-independent basis, Debye-Ang):
   XX=            -55.4351   YY=            -64.5089   ZZ=            -73.9883
   XY=             -0.2257   XZ=              0.0331   YZ=             -1.4522

 Normal termination of Gaussian 16 at Thu Dec  7 22:35:19 2023.
