 Gaussian 16, Revision B.01,
 Gaussian 16:  ES64L-G16RevB.01 20-Dec-2017

 -------------------------
 #P B3LYP/6-311+g(d) force
 -------------------------

 -----
 DPGEN
 -----
 Symbolic Z-matrix:
 Charge =  0 Multiplicity = 2

                         Standard orientation:
 ---------------------------------------------------------------------
 Center     Atomic      Atomic             Coordinates (Angstroms)
 Number     Number       Type             X           Y           Z
 ---------------------------------------------------------------------
      1         11           0       -0.455535   -0.246060    2.000770
      2         11           0       -0.410284    0.159174   -1.765740
      3         11           0        1.747805    2.322032   -0.187050
      4         11           0        3.082360   -0.958630    0.675349
      5         11           0        0.788165   -2.449622   -0.963592
      6         11           0       -3.185752   -1.617230    0.266754
      7         11           0       -1.566759    2.790336   -0.026491
 ---------------------------------------------------------------------

 SCF Done:  E(UB3LYP) =  -1136.13084282     A.U. after   19 cycles

 The electronic state is 2-A.
 Alpha  occ. eigenvalues --  -38.44135 -38.44053 -38.43918 -38.43743 -38.43714
 Alpha  occ. eigenvalues --  -38.43593 -38.43577  -2.19900  -2.19898  -2.19745
 Alpha  occ. eigenvalues --   -2.19607  -2.19577  -2.19545  -2.19407  -1.13585
 Alpha  occ. eigenvalues --   -1.13571  -1.13558  -1.13545  -1.13538  -1.13499
 Alpha  occ. eigenvalues --   -1.13452  -1.13417  -1.13411  -1.13381  -1.13278
 Alpha  occ. eigenvalues --   -1.13267  -1.13243  -1.13219  -1.13197  -1.13182
 Alpha  occ. eigenvalues --   -1.13152  -1.13123  -1.13062  -1.13055  -1.13041
 Alpha  occ. eigenvalues --   -0.18240  -0.12720  -0.12397  -0.11108
 Alpha virt. eigenvalues --   -0.05751  -0.05306  -0.04431  -0.03243  -0.03146
 Alpha virt. eigenvalues --   -0.02838  -0.01626  -0.01286  -0.00396  -0.00166
 Alpha virt. eigenvalues --    0.00043   0.00336   0.00748   0.00797   0.00817

  Beta  occ. eigenvalues --  -38.44134 -38.43977 -38.43916 -38.43740 -38.43681
  Beta  occ. eigenvalues --  -38.43568 -38.43516  -2.19901  -2.19759  -2.19742
  Beta  occ. eigenvalues --   -2.19574  -2.19550  -2.19409  -2.19390  -1.13570
  Beta  occ. eigenvalues --   -1.13558  -1.13542  -1.13477  -1.13447  -1.13424
  Beta  occ. eigenvalues --   -1.13406  -1.13403  -1.13376  -1.13361  -1.13263
  Beta  occ. eigenvalues --   -1.13232  -1.13231  -1.13192  -1.13176  -1.13100
  Beta  occ. eigenvalues --   -1.13059  -1.13050  -1.13035  -1.13033  -1.13023
  Beta  occ. eigenvalues --   -0.17511  -0.12511  -0.12154
  Beta virt. eigenvalues --   -0.07218  -0.05700  -0.05179  -0.04313  -0.02603
  Beta virt. eigenvalues --   -0.02451  -0.01877  -0.01454  -0.01230  -0.00344
  Beta virt. eigenvalues --   -0.00119   0.00117   0.00374   0.00794   0.00839

 Mulliken charges and spin densities:
               1          2
     1  Na  -0.306976   0.681614
     2  Na   0.340432   0.214230
     3  Na  -0.158658   0.098575
     4  Na   0.028818   0.065926
     5  Na   0.047326   0.071820
     6  Na  -0.100133  -0.071703
     7  Na   0.149190  -0.060462
 Sum of Mulliken charges =  -0.00000   1.00000

 Dipole moment (field-independent basis, Debye):
    X=             -0.4230    Y=              0.2485    Z=              0.2481  Tot=              0.5497
 Quadrupole moment (field-independent basis, Debye-Ang):
   XX=            -58.2251   YY=            -63.5853   ZZ=            -72.6636
   XY=             -0.0958   XZ=              0.9675   YZ=              0.8978

 Normal termination of Gaussian 16 at Thu Dec  7 05:17:47 2023.
