 Gaussian 16, Revision B.01,
 Gaussian 16:  ES64L-G16RevB.01 20-Dec-2017

 -------------------------
 #P B3LYP/6-311+g(d) force
 -------------------------

 -----
 DPGEN
 -----
 Symbolic Z-matrix:
 Charge =  0 Multiplicity = 2

                         Standard orientation:
 ---------------------------------------------------------------------
 Center     Atomic      Atomic             Coordinates (Angstroms)
 Number     Number       Type             X           Y           Z
 ---------------------------------------------------------------------
      1         11           0        2.150840    2.028631   -0.117058
      2         11           0       -0.509456    0.439662    1.488643
      3         11           0       -1.640535   -2.478809    0.239525
      4         11           0        2.084886   -1.359488    0.885766
      5         11           0        4.587588   -0.690472   -1.316183
      6         11           0       -4.849668   -0.513457   -1.137248
      7         11           0       -1.823655    2.573932   -0.043445
 ---------------------------------------------------------------------

 SCF Done:  E(UB3LYP) =  -1136.11562160     A.U. after   21 cycles

 The electronic state is 2-A.
 Alpha  occ. eigenvalues --  -38.45098 -38.44596 -38.44583 -38.43969 -38.43941
 Alpha  occ. eigenvalues --  -38.43658 -38.43567  -2.20856  -2.20390  -2.20378
 Alpha  occ. eigenvalues --   -2.19805  -2.19787  -2.19542  -2.19428  -1.14508
 Alpha  occ. eigenvalues --   -1.14492  -1.14461  -1.14102  -1.14089  -1.14034
 Alpha  occ. eigenvalues --   -1.14033  -1.13999  -1.13963  -1.13595  -1.13530
 Alpha  occ. eigenvalues --   -1.13483  -1.13443  -1.13403  -1.13380  -1.13214
 Alpha  occ. eigenvalues --   -1.13204  -1.13146  -1.13115  -1.13078  -1.13048
 Alpha  occ. eigenvalues --   -0.17232  -0.13811  -0.11644  -0.11488
 Alpha virt. eigenvalues --   -0.06324  -0.05646  -0.04545  -0.03536  -0.02879
 Alpha virt. eigenvalues --   -0.02622  -0.02070  -0.01127  -0.00716  -0.00696
 Alpha virt. eigenvalues --   -0.00253  -0.00104   0.00123   0.00246   0.00612

  Beta  occ. eigenvalues --  -38.44998 -38.44594 -38.44533 -38.43966 -38.43919
  Beta  occ. eigenvalues --  -38.43666 -38.43532  -2.20669  -2.20387  -2.20285
  Beta  occ. eigenvalues --   -2.19780  -2.19772  -2.19481  -2.19448  -1.14380
  Beta  occ. eigenvalues --   -1.14362  -1.14339  -1.14098  -1.14089  -1.13972
  Beta  occ. eigenvalues --   -1.13969  -1.13963  -1.13929  -1.13580  -1.13501
  Beta  occ. eigenvalues --   -1.13467  -1.13439  -1.13369  -1.13353  -1.13183
  Beta  occ. eigenvalues --   -1.13168  -1.13136  -1.13129  -1.13055  -1.13027
  Beta  occ. eigenvalues --   -0.16722  -0.13143  -0.11413
  Beta virt. eigenvalues --   -0.07998  -0.05953  -0.05164  -0.04288  -0.03493
  Beta virt. eigenvalues --   -0.02430  -0.02082  -0.01710  -0.01015  -0.00609
  Beta virt. eigenvalues --   -0.00358  -0.00127   0.00077   0.00305   0.00381

 Mulliken charges and spin densities:
               1          2
     1  Na  -0.231983   0.072361
     2  Na   0.428661  -0.047845
     3  Na  -0.123140   0.010977
     4  Na  -0.300501   0.003640
     5  Na   0.306312   0.277647
     6  Na  -0.016575   0.547253
     7  Na  -0.062774   0.135967
 Sum of Mulliken charges =  -0.00000   1.00000

 Dipole moment (field-independent basis, Debye):
    X=              0.7792    Y=              0.3188    Z=             -0.8103  Tot=              1.1685
 Quadrupole moment (field-independent basis, Debye-Ang):
   XX=            -56.8459   YY=            -70.2822   ZZ=            -68.5765
   XY=             -2.0755   XZ=             -1.0727   YZ=             -0.6507

 Normal termination of Gaussian 16 at Wed Nov 29 02:32:39 2023.
