 Gaussian 16, Revision B.01,
 Gaussian 16:  ES64L-G16RevB.01 20-Dec-2017

 -------------------------
 #P B3LYP/6-311+g(d) force
 -------------------------

 -----
 DPGEN
 -----
 Symbolic Z-matrix:
 Charge =  0 Multiplicity = 2

                         Standard orientation:
 ---------------------------------------------------------------------
 Center     Atomic      Atomic             Coordinates (Angstroms)
 Number     Number       Type             X           Y           Z
 ---------------------------------------------------------------------
      1         11           0        0.177264   -0.338020    1.907538
      2         11           0        0.320765   -0.362132   -1.837095
      3         11           0       -1.349917    2.077498   -0.045771
      4         11           0       -1.579936   -2.320054   -0.175567
      5         11           0        2.446628    1.891308   -0.096796
      6         11           0       -3.536220    0.279403    0.102504
      7         11           0        3.521416   -1.228002    0.145188
 ---------------------------------------------------------------------

 SCF Done:  E(UB3LYP) =  -1136.11928165     A.U. after   26 cycles

 The electronic state is 2-A.
 Alpha  occ. eigenvalues --  -38.45546 -38.45470 -38.44168 -38.43991 -38.43622
 Alpha  occ. eigenvalues --  -38.42826 -38.42717  -2.21416  -2.21247  -2.20043
 Alpha  occ. eigenvalues --   -2.19827  -2.19539  -2.18714  -2.18637  -1.15160
 Alpha  occ. eigenvalues --   -1.15050  -1.15036  -1.14916  -1.14913  -1.14882
 Alpha  occ. eigenvalues --   -1.13734  -1.13681  -1.13652  -1.13501  -1.13490
 Alpha  occ. eigenvalues --   -1.13468  -1.13228  -1.13173  -1.13152  -1.12397
 Alpha  occ. eigenvalues --   -1.12371  -1.12356  -1.12329  -1.12293  -1.12278
 Alpha  occ. eigenvalues --   -0.18671  -0.14103  -0.11318  -0.10743
 Alpha virt. eigenvalues --   -0.07291  -0.05461  -0.03810  -0.03298  -0.02898
 Alpha virt. eigenvalues --   -0.02439  -0.02333  -0.01409  -0.00475  -0.00206
 Alpha virt. eigenvalues --    0.00081   0.00152   0.00451   0.00617   0.00758

  Beta  occ. eigenvalues --  -38.45548 -38.45468 -38.44092 -38.43986 -38.43536
  Beta  occ. eigenvalues --  -38.42819 -38.42709  -2.21419  -2.21246  -2.19903
  Beta  occ. eigenvalues --   -2.19820  -2.19381  -2.18705  -2.18627  -1.15166
  Beta  occ. eigenvalues --   -1.15044  -1.15034  -1.14919  -1.14896  -1.14883
  Beta  occ. eigenvalues --   -1.13638  -1.13582  -1.13549  -1.13491  -1.13473
  Beta  occ. eigenvalues --   -1.13461  -1.13123  -1.13054  -1.13041  -1.12391
  Beta  occ. eigenvalues --   -1.12355  -1.12333  -1.12327  -1.12290  -1.12235
  Beta  occ. eigenvalues --   -0.17931  -0.13929  -0.11062
  Beta virt. eigenvalues --   -0.07191  -0.06832  -0.05475  -0.03346  -0.03002
  Beta virt. eigenvalues --   -0.02664  -0.01605  -0.01483  -0.01342  -0.00507
  Beta virt. eigenvalues --   -0.00008   0.00061   0.00166   0.00649   0.00683

 Mulliken charges and spin densities:
               1          2
     1  Na  -0.414813   0.388133
     2  Na  -0.283753   0.258081
     3  Na  -0.066337   0.135522
     4  Na   0.405197   0.199273
     5  Na   0.062448   0.055778
     6  Na   0.063077  -0.063618
     7  Na   0.234182   0.026829
 Sum of Mulliken charges =  -0.00000   1.00000

 Dipole moment (field-independent basis, Debye):
    X=              0.7427    Y=             -0.3865    Z=              0.1268  Tot=              0.8468
 Quadrupole moment (field-independent basis, Debye-Ang):
   XX=            -44.3737   YY=            -73.7646   ZZ=            -74.5508
   XY=             -0.4536   XZ=             -0.1091   YZ=             -0.3006

 Normal termination of Gaussian 16 at Tue Dec  5 17:21:24 2023.
