 Gaussian 16, Revision B.01,
 Gaussian 16:  ES64L-G16RevB.01 20-Dec-2017

 -------------------------
 #P B3LYP/6-311+g(d) force
 -------------------------

 -----
 DPGEN
 -----
 Symbolic Z-matrix:
 Charge =  0 Multiplicity = 2

                         Standard orientation:
 ---------------------------------------------------------------------
 Center     Atomic      Atomic             Coordinates (Angstroms)
 Number     Number       Type             X           Y           Z
 ---------------------------------------------------------------------
      1         11           0        2.736969   -1.669636    0.811499
      2         11           0        1.225403    1.498850   -0.325528
      3         11           0       -2.140286    0.689100    0.627378
      4         11           0       -0.589606   -2.269171   -0.869267
      5         11           0       -3.599327   -2.194401    0.062643
      6         11           0       -2.108580    3.445483   -0.092086
      7         11           0        4.475427    0.499776   -0.214638
 ---------------------------------------------------------------------

 SCF Done:  E(UB3LYP) =  -1136.11961706     A.U. after   21 cycles

 The electronic state is 2-A.
 Alpha  occ. eigenvalues --  -38.44936 -38.44933 -38.44200 -38.43651 -38.43582
 Alpha  occ. eigenvalues --  -38.43291 -38.42972  -2.20788  -2.20750  -2.20040
 Alpha  occ. eigenvalues --   -2.19595  -2.19477  -2.19146  -2.18845  -1.14495
 Alpha  occ. eigenvalues --   -1.14470  -1.14452  -1.14448  -1.14421  -1.14327
 Alpha  occ. eigenvalues --   -1.13847  -1.13679  -1.13647  -1.13277  -1.13260
 Alpha  occ. eigenvalues --   -1.13191  -1.13145  -1.13097  -1.13096  -1.12828
 Alpha  occ. eigenvalues --   -1.12814  -1.12798  -1.12497  -1.12480  -1.12463
 Alpha  occ. eigenvalues --   -0.17319  -0.14523  -0.12694  -0.09991
 Alpha virt. eigenvalues --   -0.06713  -0.05383  -0.04341  -0.03441  -0.03081
 Alpha virt. eigenvalues --   -0.02357  -0.01941  -0.01391  -0.00696  -0.00570
 Alpha virt. eigenvalues --   -0.00175  -0.00024   0.00390   0.00494   0.00605

  Beta  occ. eigenvalues --  -38.44924 -38.44912 -38.44207 -38.43638 -38.43516
  Beta  occ. eigenvalues --  -38.43262 -38.42921  -2.20758  -2.20730  -2.20053
  Beta  occ. eigenvalues --   -2.19575  -2.19353  -2.19097  -2.18750  -1.14464
  Beta  occ. eigenvalues --   -1.14459  -1.14435  -1.14411  -1.14363  -1.14317
  Beta  occ. eigenvalues --   -1.13856  -1.13688  -1.13652  -1.13259  -1.13242
  Beta  occ. eigenvalues --   -1.13162  -1.13064  -1.13016  -1.13010  -1.12797
  Beta  occ. eigenvalues --   -1.12786  -1.12731  -1.12426  -1.12415  -1.12407
  Beta  occ. eigenvalues --   -0.16757  -0.14022  -0.12445
  Beta virt. eigenvalues --   -0.06579  -0.06349  -0.05196  -0.04083  -0.02889
  Beta virt. eigenvalues --   -0.02741  -0.02225  -0.01815  -0.01039  -0.00606
  Beta virt. eigenvalues --   -0.00228   0.00163   0.00354   0.00469   0.00546

 Mulliken charges and spin densities:
               1          2
     1  Na  -0.082085   0.124862
     2  Na  -1.169117   0.030630
     3  Na  -0.802721   0.170902
     4  Na  -0.220786   0.070446
     5  Na   0.739409   0.285206
     6  Na   0.639426  -0.025429
     7  Na   0.895874   0.343383
 Sum of Mulliken charges =  -0.00000   1.00000

 Dipole moment (field-independent basis, Debye):
    X=              0.5288    Y=              0.3756    Z=             -0.1007  Tot=              0.6563
 Quadrupole moment (field-independent basis, Debye-Ang):
   XX=            -69.6076   YY=            -62.4469   ZZ=            -68.6001
   XY=             -6.6859   XZ=              0.5297   YZ=             -2.9708

 Normal termination of Gaussian 16 at Wed Nov 29 03:28:01 2023.
