 Gaussian 16, Revision B.01,
 Gaussian 16:  ES64L-G16RevB.01 20-Dec-2017

 -------------------------
 #P B3LYP/6-311+g(d) force
 -------------------------

 -----
 DPGEN
 -----
 Symbolic Z-matrix:
 Charge =  0 Multiplicity = 2

                         Standard orientation:
 ---------------------------------------------------------------------
 Center     Atomic      Atomic             Coordinates (Angstroms)
 Number     Number       Type             X           Y           Z
 ---------------------------------------------------------------------
      1         11           0        3.627187   -0.320164    0.266650
      2         11           0        1.235325    1.538495   -0.845144
      3         11           0       -1.625743    3.255362    0.449032
      4         11           0        0.854548   -1.926863   -0.516066
      5         11           0       -1.612054   -0.140821   -1.764359
      6         11           0       -2.386856   -2.506219    0.598704
      7         11           0       -0.092408    0.100210    1.811183
 ---------------------------------------------------------------------

 SCF Done:  E(UB3LYP) =  -1136.13432191     A.U. after   19 cycles

 The electronic state is 2-A.
 Alpha  occ. eigenvalues --  -38.43850 -38.43807 -38.43780 -38.43586 -38.43578
 Alpha  occ. eigenvalues --  -38.43329 -38.43205  -2.19757  -2.19630  -2.19621
 Alpha  occ. eigenvalues --   -2.19476  -2.19364  -2.19289  -2.19149  -1.13480
 Alpha  occ. eigenvalues --   -1.13382  -1.13369  -1.13305  -1.13302  -1.13287
 Alpha  occ. eigenvalues --   -1.13285  -1.13272  -1.13262  -1.13196  -1.13108
 Alpha  occ. eigenvalues --   -1.13074  -1.13036  -1.13029  -1.13002  -1.12995
 Alpha  occ. eigenvalues --   -1.12969  -1.12870  -1.12850  -1.12825  -1.12726
 Alpha  occ. eigenvalues --   -0.18640  -0.12942  -0.12300  -0.10909
 Alpha virt. eigenvalues --   -0.05826  -0.05059  -0.04392  -0.03162  -0.02904
 Alpha virt. eigenvalues --   -0.02532  -0.01729  -0.01401  -0.00457  -0.00041
 Alpha virt. eigenvalues --    0.00235   0.00348   0.00789   0.00829   0.00862

  Beta  occ. eigenvalues --  -38.43799 -38.43781 -38.43776 -38.43585 -38.43511
  Beta  occ. eigenvalues --  -38.43311 -38.43183  -2.19627  -2.19622  -2.19616
  Beta  occ. eigenvalues --   -2.19363  -2.19353  -2.19261  -2.19112  -1.13390
  Beta  occ. eigenvalues --   -1.13309  -1.13297  -1.13292  -1.13285  -1.13271
  Beta  occ. eigenvalues --   -1.13266  -1.13256  -1.13250  -1.13111  -1.13037
  Beta  occ. eigenvalues --   -1.13018  -1.13016  -1.13002  -1.12992  -1.12977
  Beta  occ. eigenvalues --   -1.12900  -1.12853  -1.12833  -1.12764  -1.12706
  Beta  occ. eigenvalues --   -0.17854  -0.12778  -0.12109
  Beta virt. eigenvalues --   -0.06931  -0.05691  -0.05009  -0.04219  -0.02581
  Beta virt. eigenvalues --   -0.02306  -0.01679  -0.01577  -0.01292  -0.00138
  Beta virt. eigenvalues --   -0.00076   0.00264   0.00432   0.00799   0.00864

 Mulliken charges and spin densities:
               1          2
     1  Na   0.527977  -0.092354
     2  Na  -0.151881   0.215172
     3  Na  -0.274831  -0.126398
     4  Na  -0.049628   0.279956
     5  Na   0.248319   0.169755
     6  Na  -0.188310  -0.082851
     7  Na  -0.111648   0.636720
 Sum of Mulliken charges =  -0.00000   1.00000

 Dipole moment (field-independent basis, Debye):
    X=             -0.1491    Y=             -0.1741    Z=              0.2319  Tot=              0.3261
 Quadrupole moment (field-independent basis, Debye-Ang):
   XX=            -55.7771   YY=            -63.9363   ZZ=            -71.9215
   XY=              0.3974   XZ=              0.0440   YZ=             -0.6255

 Normal termination of Gaussian 16 at Tue Dec  5 15:03:53 2023.
