 Gaussian 16, Revision B.01,
 Gaussian 16:  ES64L-G16RevB.01 20-Dec-2017

 -------------------------
 #P B3LYP/6-311+g(d) force
 -------------------------

 -----
 DPGEN
 -----
 Symbolic Z-matrix:
 Charge =  0 Multiplicity = 2

                         Standard orientation:
 ---------------------------------------------------------------------
 Center     Atomic      Atomic             Coordinates (Angstroms)
 Number     Number       Type             X           Y           Z
 ---------------------------------------------------------------------
      1         11           0        2.603603   -2.002766   -0.438833
      2         11           0       -3.872461    0.379961   -0.328909
      3         11           0       -1.392046   -2.187901    0.427398
      4         11           0        0.120644   -0.313560   -1.783684
      5         11           0        2.023677    2.711575   -0.598169
      6         11           0       -1.120008    1.495101    0.930717
      7         11           0        1.636591   -0.082408    1.791479
 ---------------------------------------------------------------------

 SCF Done:  E(UB3LYP) =  -1136.12863869     A.U. after   21 cycles

 The electronic state is 2-A.
 Alpha  occ. eigenvalues --  -38.44817 -38.44172 -38.44056 -38.43636 -38.43482
 Alpha  occ. eigenvalues --  -38.43405 -38.43102  -2.20613  -2.19998  -2.19901
 Alpha  occ. eigenvalues --   -2.19556  -2.19326  -2.19270  -2.19013  -1.14298
 Alpha  occ. eigenvalues --   -1.14272  -1.14240  -1.13719  -1.13680  -1.13614
 Alpha  occ. eigenvalues --   -1.13586  -1.13573  -1.13514  -1.13244  -1.13179
 Alpha  occ. eigenvalues --   -1.13172  -1.13028  -1.12972  -1.12941  -1.12931
 Alpha  occ. eigenvalues --   -1.12920  -1.12892  -1.12719  -1.12693  -1.12602
 Alpha  occ. eigenvalues --   -0.18402  -0.13372  -0.11753  -0.10791
 Alpha virt. eigenvalues --   -0.06501  -0.05293  -0.04022  -0.03215  -0.02822
 Alpha virt. eigenvalues --   -0.02465  -0.02170  -0.01296  -0.00596  -0.00043
 Alpha virt. eigenvalues --    0.00098   0.00217   0.00526   0.00717   0.00775

  Beta  occ. eigenvalues --  -38.44821 -38.44163 -38.44049 -38.43563 -38.43471
  Beta  occ. eigenvalues --  -38.43337 -38.43080  -2.20621  -2.19985  -2.19891
  Beta  occ. eigenvalues --   -2.19424  -2.19250  -2.19202  -2.18976  -1.14304
  Beta  occ. eigenvalues --   -1.14273  -1.14245  -1.13709  -1.13648  -1.13602
  Beta  occ. eigenvalues --   -1.13581  -1.13545  -1.13510  -1.13153  -1.13087
  Beta  occ. eigenvalues --   -1.13074  -1.12937  -1.12924  -1.12906  -1.12897
  Beta  occ. eigenvalues --   -1.12885  -1.12821  -1.12696  -1.12636  -1.12581
  Beta  occ. eigenvalues --   -0.17674  -0.13211  -0.11526
  Beta virt. eigenvalues --   -0.06873  -0.06385  -0.05211  -0.03805  -0.02797
  Beta virt. eigenvalues --   -0.02128  -0.02110  -0.01471  -0.01188  -0.00349
  Beta virt. eigenvalues --    0.00005   0.00117   0.00258   0.00622   0.00769

 Mulliken charges and spin densities:
               1          2
     1  Na   0.205087  -0.128083
     2  Na   0.366557  -0.068622
     3  Na  -0.055350   0.044250
     4  Na  -0.259695   0.714404
     5  Na  -0.130920  -0.086405
     6  Na  -0.362668   0.125264
     7  Na   0.236989   0.399193
 Sum of Mulliken charges =  -0.00000   1.00000

 Dipole moment (field-independent basis, Debye):
    X=             -0.6989    Y=             -0.3266    Z=             -0.2920  Tot=              0.8248
 Quadrupole moment (field-independent basis, Debye-Ang):
   XX=            -50.1830   YY=            -68.5778   ZZ=            -72.9217
   XY=             -0.3539   XZ=              0.2882   YZ=             -1.8926

 Normal termination of Gaussian 16 at Wed Nov 29 15:52:24 2023.
