 Gaussian 16, Revision B.01,
 Gaussian 16:  ES64L-G16RevB.01 20-Dec-2017

 -------------------------
 #P B3LYP/6-311+g(d) force
 -------------------------

 -----
 DPGEN
 -----
 Symbolic Z-matrix:
 Charge =  0 Multiplicity = 2

                         Standard orientation:
 ---------------------------------------------------------------------
 Center     Atomic      Atomic             Coordinates (Angstroms)
 Number     Number       Type             X           Y           Z
 ---------------------------------------------------------------------
      1         11           0       -0.463829    0.080943   -1.759427
      2         11           0       -2.487535   -1.556548    0.089399
      3         11           0        0.107283   -0.091742    1.914633
      4         11           0       -2.321155    1.722532    0.274292
      5         11           0        1.089569    2.558850   -0.318705
      6         11           0        3.316609   -0.216712    0.131683
      7         11           0        0.759057   -2.497324   -0.331874
 ---------------------------------------------------------------------

 SCF Done:  E(UB3LYP) =  -1136.13765586     A.U. after   19 cycles

 The electronic state is 2-A.
 Alpha  occ. eigenvalues --  -38.44229 -38.43551 -38.43545 -38.43521 -38.43269
 Alpha  occ. eigenvalues --  -38.43210 -38.43020  -2.20035  -2.19491  -2.19459
 Alpha  occ. eigenvalues --   -2.19425  -2.19290  -2.19072  -2.18930  -1.13706
 Alpha  occ. eigenvalues --   -1.13691  -1.13682  -1.13217  -1.13169  -1.13146
 Alpha  occ. eigenvalues --   -1.13134  -1.13124  -1.13103  -1.13086  -1.13067
 Alpha  occ. eigenvalues --   -1.13028  -1.12962  -1.12929  -1.12905  -1.12749
 Alpha  occ. eigenvalues --   -1.12733  -1.12688  -1.12617  -1.12595  -1.12538
 Alpha  occ. eigenvalues --   -0.19158  -0.13190  -0.12436  -0.11011
 Alpha virt. eigenvalues --   -0.05755  -0.04963  -0.04310  -0.03291  -0.02921
 Alpha virt. eigenvalues --   -0.02625  -0.01592  -0.00944  -0.00200  -0.00002
 Alpha virt. eigenvalues --    0.00010   0.00358   0.00815   0.00926   0.00950

  Beta  occ. eigenvalues --  -38.44231 -38.43537 -38.43511 -38.43468 -38.43203
  Beta  occ. eigenvalues --  -38.43191 -38.43009  -2.20039  -2.19449  -2.19411
  Beta  occ. eigenvalues --   -2.19338  -2.19147  -2.19061  -2.18914  -1.13699
  Beta  occ. eigenvalues --   -1.13692  -1.13686  -1.13196  -1.13121  -1.13105
  Beta  occ. eigenvalues --   -1.13085  -1.13066  -1.13055  -1.13021  -1.13008
  Beta  occ. eigenvalues --   -1.12980  -1.12872  -1.12838  -1.12814  -1.12724
  Beta  occ. eigenvalues --   -1.12706  -1.12684  -1.12603  -1.12556  -1.12529
  Beta  occ. eigenvalues --   -0.18397  -0.12964  -0.12151
  Beta virt. eigenvalues --   -0.07044  -0.05698  -0.04976  -0.04292  -0.02513
  Beta virt. eigenvalues --   -0.02105  -0.01586  -0.01471  -0.00892  -0.00211
  Beta virt. eigenvalues --   -0.00044   0.00115   0.00379   0.00865   0.00922

 Mulliken charges and spin densities:
               1          2
     1  Na  -0.251232   0.576262
     2  Na   0.351141  -0.016289
     3  Na  -0.520738   0.714550
     4  Na   0.240420  -0.007331
     5  Na   0.056737  -0.105735
     6  Na  -0.048032  -0.082017
     7  Na   0.171704  -0.079441
 Sum of Mulliken charges =  -0.00000   1.00000

 Dipole moment (field-independent basis, Debye):
    X=              0.2051    Y=              0.0434    Z=              0.1832  Tot=              0.2784
 Quadrupole moment (field-independent basis, Debye-Ang):
   XX=            -54.8682   YY=            -65.8418   ZZ=            -72.9405
   XY=              0.1951   XZ=             -0.9551   YZ=              0.3261

 Normal termination of Gaussian 16 at Fri Dec  8 06:12:58 2023.
