 Gaussian 16, Revision B.01,
 Gaussian 16:  ES64L-G16RevB.01 20-Dec-2017

 -------------------------
 #P B3LYP/6-311+g(d) force
 -------------------------

 -----
 DPGEN
 -----
 Symbolic Z-matrix:
 Charge =  0 Multiplicity = 2

                         Standard orientation:
 ---------------------------------------------------------------------
 Center     Atomic      Atomic             Coordinates (Angstroms)
 Number     Number       Type             X           Y           Z
 ---------------------------------------------------------------------
      1         11           0       -0.297455   -1.421660    0.482472
      2         11           0       -3.430627   -3.343523   -0.231757
      3         11           0       -3.159867    0.200906   -0.620981
      4         11           0       -2.851913    3.503113   -0.222994
      5         11           0        0.088486    1.651863    0.878585
      6         11           0        3.429399   -0.809752    0.555827
      7         11           0        6.221976    0.219054   -0.841152
 ---------------------------------------------------------------------

 SCF Done:  E(UB3LYP) =  -1136.12326917     A.U. after   20 cycles

 The electronic state is 2-A.
 Alpha  occ. eigenvalues --  -38.44735 -38.44731 -38.44120 -38.44032 -38.43806
 Alpha  occ. eigenvalues --  -38.43779 -38.43729  -2.20568  -2.20534  -2.19973
 Alpha  occ. eigenvalues --   -2.19906  -2.19590  -2.19587  -2.19511  -1.14305
 Alpha  occ. eigenvalues --   -1.14248  -1.14167  -1.14166  -1.14161  -1.14136
 Alpha  occ. eigenvalues --   -1.13688  -1.13672  -1.13614  -1.13587  -1.13562
 Alpha  occ. eigenvalues --   -1.13472  -1.13281  -1.13275  -1.13255  -1.13246
 Alpha  occ. eigenvalues --   -1.13230  -1.13207  -1.13178  -1.13177  -1.13127
 Alpha  occ. eigenvalues --   -0.16910  -0.13897  -0.12250  -0.11621
 Alpha virt. eigenvalues --   -0.05723  -0.05509  -0.04526  -0.03972  -0.02741
 Alpha virt. eigenvalues --   -0.02329  -0.02004  -0.01722  -0.01200  -0.00920
 Alpha virt. eigenvalues --   -0.00487  -0.00005   0.00083   0.00406   0.00689

  Beta  occ. eigenvalues --  -38.44700 -38.44635 -38.44095 -38.43990 -38.43815
  Beta  occ. eigenvalues --  -38.43756 -38.43711  -2.20506  -2.20356  -2.19929
  Beta  occ. eigenvalues --   -2.19835  -2.19613  -2.19547  -2.19478  -1.14253
  Beta  occ. eigenvalues --   -1.14210  -1.14083  -1.14046  -1.14046  -1.14043
  Beta  occ. eigenvalues --   -1.13655  -1.13644  -1.13569  -1.13543  -1.13523
  Beta  occ. eigenvalues --   -1.13398  -1.13305  -1.13298  -1.13219  -1.13218
  Beta  occ. eigenvalues --   -1.13189  -1.13184  -1.13155  -1.13151  -1.13107
  Beta  occ. eigenvalues --   -0.16296  -0.12975  -0.12063
  Beta virt. eigenvalues --   -0.08216  -0.05396  -0.05221  -0.04148  -0.03790
  Beta virt. eigenvalues --   -0.02326  -0.02073  -0.01683  -0.01518  -0.01029
  Beta virt. eigenvalues --   -0.00585  -0.00177   0.00137   0.00228   0.00491

 Mulliken charges and spin densities:
               1          2
     1  Na  -0.953304   0.078673
     2  Na   0.793448   0.189962
     3  Na  -0.760863   0.374254
     4  Na   0.870347   0.074177
     5  Na  -0.214325  -0.003501
     6  Na  -0.415298  -0.123423
     7  Na   0.679994   0.409859
 Sum of Mulliken charges =  -0.00000   1.00000

 Dipole moment (field-independent basis, Debye):
    X=             -0.0772    Y=              0.5384    Z=             -0.0998  Tot=              0.5530
 Quadrupole moment (field-independent basis, Debye-Ang):
   XX=            -60.2987   YY=            -61.2503   ZZ=            -71.5247
   XY=              2.7063   XZ=             -1.2305   YZ=             -0.7136

 Normal termination of Gaussian 16 at Wed Nov 29 03:59:12 2023.
