 Gaussian 16, Revision B.01,
 Gaussian 16:  ES64L-G16RevB.01 20-Dec-2017

 -------------------------
 #P B3LYP/6-311+g(d) force
 -------------------------

 -----
 DPGEN
 -----
 Symbolic Z-matrix:
 Charge =  0 Multiplicity = 2

                         Standard orientation:
 ---------------------------------------------------------------------
 Center     Atomic      Atomic             Coordinates (Angstroms)
 Number     Number       Type             X           Y           Z
 ---------------------------------------------------------------------
      1         11           0        0.356083    3.170010   -0.966546
      2         11           0       -1.184733    0.738447    1.048650
      3         11           0        4.588669   -1.460428    0.349102
      4         11           0        2.947331    1.368300    0.076183
      5         11           0        0.543987   -2.168654   -0.317346
      6         11           0       -2.928322   -2.529976   -0.637301
      7         11           0       -4.323016    0.882301    0.447258
 ---------------------------------------------------------------------

 SCF Done:  E(UB3LYP) =  -1136.12054588     A.U. after   21 cycles

 The electronic state is 2-A.
 Alpha  occ. eigenvalues --  -38.44964 -38.44652 -38.44246 -38.44149 -38.44022
 Alpha  occ. eigenvalues --  -38.43602 -38.43596  -2.20734  -2.20487  -2.20079
 Alpha  occ. eigenvalues --   -2.19937  -2.19851  -2.19412  -2.19406  -1.14418
 Alpha  occ. eigenvalues --   -1.14387  -1.14368  -1.14207  -1.14179  -1.14093
 Alpha  occ. eigenvalues --   -1.13729  -1.13710  -1.13684  -1.13637  -1.13619
 Alpha  occ. eigenvalues --   -1.13551  -1.13524  -1.13518  -1.13495  -1.13072
 Alpha  occ. eigenvalues --   -1.13070  -1.13058  -1.13054  -1.13046  -1.13019
 Alpha  occ. eigenvalues --   -0.16761  -0.14029  -0.12345  -0.10812
 Alpha virt. eigenvalues --   -0.06781  -0.05099  -0.04370  -0.03705  -0.02881
 Alpha virt. eigenvalues --   -0.02722  -0.02119  -0.01233  -0.00929  -0.00600
 Alpha virt. eigenvalues --   -0.00507  -0.00264   0.00415   0.00561   0.00632

  Beta  occ. eigenvalues --  -38.44951 -38.44646 -38.44157 -38.44116 -38.44010
  Beta  occ. eigenvalues --  -38.43591 -38.43536  -2.20715  -2.20482  -2.19912
  Beta  occ. eigenvalues --   -2.19879  -2.19835  -2.19392  -2.19295  -1.14409
  Beta  occ. eigenvalues --   -1.14365  -1.14338  -1.14193  -1.14155  -1.14091
  Beta  occ. eigenvalues --   -1.13617  -1.13600  -1.13598  -1.13580  -1.13575
  Beta  occ. eigenvalues --   -1.13543  -1.13515  -1.13468  -1.13448  -1.13057
  Beta  occ. eigenvalues --   -1.13056  -1.13033  -1.12979  -1.12978  -1.12951
  Beta  occ. eigenvalues --   -0.16286  -0.13302  -0.11748
  Beta virt. eigenvalues --   -0.07515  -0.06696  -0.05008  -0.03868  -0.03316
  Beta virt. eigenvalues --   -0.02740  -0.02222  -0.01862  -0.01048  -0.00659
  Beta virt. eigenvalues --   -0.00477  -0.00222   0.00027   0.00524   0.00621

 Mulliken charges and spin densities:
               1          2
     1  Na   0.105852   0.016861
     2  Na  -0.112527   0.017016
     3  Na   0.587833   0.421375
     4  Na  -0.329126   0.116804
     5  Na  -0.708235   0.120123
     6  Na   0.272399  -0.126741
     7  Na   0.183804   0.434562
 Sum of Mulliken charges =  -0.00000   1.00000

 Dipole moment (field-independent basis, Debye):
    X=             -1.2125    Y=             -0.2626    Z=             -0.5821  Tot=              1.3704
 Quadrupole moment (field-independent basis, Debye-Ang):
   XX=            -62.4361   YY=            -66.4878   ZZ=            -69.6043
   XY=              3.6189   XZ=              3.2322   YZ=             -1.1415

 Normal termination of Gaussian 16 at Sun Dec  3 18:16:32 2023.
