 Gaussian 16, Revision B.01,
 Gaussian 16:  ES64L-G16RevB.01 20-Dec-2017

 -------------------------
 #P B3LYP/6-311+g(d) force
 -------------------------

 -----
 DPGEN
 -----
 Symbolic Z-matrix:
 Charge =  0 Multiplicity = 2

                         Standard orientation:
 ---------------------------------------------------------------------
 Center     Atomic      Atomic             Coordinates (Angstroms)
 Number     Number       Type             X           Y           Z
 ---------------------------------------------------------------------
      1         11           0        1.373888   -3.090103   -0.632739
      2         11           0        0.247615    3.674535   -0.610477
      3         11           0        3.821913   -1.085873    0.946411
      4         11           0        3.257449    1.891517   -0.361943
      5         11           0       -2.658458    2.862540    0.745986
      6         11           0       -1.663525   -3.567705    0.067598
      7         11           0       -4.378882   -0.684912   -0.154836
 ---------------------------------------------------------------------

 SCF Done:  E(UB3LYP) =  -1136.10656723     A.U. after   23 cycles

 The electronic state is 2-A.
 Alpha  occ. eigenvalues --  -38.45410 -38.45074 -38.44536 -38.44450 -38.44406
 Alpha  occ. eigenvalues --  -38.44365 -38.43850  -2.21152  -2.20853  -2.20342
 Alpha  occ. eigenvalues --   -2.20237  -2.20180  -2.20172  -2.19657  -1.14837
 Alpha  occ. eigenvalues --   -1.14829  -1.14792  -1.14533  -1.14521  -1.14502
 Alpha  occ. eigenvalues --   -1.14000  -1.13993  -1.13984  -1.13965  -1.13904
 Alpha  occ. eigenvalues --   -1.13880  -1.13839  -1.13826  -1.13825  -1.13805
 Alpha  occ. eigenvalues --   -1.13795  -1.13773  -1.13311  -1.13307  -1.13300
 Alpha  occ. eigenvalues --   -0.15581  -0.13741  -0.13578  -0.10755
 Alpha virt. eigenvalues --   -0.07843  -0.04918  -0.04407  -0.03601  -0.03290
 Alpha virt. eigenvalues --   -0.02468  -0.02454  -0.01746  -0.01544  -0.00731
 Alpha virt. eigenvalues --   -0.00509  -0.00129   0.00050   0.00394   0.00578

  Beta  occ. eigenvalues --  -38.45416 -38.45065 -38.44503 -38.44432 -38.44328
  Beta  occ. eigenvalues --  -38.44317 -38.43809  -2.21167  -2.20841  -2.20283
  Beta  occ. eigenvalues --   -2.20208  -2.20115  -2.20007  -2.19581  -1.14852
  Beta  occ. eigenvalues --   -1.14842  -1.14772  -1.14526  -1.14517  -1.14466
  Beta  occ. eigenvalues --   -1.13961  -1.13955  -1.13935  -1.13923  -1.13889
  Beta  occ. eigenvalues --   -1.13850  -1.13799  -1.13784  -1.13715  -1.13714
  Beta  occ. eigenvalues --   -1.13696  -1.13682  -1.13258  -1.13257  -1.13252
  Beta  occ. eigenvalues --   -0.15126  -0.13146  -0.12693
  Beta virt. eigenvalues --   -0.08040  -0.07561  -0.04493  -0.03945  -0.03430
  Beta virt. eigenvalues --   -0.02932  -0.02233  -0.02151  -0.01583  -0.01432
  Beta virt. eigenvalues --   -0.00531  -0.00194   0.00052   0.00216   0.00380

 Mulliken charges and spin densities:
               1          2
     1  Na  -0.327885   0.163618
     2  Na   0.015580   0.164184
     3  Na   0.214058   0.131062
     4  Na   0.008060   0.088999
     5  Na   0.006699  -0.023291
     6  Na   0.090343   0.009128
     7  Na  -0.006855   0.466301
 Sum of Mulliken charges =  -0.00000   1.00000

 Dipole moment (field-independent basis, Debye):
    X=              0.6661    Y=              0.1773    Z=              0.2433  Tot=              0.7310
 Quadrupole moment (field-independent basis, Debye-Ang):
   XX=            -64.3620   YY=            -66.9623   ZZ=            -70.2600
   XY=             -0.5646   XZ=             -1.3423   YZ=             -1.0080

 Normal termination of Gaussian 16 at Sun Dec  3 16:31:43 2023.
