 Gaussian 16, Revision B.01,
 Gaussian 16:  ES64L-G16RevB.01 20-Dec-2017

 -------------------------
 #P B3LYP/6-311+g(d) force
 -------------------------

 -----
 DPGEN
 -----
 Symbolic Z-matrix:
 Charge =  0 Multiplicity = 2

                         Standard orientation:
 ---------------------------------------------------------------------
 Center     Atomic      Atomic             Coordinates (Angstroms)
 Number     Number       Type             X           Y           Z
 ---------------------------------------------------------------------
      1         11           0       -0.158839   -0.222030   -1.716350
      2         11           0       -0.157206   -2.210829    0.340888
      3         11           0       -2.671005   -0.821813   -0.133001
      4         11           0       -1.516335    2.037632    0.156298
      5         11           0        0.310099    0.351102    1.877863
      6         11           0        1.581995    1.805360   -0.440249
      7         11           0        2.611291   -0.939421   -0.085449
 ---------------------------------------------------------------------

 SCF Done:  E(UB3LYP) =  -1136.11300557     A.U. after   20 cycles

 The electronic state is 2-A.
 Alpha  occ. eigenvalues --  -38.43809 -38.43740 -38.43682 -38.43609 -38.43304
 Alpha  occ. eigenvalues --  -38.43069 -38.43066  -2.19904  -2.19856  -2.19731
 Alpha  occ. eigenvalues --   -2.19606  -2.19365  -2.19156  -2.19074  -1.13680
 Alpha  occ. eigenvalues --   -1.13636  -1.13581  -1.13556  -1.13538  -1.13510
 Alpha  occ. eigenvalues --   -1.13437  -1.13366  -1.13352  -1.13323  -1.13275
 Alpha  occ. eigenvalues --   -1.13229  -1.13030  -1.12997  -1.12949  -1.12819
 Alpha  occ. eigenvalues --   -1.12787  -1.12754  -1.12737  -1.12721  -1.12682
 Alpha  occ. eigenvalues --   -0.20762  -0.13698  -0.12724  -0.11864
 Alpha virt. eigenvalues --   -0.05250  -0.04548  -0.04034  -0.03583  -0.03121
 Alpha virt. eigenvalues --   -0.02865  -0.01233  -0.00603  -0.00082   0.00330
 Alpha virt. eigenvalues --    0.00557   0.00605   0.00962   0.01081   0.01085

  Beta  occ. eigenvalues --  -38.43735 -38.43717 -38.43601 -38.43600 -38.43285
  Beta  occ. eigenvalues --  -38.43060 -38.43049  -2.19738  -2.19729  -2.19703
  Beta  occ. eigenvalues --   -2.19597  -2.19337  -2.19131  -2.19062  -1.13610
  Beta  occ. eigenvalues --   -1.13551  -1.13467  -1.13451  -1.13436  -1.13426
  Beta  occ. eigenvalues --   -1.13415  -1.13345  -1.13327  -1.13284  -1.13251
  Beta  occ. eigenvalues --   -1.13183  -1.13009  -1.12941  -1.12926  -1.12804
  Beta  occ. eigenvalues --   -1.12745  -1.12729  -1.12714  -1.12680  -1.12674
  Beta  occ. eigenvalues --   -0.19955  -0.13376  -0.12407
  Beta virt. eigenvalues --   -0.07728  -0.05242  -0.04546  -0.04029  -0.02688
  Beta virt. eigenvalues --   -0.02254  -0.01727  -0.01159  -0.00561   0.00071
  Beta virt. eigenvalues --    0.00347   0.00522   0.00576   0.01012   0.01066

 Mulliken charges and spin densities:
               1          2
     1  Na  -1.296536   0.376660
     2  Na   0.921967   0.137974
     3  Na   0.117272  -0.026259
     4  Na   0.599279   0.026322
     5  Na  -1.223137   0.473911
     6  Na   0.670059   0.066442
     7  Na   0.211095  -0.055050
 Sum of Mulliken charges =  -0.00000   1.00000

 Dipole moment (field-independent basis, Debye):
    X=              0.0003    Y=              0.0638    Z=              0.1301  Tot=              0.1449
 Quadrupole moment (field-independent basis, Debye-Ang):
   XX=            -58.1541   YY=            -68.6733   ZZ=            -69.4904
   XY=             -0.5886   XZ=             -0.6224   YZ=             -0.7852

 Normal termination of Gaussian 16 at Thu Dec  7 11:56:08 2023.
