 Gaussian 16, Revision B.01,
 Gaussian 16:  ES64L-G16RevB.01 20-Dec-2017

 -------------------------
 #P B3LYP/6-311+g(d) force
 -------------------------

 -----
 DPGEN
 -----
 Symbolic Z-matrix:
 Charge =  0 Multiplicity = 2

                         Standard orientation:
 ---------------------------------------------------------------------
 Center     Atomic      Atomic             Coordinates (Angstroms)
 Number     Number       Type             X           Y           Z
 ---------------------------------------------------------------------
      1         11           0       -3.047677    0.886921    0.092573
      2         11           0        0.235257    0.770336    1.423184
      3         11           0       -0.249557    3.094267   -0.102220
      4         11           0        3.131629    0.327380   -1.121251
      5         11           0        1.989361   -1.790564    1.318563
      6         11           0       -2.180780   -2.706254   -0.436996
      7         11           0        0.121767   -0.582086   -1.173853
 ---------------------------------------------------------------------

 SCF Done:  E(UB3LYP) =  -1136.12284856     A.U. after   20 cycles

 The electronic state is 2-A.
 Alpha  occ. eigenvalues --  -38.44535 -38.44036 -38.43696 -38.43648 -38.43501
 Alpha  occ. eigenvalues --  -38.43370 -38.43117  -2.20343  -2.19898  -2.19599
 Alpha  occ. eigenvalues --   -2.19531  -2.19436  -2.19302  -2.19160  -1.14041
 Alpha  occ. eigenvalues --   -1.14014  -1.13950  -1.13594  -1.13529  -1.13521
 Alpha  occ. eigenvalues --   -1.13452  -1.13329  -1.13240  -1.13217  -1.13205
 Alpha  occ. eigenvalues --   -1.13149  -1.13130  -1.13012  -1.13002  -1.12954
 Alpha  occ. eigenvalues --   -1.12953  -1.12937  -1.12842  -1.12777  -1.12750
 Alpha  occ. eigenvalues --   -0.18677  -0.13379  -0.12231  -0.10646
 Alpha virt. eigenvalues --   -0.05836  -0.05126  -0.04644  -0.03337  -0.02536
 Alpha virt. eigenvalues --   -0.02076  -0.01809  -0.01284  -0.00591  -0.00149
 Alpha virt. eigenvalues --    0.00053   0.00276   0.00715   0.00805   0.00837

  Beta  occ. eigenvalues --  -38.44536 -38.43987 -38.43646 -38.43642 -38.43499
  Beta  occ. eigenvalues --  -38.43315 -38.43082  -2.20345  -2.19809  -2.19528
  Beta  occ. eigenvalues --   -2.19502  -2.19341  -2.19299  -2.19100  -1.14035
  Beta  occ. eigenvalues --   -1.14016  -1.13951  -1.13525  -1.13467  -1.13458
  Beta  occ. eigenvalues --   -1.13414  -1.13263  -1.13177  -1.13159  -1.13138
  Beta  occ. eigenvalues --   -1.13129  -1.13119  -1.13001  -1.12949  -1.12946
  Beta  occ. eigenvalues --   -1.12936  -1.12884  -1.12783  -1.12735  -1.12699
  Beta  occ. eigenvalues --   -0.18039  -0.13102  -0.12049
  Beta virt. eigenvalues --   -0.06665  -0.05762  -0.05027  -0.04463  -0.02758
  Beta virt. eigenvalues --   -0.01994  -0.01764  -0.01240  -0.01076  -0.00399
  Beta virt. eigenvalues --   -0.00037   0.00154   0.00356   0.00761   0.00883

 Mulliken charges and spin densities:
               1          2
     1  Na  -0.204921  -0.029556
     2  Na   0.486689   0.186390
     3  Na  -0.156914   0.078385
     4  Na   0.094993   0.187059
     5  Na   0.012234   0.156260
     6  Na   0.134916   0.008007
     7  Na  -0.366997   0.413455
 Sum of Mulliken charges =  -0.00000   1.00000

 Dipole moment (field-independent basis, Debye):
    X=             -0.1777    Y=              0.2388    Z=              0.0575  Tot=              0.3032
 Quadrupole moment (field-independent basis, Debye-Ang):
   XX=            -54.9580   YY=            -61.7930   ZZ=            -74.7732
   XY=             -1.3884   XZ=             -0.9799   YZ=             -3.1987

 Normal termination of Gaussian 16 at Tue Dec  5 22:09:02 2023.
