 Gaussian 16, Revision B.01,
 Gaussian 16:  ES64L-G16RevB.01 20-Dec-2017

 -------------------------
 #P B3LYP/6-311+g(d) force
 -------------------------

 -----
 DPGEN
 -----
 Symbolic Z-matrix:
 Charge =  0 Multiplicity = 2

                         Standard orientation:
 ---------------------------------------------------------------------
 Center     Atomic      Atomic             Coordinates (Angstroms)
 Number     Number       Type             X           Y           Z
 ---------------------------------------------------------------------
      1         11           0       -3.406488   -1.064951    0.046296
      2         11           0       -0.187853   -0.506695    1.962883
      3         11           0        3.143178   -0.577498    0.738438
      4         11           0       -1.483958    2.585710    0.679492
      5         11           0        1.915951    2.062426   -0.904725
      6         11           0        0.795190   -2.521265   -0.642992
      7         11           0       -0.776020    0.022272   -1.879391
 ---------------------------------------------------------------------

 SCF Done:  E(UB3LYP) =  -1136.13097250     A.U. after   20 cycles

 The electronic state is 2-A.
 Alpha  occ. eigenvalues --  -38.44783 -38.44019 -38.44001 -38.43761 -38.43628
 Alpha  occ. eigenvalues --  -38.43509 -38.43351  -2.20550  -2.19891  -2.19842
 Alpha  occ. eigenvalues --   -2.19554  -2.19541  -2.19372  -2.19171  -1.14236
 Alpha  occ. eigenvalues --   -1.14195  -1.14194  -1.13570  -1.13537  -1.13528
 Alpha  occ. eigenvalues --   -1.13505  -1.13498  -1.13476  -1.13250  -1.13239
 Alpha  occ. eigenvalues --   -1.13218  -1.13178  -1.13172  -1.13162  -1.13048
 Alpha  occ. eigenvalues --   -1.13029  -1.12983  -1.12848  -1.12833  -1.12799
 Alpha  occ. eigenvalues --   -0.18194  -0.13020  -0.11827  -0.11284
 Alpha virt. eigenvalues --   -0.06276  -0.05020  -0.04221  -0.03435  -0.03064
 Alpha virt. eigenvalues --   -0.02928  -0.01922  -0.00927  -0.00556  -0.00007
 Alpha virt. eigenvalues --    0.00069   0.00337   0.00498   0.00742   0.00817

  Beta  occ. eigenvalues --  -38.44786 -38.43993 -38.43945 -38.43749 -38.43553
  Beta  occ. eigenvalues --  -38.43494 -38.43336  -2.20557  -2.19830  -2.19755
  Beta  occ. eigenvalues --   -2.19532  -2.19406  -2.19347  -2.19147  -1.14231
  Beta  occ. eigenvalues --   -1.14201  -1.14194  -1.13506  -1.13492  -1.13485
  Beta  occ. eigenvalues --   -1.13468  -1.13440  -1.13398  -1.13215  -1.13199
  Beta  occ. eigenvalues --   -1.13165  -1.13162  -1.13080  -1.13065  -1.13020
  Beta  occ. eigenvalues --   -1.12992  -1.12961  -1.12822  -1.12812  -1.12785
  Beta  occ. eigenvalues --   -0.17434  -0.12837  -0.11594
  Beta virt. eigenvalues --   -0.07387  -0.06203  -0.04884  -0.04002  -0.02897
  Beta virt. eigenvalues --   -0.02399  -0.01985  -0.01760  -0.00854  -0.00423
  Beta virt. eigenvalues --    0.00047   0.00077   0.00361   0.00635   0.00815

 Mulliken charges and spin densities:
               1          2
     1  Na   0.038372  -0.089497
     2  Na  -0.033442   0.475542
     3  Na   0.219621   0.073361
     4  Na  -0.230041   0.071581
     5  Na  -0.172142   0.041994
     6  Na  -0.174802  -0.006350
     7  Na   0.352434   0.433369
 Sum of Mulliken charges =  -0.00000   1.00000

 Dipole moment (field-independent basis, Debye):
    X=             -0.5990    Y=             -0.2670    Z=              0.2981  Tot=              0.7205
 Quadrupole moment (field-independent basis, Debye-Ang):
   XX=            -54.2346   YY=            -69.1436   ZZ=            -70.7893
   XY=              0.3977   XZ=             -0.4632   YZ=              1.0320

 Normal termination of Gaussian 16 at Wed Nov 29 16:00:02 2023.
