 Gaussian 16, Revision B.01,
 Gaussian 16:  ES64L-G16RevB.01 20-Dec-2017

 -------------------------
 #P B3LYP/6-311+g(d) force
 -------------------------

 -----
 DPGEN
 -----
 Symbolic Z-matrix:
 Charge =  0 Multiplicity = 2

                         Standard orientation:
 ---------------------------------------------------------------------
 Center     Atomic      Atomic             Coordinates (Angstroms)
 Number     Number       Type             X           Y           Z
 ---------------------------------------------------------------------
      1         11           0       -0.581492    2.259016   -0.405428
      2         11           0       -0.308229   -2.248893    1.318488
      3         11           0       -4.675157   -0.076503    0.208979
      4         11           0       -1.696693   -0.448235   -0.986157
      5         11           0        2.442528    2.466556    0.915456
      6         11           0        1.306970   -0.151000   -0.422112
      7         11           0        3.512073   -1.800941   -0.629227
 ---------------------------------------------------------------------

 SCF Done:  E(UB3LYP) =  -1136.10257338     A.U. after   27 cycles

 The electronic state is 2-A.
 Alpha  occ. eigenvalues --  -38.44912 -38.44539 -38.44233 -38.43918 -38.43773
 Alpha  occ. eigenvalues --  -38.43505 -38.42924  -2.20747  -2.20363  -2.20092
 Alpha  occ. eigenvalues --   -2.19745  -2.19704  -2.19511  -2.19113  -1.14437
 Alpha  occ. eigenvalues --   -1.14405  -1.14352  -1.14056  -1.14021  -1.13992
 Alpha  occ. eigenvalues --   -1.13908  -1.13704  -1.13666  -1.13512  -1.13399
 Alpha  occ. eigenvalues --   -1.13373  -1.13366  -1.13350  -1.13329  -1.13202
 Alpha  occ. eigenvalues --   -1.13149  -1.13109  -1.12807  -1.12779  -1.12680
 Alpha  occ. eigenvalues --   -0.18434  -0.13807  -0.12416  -0.10398
 Alpha virt. eigenvalues --   -0.07296  -0.04797  -0.04169  -0.03531  -0.02908
 Alpha virt. eigenvalues --   -0.02567  -0.01586  -0.01071  -0.00724  -0.00361
 Alpha virt. eigenvalues --   -0.00301  -0.00016   0.00502   0.00612   0.00637

  Beta  occ. eigenvalues --  -38.44889 -38.44540 -38.44177 -38.43807 -38.43768
  Beta  occ. eigenvalues --  -38.43492 -38.42898  -2.20705  -2.20364  -2.19987
  Beta  occ. eigenvalues --   -2.19695  -2.19539  -2.19497  -2.19077  -1.14401
  Beta  occ. eigenvalues --   -1.14373  -1.14331  -1.14060  -1.14022  -1.13985
  Beta  occ. eigenvalues --   -1.13839  -1.13633  -1.13590  -1.13491  -1.13345
  Beta  occ. eigenvalues --   -1.13329  -1.13276  -1.13233  -1.13227  -1.13142
  Beta  occ. eigenvalues --   -1.13133  -1.13098  -1.12768  -1.12715  -1.12653
  Beta  occ. eigenvalues --   -0.17944  -0.12937  -0.12285
  Beta virt. eigenvalues --   -0.07076  -0.06810  -0.04654  -0.03974  -0.03059
  Beta virt. eigenvalues --   -0.02521  -0.02380  -0.01234  -0.00897  -0.00400
  Beta virt. eigenvalues --   -0.00111   0.00019   0.00191   0.00667   0.00705

 Mulliken charges and spin densities:
               1          2
     1  Na   1.374738   0.051976
     2  Na   0.185898  -0.017079
     3  Na  -0.163409   0.553943
     4  Na   1.349801   0.159206
     5  Na   0.653641   0.019873
     6  Na  -3.312718   0.074114
     7  Na  -0.087951   0.157967
 Sum of Mulliken charges =  -0.00000   1.00000

 Dipole moment (field-independent basis, Debye):
    X=              0.7551    Y=             -0.0652    Z=              1.3354  Tot=              1.5355
 Quadrupole moment (field-independent basis, Debye-Ang):
   XX=            -73.3458   YY=            -65.8176   ZZ=            -63.6535
   XY=              1.7553   XZ=             -0.2430   YZ=             -0.2226

 Normal termination of Gaussian 16 at Sat Dec  9 05:57:34 2023.
