 Gaussian 16, Revision B.01,
 Gaussian 16:  ES64L-G16RevB.01 20-Dec-2017

 -------------------------
 #P B3LYP/6-311+g(d) force
 -------------------------

 -----
 DPGEN
 -----
 Symbolic Z-matrix:
 Charge =  0 Multiplicity = 2

                         Standard orientation:
 ---------------------------------------------------------------------
 Center     Atomic      Atomic             Coordinates (Angstroms)
 Number     Number       Type             X           Y           Z
 ---------------------------------------------------------------------
      1         11           0       -3.013299   -0.828520    1.927542
      2         11           0       -0.027085   -1.947685    0.100027
      3         11           0        3.609366   -1.386081   -0.361608
      4         11           0        5.171803    1.142252   -0.092313
      5         11           0       -3.135758   -1.008280   -1.644063
      6         11           0        0.769078    1.683794    0.645826
      7         11           0       -3.374104    2.344519   -0.575410
 ---------------------------------------------------------------------

 SCF Done:  E(UB3LYP) =  -1136.10338054     A.U. after   26 cycles

 The electronic state is 2-A.
 Alpha  occ. eigenvalues --  -38.46906 -38.45224 -38.44791 -38.44259 -38.43995
 Alpha  occ. eigenvalues --  -38.43253 -38.42453  -2.22649  -2.21034  -2.20563
 Alpha  occ. eigenvalues --   -2.20089  -2.19811  -2.19022  -2.18270  -1.16335
 Alpha  occ. eigenvalues --   -1.16294  -1.16275  -1.14716  -1.14672  -1.14642
 Alpha  occ. eigenvalues --   -1.14235  -1.14203  -1.14152  -1.13825  -1.13758
 Alpha  occ. eigenvalues --   -1.13721  -1.13454  -1.13451  -1.13431  -1.12709
 Alpha  occ. eigenvalues --   -1.12679  -1.12666  -1.11969  -1.11946  -1.11904
 Alpha  occ. eigenvalues --   -0.16748  -0.14213  -0.10906  -0.10677
 Alpha virt. eigenvalues --   -0.07574  -0.06127  -0.03973  -0.03241  -0.03111
 Alpha virt. eigenvalues --   -0.02829  -0.02131  -0.01761  -0.01085  -0.00999
 Alpha virt. eigenvalues --   -0.00425  -0.00046   0.00155   0.00333   0.00622

  Beta  occ. eigenvalues --  -38.46901 -38.45176 -38.44685 -38.44245 -38.43970
  Beta  occ. eigenvalues --  -38.43249 -38.42455  -2.22642  -2.20945  -2.20368
  Beta  occ. eigenvalues --   -2.20065  -2.19768  -2.19017  -2.18277  -1.16312
  Beta  occ. eigenvalues --   -1.16291  -1.16274  -1.14652  -1.14614  -1.14579
  Beta  occ. eigenvalues --   -1.14103  -1.14066  -1.14016  -1.13804  -1.13744
  Beta  occ. eigenvalues --   -1.13694  -1.13426  -1.13413  -1.13406  -1.12707
  Beta  occ. eigenvalues --   -1.12677  -1.12648  -1.11975  -1.11940  -1.11904
  Beta  occ. eigenvalues --   -0.16118  -0.13809  -0.10554
  Beta virt. eigenvalues --   -0.07437  -0.07168  -0.05910  -0.03545  -0.03089
  Beta virt. eigenvalues --   -0.02837  -0.02151  -0.01953  -0.01525  -0.00887
  Beta virt. eigenvalues --   -0.00760  -0.00189   0.00015   0.00207   0.00423

 Mulliken charges and spin densities:
               1          2
     1  Na   0.789889   0.071539
     2  Na  -0.926802  -0.074788
     3  Na  -0.081463   0.098858
     4  Na   0.005803   0.132626
     5  Na   0.557850   0.309167
     6  Na  -0.160019   0.496442
     7  Na  -0.185257  -0.033845
 Sum of Mulliken charges =  -0.00000   1.00000

 Dipole moment (field-independent basis, Debye):
    X=             -1.0536    Y=             -0.5026    Z=              0.9067  Tot=              1.4781
 Quadrupole moment (field-independent basis, Debye-Ang):
   XX=            -67.3770   YY=            -73.4175   ZZ=            -61.7370
   XY=              6.4047   XZ=             -5.5965   YZ=              2.7650

 Normal termination of Gaussian 16 at Sun Dec  3 21:10:07 2023.
