 Gaussian 16, Revision B.01,
 Gaussian 16:  ES64L-G16RevB.01 20-Dec-2017

 -------------------------
 #P B3LYP/6-311+g(d) force
 -------------------------

 -----
 DPGEN
 -----
 Symbolic Z-matrix:
 Charge =  0 Multiplicity = 2

                         Standard orientation:
 ---------------------------------------------------------------------
 Center     Atomic      Atomic             Coordinates (Angstroms)
 Number     Number       Type             X           Y           Z
 ---------------------------------------------------------------------
      1         11           0       -0.636300   -0.233340    2.479654
      2         11           0       -1.919651   -1.899668   -0.685571
      3         11           0       -3.545832    0.782263   -0.144830
      4         11           0       -0.098087    2.760767   -0.129853
      5         11           0        0.904184   -0.139598   -2.187229
      6         11           0        3.401454    1.182370    0.297303
      7         11           0        1.894231   -2.452794    0.370525
 ---------------------------------------------------------------------

 SCF Done:  E(UB3LYP) =  -1136.12471015     A.U. after   20 cycles

 The electronic state is 2-A.
 Alpha  occ. eigenvalues --  -38.44915 -38.44895 -38.44483 -38.44464 -38.43540
 Alpha  occ. eigenvalues --  -38.43537 -38.43346  -2.20682  -2.20660  -2.20309
 Alpha  occ. eigenvalues --   -2.20253  -2.19372  -2.19319  -2.19116  -1.14342
 Alpha  occ. eigenvalues --   -1.14333  -1.14317  -1.14312  -1.14300  -1.14297
 Alpha  occ. eigenvalues --   -1.13983  -1.13946  -1.13946  -1.13925  -1.13911
 Alpha  occ. eigenvalues --   -1.13886  -1.13053  -1.13034  -1.13007  -1.12992
 Alpha  occ. eigenvalues --   -1.12983  -1.12963  -1.12809  -1.12798  -1.12732
 Alpha  occ. eigenvalues --   -0.17417  -0.13014  -0.11475  -0.11286
 Alpha virt. eigenvalues --   -0.06548  -0.05276  -0.04544  -0.03438  -0.03201
 Alpha virt. eigenvalues --   -0.02988  -0.01950  -0.01199  -0.00450  -0.00283
 Alpha virt. eigenvalues --   -0.00163   0.00117   0.00371   0.00537   0.00811

  Beta  occ. eigenvalues --  -38.44918 -38.44796 -38.44465 -38.44419 -38.43537
  Beta  occ. eigenvalues --  -38.43523 -38.43342  -2.20667  -2.20499  -2.20257
  Beta  occ. eigenvalues --   -2.20191  -2.19348  -2.19316  -2.19112  -1.14337
  Beta  occ. eigenvalues --   -1.14318  -1.14305  -1.14210  -1.14190  -1.14164
  Beta  occ. eigenvalues --   -1.13947  -1.13906  -1.13905  -1.13888  -1.13865
  Beta  occ. eigenvalues --   -1.13837  -1.13035  -1.13000  -1.12993  -1.12984
  Beta  occ. eigenvalues --   -1.12968  -1.12963  -1.12802  -1.12785  -1.12732
  Beta  occ. eigenvalues --   -0.16681  -0.12914  -0.11306
  Beta virt. eigenvalues --   -0.07428  -0.06308  -0.05249  -0.04099  -0.03049
  Beta virt. eigenvalues --   -0.02313  -0.02281  -0.01842  -0.01128  -0.00461
  Beta virt. eigenvalues --   -0.00181  -0.00056   0.00360   0.00462   0.00705

 Mulliken charges and spin densities:
               1          2
     1  Na  -0.322863   0.670950
     2  Na   0.063556   0.102231
     3  Na   0.182500  -0.077543
     4  Na  -0.229709  -0.046016
     5  Na   0.205897   0.434118
     6  Na   0.123942  -0.062392
     7  Na  -0.023324  -0.021347
 Sum of Mulliken charges =  -0.00000   1.00000

 Dipole moment (field-independent basis, Debye):
    X=              0.2780    Y=              0.1422    Z=              0.1963  Tot=              0.3689
 Quadrupole moment (field-independent basis, Debye-Ang):
   XX=            -54.3358   YY=            -73.0138   ZZ=            -68.9413
   XY=             -0.9722   XZ=              1.8726   YZ=              0.0187

 Normal termination of Gaussian 16 at Sun Dec  3 21:19:10 2023.
