 Gaussian 16, Revision B.01,
 Gaussian 16:  ES64L-G16RevB.01 20-Dec-2017

 -------------------------
 #P B3LYP/6-311+g(d) force
 -------------------------

 -----
 DPGEN
 -----
 Symbolic Z-matrix:
 Charge =  0 Multiplicity = 2

                         Standard orientation:
 ---------------------------------------------------------------------
 Center     Atomic      Atomic             Coordinates (Angstroms)
 Number     Number       Type             X           Y           Z
 ---------------------------------------------------------------------
      1         11           0        0.270489   -2.155545    1.347089
      2         11           0       -1.403234    3.373280   -0.656326
      3         11           0       -2.389399    0.039104   -0.384508
      4         11           0       -2.189971   -2.814224   -1.354767
      5         11           0       -0.420041    0.891180    2.531653
      6         11           0        4.163660   -0.769953   -0.541209
      7         11           0        1.968497    1.436158   -0.941931
 ---------------------------------------------------------------------

 SCF Done:  E(UB3LYP) =  -1136.12150179     A.U. after   19 cycles

 The electronic state is 2-A.
 Alpha  occ. eigenvalues --  -38.45208 -38.44630 -38.43963 -38.43810 -38.43800
 Alpha  occ. eigenvalues --  -38.43714 -38.43590  -2.21038  -2.20429  -2.19804
 Alpha  occ. eigenvalues --   -2.19684  -2.19611  -2.19500  -2.19381  -1.14707
 Alpha  occ. eigenvalues --   -1.14685  -1.14627  -1.14127  -1.14088  -1.14039
 Alpha  occ. eigenvalues --   -1.13568  -1.13443  -1.13415  -1.13368  -1.13352
 Alpha  occ. eigenvalues --   -1.13299  -1.13288  -1.13264  -1.13262  -1.13169
 Alpha  occ. eigenvalues --   -1.13159  -1.13125  -1.13036  -1.13027  -1.13009
 Alpha  occ. eigenvalues --   -0.17279  -0.12937  -0.12249  -0.11761
 Alpha virt. eigenvalues --   -0.05771  -0.05358  -0.04810  -0.03498  -0.03288
 Alpha virt. eigenvalues --   -0.02524  -0.01522  -0.01370  -0.00980  -0.00650
 Alpha virt. eigenvalues --   -0.00114   0.00227   0.00341   0.00456   0.00702

  Beta  occ. eigenvalues --  -38.45109 -38.44598 -38.43922 -38.43796 -38.43780
  Beta  occ. eigenvalues --  -38.43702 -38.43583  -2.20856  -2.20374  -2.19728
  Beta  occ. eigenvalues --   -2.19652  -2.19587  -2.19480  -2.19368  -1.14580
  Beta  occ. eigenvalues --   -1.14565  -1.14490  -1.14079  -1.14032  -1.14006
  Beta  occ. eigenvalues --   -1.13514  -1.13392  -1.13369  -1.13339  -1.13317
  Beta  occ. eigenvalues --   -1.13282  -1.13273  -1.13243  -1.13234  -1.13150
  Beta  occ. eigenvalues --   -1.13144  -1.13114  -1.13027  -1.13015  -1.13002
  Beta  occ. eigenvalues --   -0.16530  -0.12517  -0.12085
  Beta virt. eigenvalues --   -0.07948  -0.05541  -0.05149  -0.04437  -0.03164
  Beta virt. eigenvalues --   -0.02622  -0.02042  -0.01440  -0.01298  -0.00573
  Beta virt. eigenvalues --   -0.00526   0.00050   0.00329   0.00568   0.00577

 Mulliken charges and spin densities:
               1          2
     1  Na  -0.227898   0.265632
     2  Na   0.498048  -0.010518
     3  Na  -0.856279   0.357525
     4  Na   0.591388   0.012229
     5  Na   0.337850   0.277935
     6  Na   0.431937  -0.062961
     7  Na  -0.775046   0.160158
 Sum of Mulliken charges =  -0.00000   1.00000

 Dipole moment (field-independent basis, Debye):
    X=             -0.2999    Y=             -0.2625    Z=              0.5091  Tot=              0.6466
 Quadrupole moment (field-independent basis, Debye-Ang):
   XX=            -69.1335   YY=            -60.8805   ZZ=            -67.3233
   XY=             -3.8485   XZ=              2.1399   YZ=              1.3851

 Normal termination of Gaussian 16 at Mon Dec  4 02:40:39 2023.
