 Gaussian 16, Revision B.01,
 Gaussian 16:  ES64L-G16RevB.01 20-Dec-2017

 -------------------------
 #P B3LYP/6-311+g(d) force
 -------------------------

 -----
 DPGEN
 -----
 Symbolic Z-matrix:
 Charge =  0 Multiplicity = 2

                         Standard orientation:
 ---------------------------------------------------------------------
 Center     Atomic      Atomic             Coordinates (Angstroms)
 Number     Number       Type             X           Y           Z
 ---------------------------------------------------------------------
      1         11           0        2.327208    1.718987   -1.259557
      2         11           0       -1.588324   -0.319539    1.743678
      3         11           0       -0.545156    3.223801    0.501351
      4         11           0       -3.922894    0.716064   -0.501996
      5         11           0       -2.399688   -2.498646   -1.154625
      6         11           0        1.501844   -2.305916    0.598794
      7         11           0        4.627010   -0.534751    0.072354
 ---------------------------------------------------------------------

 SCF Done:  E(UB3LYP) =  -1136.11499760     A.U. after   22 cycles

 The electronic state is 2-A.
 Alpha  occ. eigenvalues --  -38.44958 -38.44709 -38.44666 -38.44487 -38.44325
 Alpha  occ. eigenvalues --  -38.43918 -38.43362  -2.20720  -2.20513  -2.20419
 Alpha  occ. eigenvalues --   -2.20302  -2.20109  -2.19687  -2.19121  -1.14407
 Alpha  occ. eigenvalues --   -1.14367  -1.14356  -1.14193  -1.14162  -1.14122
 Alpha  occ. eigenvalues --   -1.14114  -1.14090  -1.14040  -1.13980  -1.13962
 Alpha  occ. eigenvalues --   -1.13921  -1.13774  -1.13759  -1.13744  -1.13372
 Alpha  occ. eigenvalues --   -1.13361  -1.13295  -1.12796  -1.12784  -1.12760
 Alpha  occ. eigenvalues --   -0.16424  -0.13849  -0.11840  -0.10431
 Alpha virt. eigenvalues --   -0.07128  -0.05574  -0.04593  -0.03432  -0.03248
 Alpha virt. eigenvalues --   -0.02413  -0.01866  -0.01652  -0.00952  -0.00690
 Alpha virt. eigenvalues --   -0.00454  -0.00202   0.00190   0.00440   0.00631

  Beta  occ. eigenvalues --  -38.44937 -38.44659 -38.44654 -38.44448 -38.44300
  Beta  occ. eigenvalues --  -38.43884 -38.43354  -2.20686  -2.20412  -2.20408
  Beta  occ. eigenvalues --   -2.20234  -2.20064  -2.19625  -2.19107  -1.14387
  Beta  occ. eigenvalues --   -1.14349  -1.14302  -1.14127  -1.14107  -1.14098
  Beta  occ. eigenvalues --   -1.14083  -1.14038  -1.14024  -1.13933  -1.13899
  Beta  occ. eigenvalues --   -1.13868  -1.13743  -1.13723  -1.13715  -1.13331
  Beta  occ. eigenvalues --   -1.13318  -1.13243  -1.12784  -1.12776  -1.12750
  Beta  occ. eigenvalues --   -0.15802  -0.13350  -0.11636
  Beta virt. eigenvalues --   -0.07106  -0.06962  -0.05265  -0.04243  -0.03056
  Beta virt. eigenvalues --   -0.02847  -0.02234  -0.01499  -0.01306  -0.00772
  Beta virt. eigenvalues --   -0.00620  -0.00235  -0.00008   0.00305   0.00558

 Mulliken charges and spin densities:
               1          2
     1  Na  -0.234789   0.099246
     2  Na   0.626831   0.223749
     3  Na  -0.174166  -0.050664
     4  Na  -0.000901   0.356307
     5  Na  -0.111793   0.152487
     6  Na  -0.432363   0.067367
     7  Na   0.327181   0.151509
 Sum of Mulliken charges =  -0.00000   1.00000

 Dipole moment (field-independent basis, Debye):
    X=             -0.1766    Y=             -0.4771    Z=             -0.3186  Tot=              0.6003
 Quadrupole moment (field-independent basis, Debye-Ang):
   XX=            -61.5155   YY=            -68.9543   ZZ=            -68.3235
   XY=             -3.0688   XZ=              0.3667   YZ=              1.1795

 Normal termination of Gaussian 16 at Sun Dec  3 21:49:51 2023.
