 Gaussian 16, Revision B.01,
 Gaussian 16:  ES64L-G16RevB.01 20-Dec-2017

 -------------------------
 #P B3LYP/6-311+g(d) force
 -------------------------

 -----
 DPGEN
 -----
 Symbolic Z-matrix:
 Charge =  0 Multiplicity = 2

                         Standard orientation:
 ---------------------------------------------------------------------
 Center     Atomic      Atomic             Coordinates (Angstroms)
 Number     Number       Type             X           Y           Z
 ---------------------------------------------------------------------
      1         11           0        1.313993    2.249536    0.454420
      2         11           0       -2.022051    2.049293   -0.384481
      3         11           0       -3.273886   -0.695392   -1.303537
      4         11           0       -1.435563   -0.172740    1.718136
      5         11           0        1.919738   -0.980545    1.432829
      6         11           0       -0.115511   -2.520592   -0.268625
      7         11           0        3.613279    0.070441   -1.648743
 ---------------------------------------------------------------------

 SCF Done:  E(UB3LYP) =  -1136.12611921     A.U. after   21 cycles

 The electronic state is 2-A.
 Alpha  occ. eigenvalues --  -38.44780 -38.44262 -38.44214 -38.43670 -38.43361
 Alpha  occ. eigenvalues --  -38.43343 -38.43328  -2.20565  -2.20149  -2.20112
 Alpha  occ. eigenvalues --   -2.19575  -2.19252  -2.19181  -2.19164  -1.14219
 Alpha  occ. eigenvalues --   -1.14200  -1.14175  -1.13848  -1.13813  -1.13786
 Alpha  occ. eigenvalues --   -1.13780  -1.13753  -1.13724  -1.13296  -1.13250
 Alpha  occ. eigenvalues --   -1.13195  -1.12941  -1.12916  -1.12894  -1.12860
 Alpha  occ. eigenvalues --   -1.12849  -1.12840  -1.12834  -1.12808  -1.12777
 Alpha  occ. eigenvalues --   -0.18053  -0.13933  -0.11826  -0.11194
 Alpha virt. eigenvalues --   -0.05753  -0.05293  -0.05050  -0.03589  -0.02758
 Alpha virt. eigenvalues --   -0.02624  -0.01635  -0.00736  -0.00483  -0.00236
 Alpha virt. eigenvalues --   -0.00155   0.00311   0.00339   0.00441   0.00486

  Beta  occ. eigenvalues --  -38.44697 -38.44214 -38.44172 -38.43653 -38.43356
  Beta  occ. eigenvalues --  -38.43342 -38.43329  -2.20409  -2.20075  -2.20020
  Beta  occ. eigenvalues --   -2.19549  -2.19246  -2.19184  -2.19165  -1.14112
  Beta  occ. eigenvalues --   -1.14093  -1.14074  -1.13803  -1.13749  -1.13726
  Beta  occ. eigenvalues --   -1.13715  -1.13689  -1.13662  -1.13286  -1.13223
  Beta  occ. eigenvalues --   -1.13150  -1.12937  -1.12915  -1.12877  -1.12860
  Beta  occ. eigenvalues --   -1.12844  -1.12836  -1.12821  -1.12813  -1.12761
  Beta  occ. eigenvalues --   -0.17453  -0.13360  -0.11646
  Beta virt. eigenvalues --   -0.07651  -0.05415  -0.04949  -0.04668  -0.03530
  Beta virt. eigenvalues --   -0.02226  -0.01889  -0.01408  -0.00493  -0.00349
  Beta virt. eigenvalues --   -0.00100  -0.00046   0.00445   0.00483   0.00565

 Mulliken charges and spin densities:
               1          2
     1  Na  -0.650695   0.008152
     2  Na   0.133999   0.005496
     3  Na   0.058353   0.254081
     4  Na   0.287909   0.228157
     5  Na   0.656459   0.072293
     6  Na  -0.551546   0.016964
     7  Na   0.065521   0.414858
 Sum of Mulliken charges =  -0.00000   1.00000

 Dipole moment (field-independent basis, Debye):
    X=             -0.1173    Y=             -0.2848    Z=             -0.4178  Tot=              0.5191
 Quadrupole moment (field-independent basis, Debye-Ang):
   XX=            -60.6659   YY=            -73.1190   ZZ=            -64.3386
   XY=              0.0461   XZ=             -0.0692   YZ=              1.2268

 Normal termination of Gaussian 16 at Wed Nov 29 01:21:49 2023.
