 Gaussian 16, Revision B.01,
 Gaussian 16:  ES64L-G16RevB.01 20-Dec-2017

 -------------------------
 #P B3LYP/6-311+g(d) force
 -------------------------

 -----
 DPGEN
 -----
 Symbolic Z-matrix:
 Charge =  0 Multiplicity = 2

                         Standard orientation:
 ---------------------------------------------------------------------
 Center     Atomic      Atomic             Coordinates (Angstroms)
 Number     Number       Type             X           Y           Z
 ---------------------------------------------------------------------
      1         11           0       -0.386817    1.745843   -0.166884
      2         11           0        2.340788    2.972285   -0.072199
      3         11           0        0.311471   -1.579384   -1.710105
      4         11           0       -4.021010    1.390105    0.528598
      5         11           0        3.571313   -0.867927   -0.105659
      6         11           0       -2.961912   -1.727098   -0.338504
      7         11           0        1.146166   -1.933824    1.864753
 ---------------------------------------------------------------------

 SCF Done:  E(UB3LYP) =  -1136.11699014     A.U. after   22 cycles

 The electronic state is 2-A.
 Alpha  occ. eigenvalues --  -38.44981 -38.44899 -38.44530 -38.44029 -38.43873
 Alpha  occ. eigenvalues --  -38.43533 -38.43403  -2.20779  -2.20696  -2.20318
 Alpha  occ. eigenvalues --   -2.19835  -2.19720  -2.19378  -2.19219  -1.14472
 Alpha  occ. eigenvalues --   -1.14442  -1.14408  -1.14362  -1.14328  -1.14311
 Alpha  occ. eigenvalues --   -1.14002  -1.13978  -1.13967  -1.13486  -1.13481
 Alpha  occ. eigenvalues --   -1.13458  -1.13389  -1.13363  -1.13335  -1.13114
 Alpha  occ. eigenvalues --   -1.13069  -1.13047  -1.12867  -1.12848  -1.12827
 Alpha  occ. eigenvalues --   -0.17139  -0.13699  -0.12115  -0.10429
 Alpha virt. eigenvalues --   -0.06847  -0.06106  -0.04013  -0.03469  -0.02785
 Alpha virt. eigenvalues --   -0.02518  -0.02136  -0.01770  -0.01129  -0.00408
 Alpha virt. eigenvalues --   -0.00164  -0.00028   0.00235   0.00409   0.00639

  Beta  occ. eigenvalues --  -38.44961 -38.44860 -38.44522 -38.43971 -38.43804
  Beta  occ. eigenvalues --  -38.43526 -38.43405  -2.20745  -2.20626  -2.20309
  Beta  occ. eigenvalues --   -2.19725  -2.19593  -2.19368  -2.19223  -1.14432
  Beta  occ. eigenvalues --   -1.14423  -1.14379  -1.14316  -1.14274  -1.14262
  Beta  occ. eigenvalues --   -1.14000  -1.13974  -1.13924  -1.13410  -1.13405
  Beta  occ. eigenvalues --   -1.13389  -1.13302  -1.13274  -1.13243  -1.13112
  Beta  occ. eigenvalues --   -1.13059  -1.13028  -1.12869  -1.12851  -1.12824
  Beta  occ. eigenvalues --   -0.16627  -0.13140  -0.11862
  Beta virt. eigenvalues --   -0.06968  -0.06596  -0.05981  -0.03749  -0.02942
  Beta virt. eigenvalues --   -0.02440  -0.02136  -0.01991  -0.01478  -0.00905
  Beta virt. eigenvalues --   -0.00122  -0.00050   0.00167   0.00346   0.00465

 Mulliken charges and spin densities:
               1          2
     1  Na  -2.055025   0.097429
     2  Na   1.054163  -0.212866
     3  Na   0.453190   0.298590
     4  Na   0.542561   0.389549
     5  Na  -0.038366   0.300193
     6  Na  -0.028008   0.006323
     7  Na   0.071485   0.120782
 Sum of Mulliken charges =  -0.00000   1.00000

 Dipole moment (field-independent basis, Debye):
    X=              0.5534    Y=             -0.9693    Z=              0.1274  Tot=              1.1234
 Quadrupole moment (field-independent basis, Debye-Ang):
   XX=            -57.4714   YY=            -72.0423   ZZ=            -69.6077
   XY=              3.4309   XZ=             -4.0353   YZ=              0.4829

 Normal termination of Gaussian 16 at Sun Dec  3 13:29:11 2023.
