 Gaussian 16, Revision B.01,
 Gaussian 16:  ES64L-G16RevB.01 20-Dec-2017

 -------------------------
 #P B3LYP/6-311+g(d) force
 -------------------------

 -----
 DPGEN
 -----
 Symbolic Z-matrix:
 Charge =  0 Multiplicity = 2

                         Standard orientation:
 ---------------------------------------------------------------------
 Center     Atomic      Atomic             Coordinates (Angstroms)
 Number     Number       Type             X           Y           Z
 ---------------------------------------------------------------------
      1         11           0       -0.818391    0.780665    1.138794
      2         11           0        0.397511   -1.685381    0.959277
      3         11           0       -3.344414   -0.001858   -0.003679
      4         11           0       -0.814041   -0.580893   -1.250344
      5         11           0        1.931862   -0.781307   -1.138508
      6         11           0        0.722561    1.686740   -0.959081
      7         11           0        1.924912    0.582035    1.253540
 ---------------------------------------------------------------------

 SCF Done:  E(UB3LYP) =  -1136.03998592     A.U. after   30 cycles

 The electronic state is 2-A.
 Alpha  occ. eigenvalues --  -38.45100 -38.44996 -38.44965 -38.44563 -38.44534
 Alpha  occ. eigenvalues --  -38.43005 -38.42982  -2.21296  -2.21227  -2.21026
 Alpha  occ. eigenvalues --   -2.20962  -2.20894  -2.19250  -2.19229  -1.15353
 Alpha  occ. eigenvalues --   -1.15189  -1.15157  -1.15016  -1.14918  -1.14815
 Alpha  occ. eigenvalues --   -1.14785  -1.14743  -1.14664  -1.14619  -1.14554
 Alpha  occ. eigenvalues --   -1.14475  -1.14465  -1.14417  -1.14326  -1.12951
 Alpha  occ. eigenvalues --   -1.12940  -1.12876  -1.12848  -1.12805  -1.12762
 Alpha  occ. eigenvalues --   -0.22119  -0.14313  -0.13137  -0.11857
 Alpha virt. eigenvalues --   -0.06318  -0.04093  -0.03853  -0.03412  -0.02753
 Alpha virt. eigenvalues --   -0.02482  -0.01747  -0.00508  -0.00122   0.00249
 Alpha virt. eigenvalues --    0.00573   0.00733   0.00989   0.01051   0.01069

  Beta  occ. eigenvalues --  -38.45097 -38.44933 -38.44903 -38.44493 -38.44465
  Beta  occ. eigenvalues --  -38.42986 -38.42962  -2.21188  -2.21119  -2.21018
  Beta  occ. eigenvalues --   -2.20846  -2.20774  -2.19225  -2.19202  -1.15292
  Beta  occ. eigenvalues --   -1.15078  -1.15049  -1.14952  -1.14844  -1.14742
  Beta  occ. eigenvalues --   -1.14738  -1.14718  -1.14600  -1.14584  -1.14494
  Beta  occ. eigenvalues --   -1.14400  -1.14383  -1.14331  -1.14215  -1.12944
  Beta  occ. eigenvalues --   -1.12931  -1.12799  -1.12780  -1.12755  -1.12752
  Beta  occ. eigenvalues --   -0.21238  -0.14194  -0.11471
  Beta virt. eigenvalues --   -0.08504  -0.06240  -0.03504  -0.03400  -0.03198
  Beta virt. eigenvalues --   -0.01866  -0.01767  -0.01702  -0.00174  -0.00102
  Beta virt. eigenvalues --    0.00277   0.00629   0.00905   0.01016   0.01041

 Mulliken charges and spin densities:
               1          2
     1  Na  -0.404927   0.315527
     2  Na   0.245313   0.124639
     3  Na  -0.136375   0.010156
     4  Na  -0.407657   0.327777
     5  Na   0.247804   0.011747
     6  Na   0.216632   0.165104
     7  Na   0.239210   0.045050
 Sum of Mulliken charges =  -0.00000   1.00000

 Dipole moment (field-independent basis, Debye):
    X=             -0.7557    Y=             -0.0352    Z=              0.0156  Tot=              0.7566
 Quadrupole moment (field-independent basis, Debye-Ang):
   XX=            -52.2187   YY=            -75.7059   ZZ=            -67.4308
   XY=              0.1164   XZ=             -0.0748   YZ=              5.1316

 Normal termination of Gaussian 16 at Fri Dec  8 17:41:46 2023.
