 Gaussian 16, Revision B.01,
 Gaussian 16:  ES64L-G16RevB.01 20-Dec-2017

 -------------------------
 #P B3LYP/6-311+g(d) force
 -------------------------

 -----
 DPGEN
 -----
 Symbolic Z-matrix:
 Charge =  0 Multiplicity = 2

                         Standard orientation:
 ---------------------------------------------------------------------
 Center     Atomic      Atomic             Coordinates (Angstroms)
 Number     Number       Type             X           Y           Z
 ---------------------------------------------------------------------
      1         11           0        3.464472    0.248557   -0.095463
      2         11           0        0.909738   -2.490835    0.515860
      3         11           0        0.603257    2.681955    0.174171
      4         11           0       -2.609752    1.531236   -0.055108
      5         11           0        0.335633   -0.047629   -1.795042
      6         11           0       -2.100002   -1.763068   -0.649831
      7         11           0       -0.603347   -0.160216    1.905414
 ---------------------------------------------------------------------

 SCF Done:  E(UB3LYP) =  -1136.13645405     A.U. after   19 cycles

 The electronic state is 2-A.
 Alpha  occ. eigenvalues --  -38.44271 -38.43567 -38.43528 -38.43490 -38.43351
 Alpha  occ. eigenvalues --  -38.43347 -38.43201  -2.20048  -2.19500  -2.19449
 Alpha  occ. eigenvalues --   -2.19443  -2.19283  -2.19199  -2.19107  -1.13726
 Alpha  occ. eigenvalues --   -1.13699  -1.13692  -1.13206  -1.13200  -1.13147
 Alpha  occ. eigenvalues --   -1.13129  -1.13112  -1.13104  -1.13091  -1.13076
 Alpha  occ. eigenvalues --   -1.13065  -1.12942  -1.12926  -1.12913  -1.12880
 Alpha  occ. eigenvalues --   -1.12876  -1.12805  -1.12793  -1.12757  -1.12707
 Alpha  occ. eigenvalues --   -0.18981  -0.12909  -0.12536  -0.11135
 Alpha virt. eigenvalues --   -0.05795  -0.04739  -0.04478  -0.03216  -0.03099
 Alpha virt. eigenvalues --   -0.02720  -0.01619  -0.00925  -0.00196  -0.00090
 Alpha virt. eigenvalues --    0.00056   0.00342   0.00818   0.00924   0.00931

  Beta  occ. eigenvalues --  -38.44274 -38.43562 -38.43444 -38.43419 -38.43343
  Beta  occ. eigenvalues --  -38.43328 -38.43184  -2.20055  -2.19438  -2.19346
  Beta  occ. eigenvalues --   -2.19318  -2.19247  -2.19193  -2.19080  -1.13721
  Beta  occ. eigenvalues --   -1.13705  -1.13697  -1.13159  -1.13111  -1.13096
  Beta  occ. eigenvalues --   -1.13075  -1.13061  -1.13026  -1.13015  -1.13001
  Beta  occ. eigenvalues --   -1.12978  -1.12907  -1.12893  -1.12873  -1.12862
  Beta  occ. eigenvalues --   -1.12852  -1.12802  -1.12763  -1.12713  -1.12693
  Beta  occ. eigenvalues --   -0.18222  -0.12708  -0.12264
  Beta virt. eigenvalues --   -0.07131  -0.05744  -0.04737  -0.04428  -0.02521
  Beta virt. eigenvalues --   -0.02279  -0.01692  -0.01498  -0.00854  -0.00160
  Beta virt. eigenvalues --   -0.00082   0.00116   0.00373   0.00872   0.00925

 Mulliken charges and spin densities:
               1          2
     1  Na  -0.068293  -0.114427
     2  Na   0.136864   0.006718
     3  Na  -0.095295  -0.123473
     4  Na   0.152241  -0.042396
     5  Na  -0.302198   0.576535
     6  Na   0.359213   0.111827
     7  Na  -0.182532   0.585216
 Sum of Mulliken charges =  -0.00000   1.00000

 Dipole moment (field-independent basis, Debye):
    X=              0.2804    Y=              0.1231    Z=              0.0119  Tot=              0.3065
 Quadrupole moment (field-independent basis, Debye-Ang):
   XX=            -55.7996   YY=            -65.7833   ZZ=            -72.3454
   XY=             -0.2862   XZ=              1.8039   YZ=              0.3126

 Normal termination of Gaussian 16 at Wed Dec  6 00:13:34 2023.
