 Gaussian 16, Revision B.01,
 Gaussian 16:  ES64L-G16RevB.01 20-Dec-2017

 -------------------------
 #P B3LYP/6-311+g(d) force
 -------------------------

 -----
 DPGEN
 -----
 Symbolic Z-matrix:
 Charge =  0 Multiplicity = 2

                         Standard orientation:
 ---------------------------------------------------------------------
 Center     Atomic      Atomic             Coordinates (Angstroms)
 Number     Number       Type             X           Y           Z
 ---------------------------------------------------------------------
      1         11           0        1.802869    2.259555    0.015298
      2         11           0       -3.013959   -1.136113    0.196111
      3         11           0        0.262178   -2.778412   -0.118236
      4         11           0       -0.520228    0.073729   -1.723535
      5         11           0       -1.615599    2.336453   -0.226559
      6         11           0       -0.069806    0.178007    2.023945
      7         11           0        3.154546   -0.933220   -0.167025
 ---------------------------------------------------------------------

 SCF Done:  E(UB3LYP) =  -1136.13691463     A.U. after   20 cycles

 The electronic state is 2-A.
 Alpha  occ. eigenvalues --  -38.44096 -38.43913 -38.43619 -38.43504 -38.43456
 Alpha  occ. eigenvalues --  -38.43397 -38.43347  -2.19921  -2.19717  -2.19519
 Alpha  occ. eigenvalues --   -2.19423  -2.19380  -2.19314  -2.19196  -1.13596
 Alpha  occ. eigenvalues --   -1.13581  -1.13562  -1.13386  -1.13377  -1.13371
 Alpha  occ. eigenvalues --   -1.13290  -1.13194  -1.13154  -1.13141  -1.13069
 Alpha  occ. eigenvalues --   -1.13043  -1.13031  -1.12990  -1.12982  -1.12966
 Alpha  occ. eigenvalues --   -1.12955  -1.12936  -1.12874  -1.12866  -1.12813
 Alpha  occ. eigenvalues --   -0.18737  -0.12935  -0.12582  -0.10835
 Alpha virt. eigenvalues --   -0.05683  -0.05200  -0.04584  -0.03157  -0.02974
 Alpha virt. eigenvalues --   -0.02623  -0.01574  -0.01072  -0.00334  -0.00234
 Alpha virt. eigenvalues --   -0.00023   0.00347   0.00825   0.00884   0.00908

  Beta  occ. eigenvalues --  -38.44091 -38.43913 -38.43525 -38.43492 -38.43452
  Beta  occ. eigenvalues --  -38.43342 -38.43327  -2.19915  -2.19720  -2.19402
  Beta  occ. eigenvalues --   -2.19347  -2.19310  -2.19256  -2.19189  -1.13585
  Beta  occ. eigenvalues --   -1.13564  -1.13559  -1.13387  -1.13374  -1.13370
  Beta  occ. eigenvalues --   -1.13243  -1.13091  -1.13046  -1.13035  -1.13019
  Beta  occ. eigenvalues --   -1.13005  -1.12976  -1.12955  -1.12950  -1.12936
  Beta  occ. eigenvalues --   -1.12900  -1.12886  -1.12854  -1.12836  -1.12811
  Beta  occ. eigenvalues --   -0.17997  -0.12730  -0.12324
  Beta virt. eigenvalues --   -0.06900  -0.05642  -0.05183  -0.04545  -0.02398
  Beta virt. eigenvalues --   -0.02166  -0.01562  -0.01490  -0.01011  -0.00377
  Beta virt. eigenvalues --   -0.00286   0.00119   0.00378   0.00880   0.00884

 Mulliken charges and spin densities:
               1          2
     1  Na   0.128961  -0.053818
     2  Na   0.170677  -0.075570
     3  Na   0.011674  -0.082839
     4  Na  -0.203152   0.575934
     5  Na   0.463748  -0.060194
     6  Na  -0.449497   0.776599
     7  Na  -0.122411  -0.080112
 Sum of Mulliken charges =  -0.00000   1.00000

 Dipole moment (field-independent basis, Debye):
    X=             -0.1797    Y=             -0.0779    Z=              0.1659  Tot=              0.2567
 Quadrupole moment (field-independent basis, Debye-Ang):
   XX=            -55.8985   YY=            -64.0297   ZZ=            -73.9510
   XY=              0.7590   XZ=             -1.1050   YZ=             -0.2379

 Normal termination of Gaussian 16 at Tue Dec  5 22:01:14 2023.
