 Gaussian 16, Revision B.01,
 Gaussian 16:  ES64L-G16RevB.01 20-Dec-2017

 -------------------------
 #P B3LYP/6-311+g(d) force
 -------------------------

 -----
 DPGEN
 -----
 Symbolic Z-matrix:
 Charge =  0 Multiplicity = 2

                         Standard orientation:
 ---------------------------------------------------------------------
 Center     Atomic      Atomic             Coordinates (Angstroms)
 Number     Number       Type             X           Y           Z
 ---------------------------------------------------------------------
      1         11           0       -0.709244    0.109598    2.136518
      2         11           0        1.063726    3.094165    0.152904
      3         11           0       -2.671919    1.673228   -0.556927
      4         11           0        3.003288    0.325702    0.005177
      5         11           0        1.645292   -2.819242    0.048980
      6         11           0        0.017582   -0.287643   -1.871224
      7         11           0       -2.348724   -2.095809    0.084572
 ---------------------------------------------------------------------

 SCF Done:  E(UB3LYP) =  -1136.13502713     A.U. after   18 cycles

 The electronic state is 2-A.
 Alpha  occ. eigenvalues --  -38.44195 -38.44130 -38.43960 -38.43788 -38.43708
 Alpha  occ. eigenvalues --  -38.43706 -38.43584  -2.19988  -2.19937  -2.19797
 Alpha  occ. eigenvalues --   -2.19587  -2.19583  -2.19491  -2.19414  -1.13667
 Alpha  occ. eigenvalues --   -1.13649  -1.13626  -1.13622  -1.13605  -1.13564
 Alpha  occ. eigenvalues --   -1.13452  -1.13427  -1.13417  -1.13274  -1.13261
 Alpha  occ. eigenvalues --   -1.13252  -1.13231  -1.13224  -1.13197  -1.13174
 Alpha  occ. eigenvalues --   -1.13161  -1.13134  -1.13089  -1.13077  -1.13034
 Alpha  occ. eigenvalues --   -0.17881  -0.12828  -0.12268  -0.10771
 Alpha virt. eigenvalues --   -0.05831  -0.05165  -0.05064  -0.03266  -0.02962
 Alpha virt. eigenvalues --   -0.02728  -0.01451  -0.01327  -0.00655  -0.00535
 Alpha virt. eigenvalues --   -0.00067   0.00373   0.00745   0.00795   0.00833

  Beta  occ. eigenvalues --  -38.44180 -38.44124 -38.43872 -38.43789 -38.43707
  Beta  occ. eigenvalues --  -38.43638 -38.43583  -2.19963  -2.19930  -2.19635
  Beta  occ. eigenvalues --   -2.19588  -2.19494  -2.19458  -2.19414  -1.13639
  Beta  occ. eigenvalues --   -1.13621  -1.13614  -1.13604  -1.13583  -1.13562
  Beta  occ. eigenvalues --   -1.13345  -1.13316  -1.13299  -1.13264  -1.13250
  Beta  occ. eigenvalues --   -1.13229  -1.13183  -1.13173  -1.13150  -1.13141
  Beta  occ. eigenvalues --   -1.13134  -1.13108  -1.13075  -1.13073  -1.13035
  Beta  occ. eigenvalues --   -0.17170  -0.12617  -0.12096
  Beta virt. eigenvalues --   -0.06905  -0.05810  -0.05102  -0.04909  -0.02544
  Beta virt. eigenvalues --   -0.02267  -0.01728  -0.01344  -0.01234  -0.00719
  Beta virt. eigenvalues --   -0.00565   0.00095   0.00415   0.00770   0.00858

 Mulliken charges and spin densities:
               1          2
     1  Na  -0.357185   0.743932
     2  Na  -0.047845  -0.062860
     3  Na   0.112634  -0.035032
     4  Na  -0.026651  -0.066639
     5  Na   0.047021  -0.091217
     6  Na   0.043904   0.579595
     7  Na   0.228121  -0.067779
 Sum of Mulliken charges =  -0.00000   1.00000

 Dipole moment (field-independent basis, Debye):
    X=             -0.4190    Y=             -0.1527    Z=              0.0247  Tot=              0.4466
 Quadrupole moment (field-independent basis, Debye-Ang):
   XX=            -60.6424   YY=            -60.2963   ZZ=            -73.8794
   XY=             -0.5125   XZ=              1.5124   YZ=             -0.7890

 Normal termination of Gaussian 16 at Thu Dec  7 23:39:54 2023.
