 Gaussian 16, Revision B.01,
 Gaussian 16:  ES64L-G16RevB.01 20-Dec-2017

 -------------------------
 #P B3LYP/6-311+g(d) force
 -------------------------

 -----
 DPGEN
 -----
 Symbolic Z-matrix:
 Charge =  0 Multiplicity = 2

                         Standard orientation:
 ---------------------------------------------------------------------
 Center     Atomic      Atomic             Coordinates (Angstroms)
 Number     Number       Type             X           Y           Z
 ---------------------------------------------------------------------
      1         11           0        2.728865    1.993502   -0.139086
      2         11           0       -3.525172   -0.131095   -0.154834
      3         11           0        2.834646   -1.636304   -0.185591
      4         11           0       -1.616765    2.177223    0.062760
      5         11           0        0.326492   -0.190096    2.151193
      6         11           0       -0.999741   -2.297678   -0.156183
      7         11           0        0.251675    0.084448   -1.578258
 ---------------------------------------------------------------------

 SCF Done:  E(UB3LYP) =  -1136.12669646     A.U. after   24 cycles

 The electronic state is 2-A.
 Alpha  occ. eigenvalues --  -38.44897 -38.44562 -38.44065 -38.43685 -38.43573
 Alpha  occ. eigenvalues --  -38.43398 -38.42819  -2.20746  -2.20374  -2.19856
 Alpha  occ. eigenvalues --   -2.19563  -2.19558  -2.19278  -2.18726  -1.14451
 Alpha  occ. eigenvalues --   -1.14391  -1.14385  -1.14058  -1.14033  -1.14003
 Alpha  occ. eigenvalues --   -1.13535  -1.13511  -1.13501  -1.13279  -1.13228
 Alpha  occ. eigenvalues --   -1.13223  -1.13180  -1.13178  -1.13171  -1.12955
 Alpha  occ. eigenvalues --   -1.12930  -1.12915  -1.12439  -1.12388  -1.12329
 Alpha  occ. eigenvalues --   -0.18672  -0.13721  -0.11621  -0.10778
 Alpha virt. eigenvalues --   -0.06512  -0.05648  -0.03606  -0.03466  -0.02684
 Alpha virt. eigenvalues --   -0.02457  -0.02243  -0.01419  -0.00427  -0.00103
 Alpha virt. eigenvalues --    0.00004   0.00242   0.00633   0.00802   0.00814

  Beta  occ. eigenvalues --  -38.44897 -38.44557 -38.44063 -38.43577 -38.43519
  Beta  occ. eigenvalues --  -38.43392 -38.42809  -2.20748  -2.20368  -2.19856
  Beta  occ. eigenvalues --   -2.19461  -2.19364  -2.19269  -2.18712  -1.14455
  Beta  occ. eigenvalues --   -1.14390  -1.14377  -1.14039  -1.14026  -1.14000
  Beta  occ. eigenvalues --   -1.13523  -1.13512  -1.13498  -1.13207  -1.13154
  Beta  occ. eigenvalues --   -1.13103  -1.13093  -1.13041  -1.13036  -1.12946
  Beta  occ. eigenvalues --   -1.12920  -1.12891  -1.12429  -1.12347  -1.12322
  Beta  occ. eigenvalues --   -0.17947  -0.13519  -0.11387
  Beta virt. eigenvalues --   -0.06810  -0.06414  -0.05667  -0.03597  -0.02732
  Beta virt. eigenvalues --   -0.02182  -0.01730  -0.01518  -0.01353  -0.00466
  Beta virt. eigenvalues --   -0.00027   0.00078   0.00277   0.00709   0.00812

 Mulliken charges and spin densities:
               1          2
     1  Na   0.130624  -0.033631
     2  Na  -0.106764  -0.025498
     3  Na   0.348187  -0.020582
     4  Na   0.485077   0.046909
     5  Na  -0.720389   0.687005
     6  Na   0.580411   0.071659
     7  Na  -0.717146   0.274139
 Sum of Mulliken charges =  -0.00000   1.00000

 Dipole moment (field-independent basis, Debye):
    X=              0.2682    Y=             -0.1527    Z=              0.1664  Tot=              0.3506
 Quadrupole moment (field-independent basis, Debye-Ang):
   XX=            -48.1836   YY=            -69.9437   ZZ=            -74.5453
   XY=             -0.0642   XZ=              0.2099   YZ=              0.6013

 Normal termination of Gaussian 16 at Thu Dec  7 16:45:09 2023.
