 Gaussian 16, Revision B.01,
 Gaussian 16:  ES64L-G16RevB.01 20-Dec-2017

 -------------------------
 #P B3LYP/6-311+g(d) force
 -------------------------

 -----
 DPGEN
 -----
 Symbolic Z-matrix:
 Charge =  0 Multiplicity = 2

                         Standard orientation:
 ---------------------------------------------------------------------
 Center     Atomic      Atomic             Coordinates (Angstroms)
 Number     Number       Type             X           Y           Z
 ---------------------------------------------------------------------
      1         11           0        2.561509    1.227849    0.239712
      2         11           0       -3.333119    0.254360    0.047399
      3         11           0       -0.497699    2.914573   -0.642729
      4         11           0        2.374420   -1.704418   -0.134284
      5         11           0       -1.211075   -2.718649   -0.046733
      6         11           0       -0.092207    0.335579    2.135221
      7         11           0        0.198171   -0.309293   -1.598587
 ---------------------------------------------------------------------

 SCF Done:  E(UB3LYP) =  -1136.13227641     A.U. after   19 cycles

 The electronic state is 2-A.
 Alpha  occ. eigenvalues --  -38.44510 -38.43875 -38.43638 -38.43591 -38.43500
 Alpha  occ. eigenvalues --  -38.43417 -38.43227  -2.20280  -2.19742  -2.19572
 Alpha  occ. eigenvalues --   -2.19518  -2.19336  -2.19246  -2.19238  -1.13960
 Alpha  occ. eigenvalues --   -1.13929  -1.13924  -1.13428  -1.13400  -1.13372
 Alpha  occ. eigenvalues --   -1.13361  -1.13293  -1.13198  -1.13165  -1.13158
 Alpha  occ. eigenvalues --   -1.13081  -1.13064  -1.13000  -1.12954  -1.12938
 Alpha  occ. eigenvalues --   -1.12906  -1.12887  -1.12871  -1.12854  -1.12837
 Alpha  occ. eigenvalues --   -0.18736  -0.13049  -0.12374  -0.10936
 Alpha virt. eigenvalues --   -0.05882  -0.04874  -0.04663  -0.03299  -0.03000
 Alpha virt. eigenvalues --   -0.02603  -0.01576  -0.01026  -0.00328  -0.00270
 Alpha virt. eigenvalues --   -0.00009   0.00359   0.00776   0.00878   0.00913

  Beta  occ. eigenvalues --  -38.44512 -38.43781 -38.43631 -38.43581 -38.43498
  Beta  occ. eigenvalues --  -38.43400 -38.43166  -2.20284  -2.19570  -2.19562
  Beta  occ. eigenvalues --   -2.19505  -2.19335  -2.19208  -2.19135  -1.13950
  Beta  occ. eigenvalues --   -1.13934  -1.13929  -1.13410  -1.13300  -1.13271
  Beta  occ. eigenvalues --   -1.13251  -1.13236  -1.13174  -1.13154  -1.13111
  Beta  occ. eigenvalues --   -1.13076  -1.13051  -1.12987  -1.12954  -1.12902
  Beta  occ. eigenvalues --   -1.12861  -1.12853  -1.12835  -1.12781  -1.12763
  Beta  occ. eigenvalues --   -0.17998  -0.12842  -0.12109
  Beta virt. eigenvalues --   -0.06999  -0.05844  -0.04853  -0.04583  -0.02513
  Beta virt. eigenvalues --   -0.02239  -0.01618  -0.01460  -0.00950  -0.00345
  Beta virt. eigenvalues --   -0.00310   0.00129   0.00387   0.00811   0.00906

 Mulliken charges and spin densities:
               1          2
     1  Na   0.460328   0.180460
     2  Na  -0.053225  -0.077943
     3  Na   0.001278   0.009654
     4  Na   0.298716  -0.005622
     5  Na   0.037886  -0.066966
     6  Na  -0.549597   0.630194
     7  Na  -0.195386   0.330222
 Sum of Mulliken charges =  -0.00000   1.00000

 Dipole moment (field-independent basis, Debye):
    X=             -0.5111    Y=              0.0185    Z=              0.2589  Tot=              0.5732
 Quadrupole moment (field-independent basis, Debye-Ang):
   XX=            -56.7941   YY=            -63.7128   ZZ=            -73.5119
   XY=             -0.4412   XZ=              0.4111   YZ=             -1.3343

 Normal termination of Gaussian 16 at Thu Dec  7 20:16:18 2023.
