 Gaussian 16, Revision B.01,
 Gaussian 16:  ES64L-G16RevB.01 20-Dec-2017

 -------------------------
 #P B3LYP/6-311+g(d) force
 -------------------------

 -----
 DPGEN
 -----
 Symbolic Z-matrix:
 Charge =  0 Multiplicity = 2

                         Standard orientation:
 ---------------------------------------------------------------------
 Center     Atomic      Atomic             Coordinates (Angstroms)
 Number     Number       Type             X           Y           Z
 ---------------------------------------------------------------------
      1         11           0        3.805875    2.084562    0.122154
      2         11           0        4.364081   -1.562679   -0.888022
      3         11           0       -2.796995    1.558818   -1.177400
      4         11           0        0.984891   -1.571245   -0.447656
      5         11           0       -4.826985   -0.286906   -0.633496
      6         11           0        0.151594    1.654401    1.411521
      7         11           0       -1.682462   -1.876950    1.612900
 ---------------------------------------------------------------------

 SCF Done:  E(UB3LYP) =  -1136.10566333     A.U. after   24 cycles

 The electronic state is 2-A.
 Alpha  occ. eigenvalues --  -38.45267 -38.44858 -38.44599 -38.44177 -38.43983
 Alpha  occ. eigenvalues --  -38.43897 -38.43738  -2.21060  -2.20591  -2.20393
 Alpha  occ. eigenvalues --   -2.20020  -2.19834  -2.19723  -2.19525  -1.14737
 Alpha  occ. eigenvalues --   -1.14708  -1.14647  -1.14279  -1.14254  -1.14225
 Alpha  occ. eigenvalues --   -1.14058  -1.14047  -1.13997  -1.13906  -1.13669
 Alpha  occ. eigenvalues --   -1.13639  -1.13457  -1.13448  -1.13417  -1.13398
 Alpha  occ. eigenvalues --   -1.13390  -1.13346  -1.13201  -1.13175  -1.13157
 Alpha  occ. eigenvalues --   -0.16615  -0.14031  -0.11876  -0.11028
 Alpha virt. eigenvalues --   -0.07086  -0.05464  -0.04564  -0.03405  -0.03352
 Alpha virt. eigenvalues --   -0.02547  -0.02041  -0.01729  -0.01143  -0.00749
 Alpha virt. eigenvalues --   -0.00308  -0.00145   0.00070   0.00348   0.00557

  Beta  occ. eigenvalues --  -38.45177 -38.44852 -38.44536 -38.44184 -38.43959
  Beta  occ. eigenvalues --  -38.43871 -38.43736  -2.20894  -2.20582  -2.20277
  Beta  occ. eigenvalues --   -2.20034  -2.19791  -2.19677  -2.19522  -1.14625
  Beta  occ. eigenvalues --   -1.14599  -1.14521  -1.14276  -1.14243  -1.14208
  Beta  occ. eigenvalues --   -1.13970  -1.13968  -1.13924  -1.13895  -1.13680
  Beta  occ. eigenvalues --   -1.13648  -1.13427  -1.13417  -1.13386  -1.13379
  Beta  occ. eigenvalues --   -1.13356  -1.13306  -1.13194  -1.13173  -1.13154
  Beta  occ. eigenvalues --   -0.15973  -0.13550  -0.10982
  Beta virt. eigenvalues --   -0.08191  -0.06713  -0.04952  -0.04159  -0.03250
  Beta virt. eigenvalues --   -0.02775  -0.02342  -0.01871  -0.01455  -0.00860
  Beta virt. eigenvalues --   -0.00468  -0.00206   0.00064   0.00204   0.00424

 Mulliken charges and spin densities:
               1          2
     1  Na  -0.029294  -0.006711
     2  Na   0.443533   0.143499
     3  Na  -0.136525  -0.063420
     4  Na  -0.889708   0.273744
     5  Na   0.256879   0.108282
     6  Na  -0.090625   0.522772
     7  Na   0.445741   0.021836
 Sum of Mulliken charges =  -0.00000   1.00000

 Dipole moment (field-independent basis, Debye):
    X=              0.4868    Y=             -0.2404    Z=              0.5293  Tot=              0.7583
 Quadrupole moment (field-independent basis, Debye-Ang):
   XX=            -65.0615   YY=            -67.2129   ZZ=            -70.6988
   XY=              6.4959   XZ=             -6.0047   YZ=              2.0915

 Normal termination of Gaussian 16 at Sun Dec  3 21:33:35 2023.
