 Gaussian 16, Revision B.01,
 Gaussian 16:  ES64L-G16RevB.01 20-Dec-2017

 -------------------------
 #P B3LYP/6-311+g(d) force
 -------------------------

 -----
 DPGEN
 -----
 Symbolic Z-matrix:
 Charge =  0 Multiplicity = 2

                         Standard orientation:
 ---------------------------------------------------------------------
 Center     Atomic      Atomic             Coordinates (Angstroms)
 Number     Number       Type             X           Y           Z
 ---------------------------------------------------------------------
      1         11           0        2.642960    2.098042    0.128051
      2         11           0       -2.414434    2.163466    0.059469
      3         11           0       -3.144555   -0.934672    0.126238
      4         11           0        0.522233   -0.138774    1.999267
      5         11           0        0.051954    0.629403   -1.734132
      6         11           0        2.906019   -1.548781   -0.310782
      7         11           0       -0.564176   -2.268684   -0.268110
 ---------------------------------------------------------------------

 SCF Done:  E(UB3LYP) =  -1136.12564885     A.U. after   22 cycles

 The electronic state is 2-A.
 Alpha  occ. eigenvalues --  -38.44735 -38.44550 -38.44234 -38.43994 -38.43819
 Alpha  occ. eigenvalues --  -38.43507 -38.42639  -2.20541  -2.20430  -2.20029
 Alpha  occ. eigenvalues --   -2.19813  -2.19699  -2.19413  -2.18590  -1.14213
 Alpha  occ. eigenvalues --   -1.14195  -1.14182  -1.14156  -1.14079  -1.14062
 Alpha  occ. eigenvalues --   -1.13701  -1.13690  -1.13674  -1.13481  -1.13475
 Alpha  occ. eigenvalues --   -1.13458  -1.13381  -1.13327  -1.13312  -1.13106
 Alpha  occ. eigenvalues --   -1.13054  -1.13024  -1.12277  -1.12242  -1.12234
 Alpha  occ. eigenvalues --   -0.18528  -0.13728  -0.11704  -0.10658
 Alpha virt. eigenvalues --   -0.06285  -0.06106  -0.03671  -0.03573  -0.02678
 Alpha virt. eigenvalues --   -0.02439  -0.02084  -0.01478  -0.00641  -0.00080
 Alpha virt. eigenvalues --    0.00001   0.00284   0.00624   0.00725   0.00774

  Beta  occ. eigenvalues --  -38.44729 -38.44550 -38.44230 -38.43995 -38.43734
  Beta  occ. eigenvalues --  -38.43439 -38.42626  -2.20532  -2.20430  -2.20024
  Beta  occ. eigenvalues --   -2.19815  -2.19541  -2.19289  -2.18571  -1.14193
  Beta  occ. eigenvalues --   -1.14183  -1.14179  -1.14160  -1.14081  -1.14046
  Beta  occ. eigenvalues --   -1.13688  -1.13678  -1.13671  -1.13481  -1.13470
  Beta  occ. eigenvalues --   -1.13455  -1.13274  -1.13215  -1.13198  -1.13023
  Beta  occ. eigenvalues --   -1.12959  -1.12935  -1.12269  -1.12232  -1.12180
  Beta  occ. eigenvalues --   -0.17795  -0.13534  -0.11487
  Beta virt. eigenvalues --   -0.06774  -0.06158  -0.06098  -0.03670  -0.02811
  Beta virt. eigenvalues --   -0.01991  -0.01923  -0.01520  -0.01286  -0.00701
  Beta virt. eigenvalues --   -0.00019   0.00095   0.00312   0.00702   0.00729

 Mulliken charges and spin densities:
               1          2
     1  Na   0.003636  -0.086613
     2  Na   0.289577  -0.019918
     3  Na  -0.097883  -0.008638
     4  Na  -0.361278   0.577066
     5  Na  -0.232549   0.331665
     6  Na   0.257112   0.022983
     7  Na   0.141384   0.183454
 Sum of Mulliken charges =  -0.00000   1.00000

 Dipole moment (field-independent basis, Debye):
    X=              0.5058    Y=              0.2015    Z=              0.1084  Tot=              0.5551
 Quadrupole moment (field-independent basis, Debye-Ang):
   XX=            -50.1240   YY=            -68.5674   ZZ=            -74.7514
   XY=             -0.6753   XZ=             -1.4562   YZ=              1.6547

 Normal termination of Gaussian 16 at Wed Nov 29 17:04:28 2023.
