 Gaussian 16, Revision B.01,
 Gaussian 16:  ES64L-G16RevB.01 20-Dec-2017

 -------------------------
 #P B3LYP/6-311+g(d) force
 -------------------------

 -----
 DPGEN
 -----
 Symbolic Z-matrix:
 Charge =  0 Multiplicity = 2

                         Standard orientation:
 ---------------------------------------------------------------------
 Center     Atomic      Atomic             Coordinates (Angstroms)
 Number     Number       Type             X           Y           Z
 ---------------------------------------------------------------------
      1         11           0        5.334597   -0.013612   -0.291887
      2         11           0        2.028050    1.580002   -0.253199
      3         11           0       -0.815723   -0.314061   -1.248254
      4         11           0        1.929196   -1.667281    0.571722
      5         11           0       -2.066267   -1.248204    1.567016
      6         11           0       -4.120588   -0.577123   -1.308659
      7         11           0       -2.289265    2.240279    0.963261
 ---------------------------------------------------------------------

 SCF Done:  E(UB3LYP) =  -1136.10547764     A.U. after   60 cycles

 The electronic state is 2-A.
 Alpha  occ. eigenvalues --  -38.45393 -38.45065 -38.44687 -38.44670 -38.44211
 Alpha  occ. eigenvalues --  -38.43293 -38.43231  -2.21215  -2.20899  -2.20592
 Alpha  occ. eigenvalues --   -2.20473  -2.20013  -2.19120  -2.19022  -1.14915
 Alpha  occ. eigenvalues --   -1.14893  -1.14823  -1.14588  -1.14521  -1.14494
 Alpha  occ. eigenvalues --   -1.14288  -1.14272  -1.14189  -1.14126  -1.14121
 Alpha  occ. eigenvalues --   -1.14077  -1.13725  -1.13703  -1.13618  -1.12819
 Alpha  occ. eigenvalues --   -1.12809  -1.12728  -1.12711  -1.12675  -1.12651
 Alpha  occ. eigenvalues --   -0.17766  -0.14568  -0.11142  -0.10264
 Alpha virt. eigenvalues --   -0.07855  -0.05182  -0.05092  -0.03382  -0.02866
 Alpha virt. eigenvalues --   -0.02040  -0.01984  -0.01821  -0.01553  -0.00973
 Alpha virt. eigenvalues --   -0.00316   0.00117   0.00150   0.00557   0.00618

  Beta  occ. eigenvalues --  -38.45398 -38.44980 -38.44652 -38.44607 -38.44210
  Beta  occ. eigenvalues --  -38.43283 -38.43226  -2.21226  -2.20740  -2.20565
  Beta  occ. eigenvalues --   -2.20322  -2.20017  -2.19103  -2.19016  -1.14922
  Beta  occ. eigenvalues --   -1.14889  -1.14828  -1.14481  -1.14415  -1.14389
  Beta  occ. eigenvalues --   -1.14271  -1.14211  -1.14172  -1.14023  -1.14017
  Beta  occ. eigenvalues --   -1.13980  -1.13730  -1.13702  -1.13593  -1.12806
  Beta  occ. eigenvalues --   -1.12799  -1.12726  -1.12689  -1.12669  -1.12638
  Beta  occ. eigenvalues --   -0.17205  -0.13963  -0.09996
  Beta virt. eigenvalues --   -0.07719  -0.07490  -0.05124  -0.04344  -0.03169
  Beta virt. eigenvalues --   -0.02742  -0.01791  -0.01559  -0.01246  -0.01191
  Beta virt. eigenvalues --   -0.00645  -0.00273   0.00196   0.00241   0.00615

 Mulliken charges and spin densities:
               1          2
     1  Na   0.144285   0.399723
     2  Na  -0.082614   0.066670
     3  Na  -0.273004   0.047480
     4  Na  -0.107828   0.066761
     5  Na   0.256855   0.132018
     6  Na   0.504513   0.367300
     7  Na  -0.442209  -0.079952
 Sum of Mulliken charges =  -0.00000   1.00000

 Dipole moment (field-independent basis, Debye):
    X=             -0.5500    Y=             -0.8761    Z=              0.0217  Tot=              1.0346
 Quadrupole moment (field-independent basis, Debye-Ang):
   XX=            -56.8109   YY=            -82.1604   ZZ=            -61.2664
   XY=              0.8559   XZ=             -0.7088   YZ=             -1.6820

 Normal termination of Gaussian 16 at Thu Dec  7 13:12:40 2023.
