 Gaussian 16, Revision B.01,
 Gaussian 16:  ES64L-G16RevB.01 20-Dec-2017

 -------------------------
 #P B3LYP/6-311+g(d) force
 -------------------------

 -----
 DPGEN
 -----
 Symbolic Z-matrix:
 Charge =  0 Multiplicity = 2

                         Standard orientation:
 ---------------------------------------------------------------------
 Center     Atomic      Atomic             Coordinates (Angstroms)
 Number     Number       Type             X           Y           Z
 ---------------------------------------------------------------------
      1         11           0        2.654512   -1.337711   -1.482446
      2         11           0        2.648763    2.366426    0.017292
      3         11           0       -0.941184   -2.299971    0.901979
      4         11           0       -0.432509   -0.198281   -1.425357
      5         11           0        1.087421   -0.366630    1.650252
      6         11           0       -1.536300    0.937174    1.802482
      7         11           0       -3.480704    0.898993   -1.464202
 ---------------------------------------------------------------------

 SCF Done:  E(UB3LYP) =  -1136.11771781     A.U. after   25 cycles

 The electronic state is 2-A.
 Alpha  occ. eigenvalues --  -38.45165 -38.44472 -38.44254 -38.44219 -38.42896
 Alpha  occ. eigenvalues --  -38.42851 -38.42766  -2.20943  -2.20285  -2.20162
 Alpha  occ. eigenvalues --   -2.20153  -2.18865  -2.18808  -2.18653  -1.14600
 Alpha  occ. eigenvalues --   -1.14596  -1.14546  -1.13973  -1.13936  -1.13923
 Alpha  occ. eigenvalues --   -1.13898  -1.13879  -1.13805  -1.13802  -1.13759
 Alpha  occ. eigenvalues --   -1.13730  -1.12575  -1.12561  -1.12513  -1.12501
 Alpha  occ. eigenvalues --   -1.12483  -1.12379  -1.12315  -1.12311  -1.12284
 Alpha  occ. eigenvalues --   -0.18717  -0.13117  -0.12160  -0.11199
 Alpha virt. eigenvalues --   -0.05804  -0.05330  -0.04550  -0.03335  -0.02795
 Alpha virt. eigenvalues --   -0.02561  -0.01544  -0.01259  -0.00815   0.00115
 Alpha virt. eigenvalues --    0.00255   0.00300   0.00338   0.00685   0.00726

  Beta  occ. eigenvalues --  -38.45098 -38.44443 -38.44220 -38.44187 -38.42870
  Beta  occ. eigenvalues --  -38.42855 -38.42745  -2.20819  -2.20235  -2.20100
  Beta  occ. eigenvalues --   -2.20096  -2.18822  -2.18777  -2.18661  -1.14514
  Beta  occ. eigenvalues --   -1.14503  -1.14467  -1.13931  -1.13901  -1.13885
  Beta  occ. eigenvalues --   -1.13859  -1.13835  -1.13763  -1.13753  -1.13714
  Beta  occ. eigenvalues --   -1.13681  -1.12552  -1.12508  -1.12484  -1.12467
  Beta  occ. eigenvalues --   -1.12416  -1.12368  -1.12318  -1.12315  -1.12285
  Beta  occ. eigenvalues --   -0.17916  -0.12846  -0.11101
  Beta virt. eigenvalues --   -0.08219  -0.05167  -0.05014  -0.04394  -0.02827
  Beta virt. eigenvalues --   -0.02280  -0.02169  -0.01468  -0.00878  -0.00595
  Beta virt. eigenvalues --    0.00247   0.00301   0.00458   0.00489   0.00725

 Mulliken charges and spin densities:
               1          2
     1  Na   0.984728  -0.169553
     2  Na  -0.092973   0.205105
     3  Na   0.279327   0.260747
     4  Na  -1.767012   0.234141
     5  Na   0.269036   0.380312
     6  Na  -0.153707   0.098038
     7  Na   0.480599  -0.008791
 Sum of Mulliken charges =  -0.00000   1.00000

 Dipole moment (field-independent basis, Debye):
    X=              0.8493    Y=             -0.0410    Z=              0.4562  Tot=              0.9649
 Quadrupole moment (field-independent basis, Debye-Ang):
   XX=            -59.5608   YY=            -59.7344   ZZ=            -75.1594
   XY=              1.3940   XZ=             -4.1697   YZ=              4.9762

 Normal termination of Gaussian 16 at Fri Dec  8 04:26:14 2023.
