 Gaussian 16, Revision B.01,
 Gaussian 16:  ES64L-G16RevB.01 20-Dec-2017

 -------------------------
 #P B3LYP/6-311+g(d) force
 -------------------------

 -----
 DPGEN
 -----
 Symbolic Z-matrix:
 Charge =  0 Multiplicity = 2

                         Standard orientation:
 ---------------------------------------------------------------------
 Center     Atomic      Atomic             Coordinates (Angstroms)
 Number     Number       Type             X           Y           Z
 ---------------------------------------------------------------------
      1         11           0       -1.419546   -2.418092    0.043545
      2         11           0       -3.181258    0.287766   -0.333713
      3         11           0        2.827998    1.318649   -0.005294
      4         11           0       -0.510601    2.731180   -0.193105
      5         11           0       -0.076708    0.010211   -1.395041
      6         11           0        2.488058   -1.948715   -0.362942
      7         11           0       -0.127944    0.019001    2.246548
 ---------------------------------------------------------------------

 SCF Done:  E(UB3LYP) =  -1136.13439343     A.U. after   19 cycles

 The electronic state is 2-A.
 Alpha  occ. eigenvalues --  -38.44247 -38.44042 -38.43805 -38.43687 -38.43287
 Alpha  occ. eigenvalues --  -38.43054 -38.42991  -2.20107  -2.19880  -2.19673
 Alpha  occ. eigenvalues --   -2.19516  -2.19176  -2.19121  -2.18874  -1.13792
 Alpha  occ. eigenvalues --   -1.13761  -1.13744  -1.13558  -1.13548  -1.13519
 Alpha  occ. eigenvalues --   -1.13332  -1.13293  -1.13290  -1.13196  -1.13171
 Alpha  occ. eigenvalues --   -1.13150  -1.12942  -1.12862  -1.12829  -1.12798
 Alpha  occ. eigenvalues --   -1.12760  -1.12722  -1.12541  -1.12522  -1.12481
 Alpha  occ. eigenvalues --   -0.18803  -0.13343  -0.12177  -0.10868
 Alpha virt. eigenvalues --   -0.05833  -0.05219  -0.04298  -0.03217  -0.02734
 Alpha virt. eigenvalues --   -0.02674  -0.01767  -0.01048  -0.00304  -0.00246
 Alpha virt. eigenvalues --   -0.00031   0.00328   0.00757   0.00887   0.00900

  Beta  occ. eigenvalues --  -38.44238 -38.44041 -38.43692 -38.43682 -38.43280
  Beta  occ. eigenvalues --  -38.43007 -38.42985  -2.20094  -2.19879  -2.19509
  Beta  occ. eigenvalues --   -2.19464  -2.19167  -2.19038  -2.18866  -1.13780
  Beta  occ. eigenvalues --   -1.13740  -1.13733  -1.13557  -1.13537  -1.13517
  Beta  occ. eigenvalues --   -1.13194  -1.13183  -1.13164  -1.13149  -1.13143
  Beta  occ. eigenvalues --   -1.13140  -1.12921  -1.12817  -1.12795  -1.12791
  Beta  occ. eigenvalues --   -1.12707  -1.12663  -1.12523  -1.12498  -1.12475
  Beta  occ. eigenvalues --   -0.18087  -0.13113  -0.11943
  Beta virt. eigenvalues --   -0.06868  -0.05777  -0.05210  -0.04280  -0.02465
  Beta virt. eigenvalues --   -0.01921  -0.01690  -0.01557  -0.00997  -0.00338
  Beta virt. eigenvalues --   -0.00280   0.00133   0.00368   0.00830   0.00883

 Mulliken charges and spin densities:
               1          2
     1  Na   0.345753   0.089897
     2  Na   0.359485   0.039645
     3  Na   0.215695   0.029561
     4  Na   0.300668   0.044654
     5  Na  -0.765205   0.051017
     6  Na   0.192719   0.023654
     7  Na  -0.649115   0.721573
 Sum of Mulliken charges =  -0.00000   1.00000

 Dipole moment (field-independent basis, Debye):
    X=             -0.0208    Y=              0.0268    Z=              0.2821  Tot=              0.2841
 Quadrupole moment (field-independent basis, Debye-Ang):
   XX=            -53.9284   YY=            -65.1081   ZZ=            -74.1811
   XY=             -0.0232   XZ=              0.4352   YZ=              0.2327

 Normal termination of Gaussian 16 at Thu Dec  7 23:32:29 2023.
