 Gaussian 16, Revision B.01,
 Gaussian 16:  ES64L-G16RevB.01 20-Dec-2017

 -------------------------
 #P B3LYP/6-311+g(d) force
 -------------------------

 -----
 DPGEN
 -----
 Symbolic Z-matrix:
 Charge =  0 Multiplicity = 2

                         Standard orientation:
 ---------------------------------------------------------------------
 Center     Atomic      Atomic             Coordinates (Angstroms)
 Number     Number       Type             X           Y           Z
 ---------------------------------------------------------------------
      1         11           0        0.442907    0.461979    1.970455
      2         11           0       -3.052805    0.159631   -0.243092
      3         11           0       -1.221325   -2.361352    0.721040
      4         11           0        1.707373   -2.317784   -0.577861
      5         11           0       -0.753307    2.924085   -0.186157
      6         11           0        3.009348    1.180510   -0.035170
      7         11           0       -0.132192   -0.047068   -1.649215
 ---------------------------------------------------------------------

 SCF Done:  E(UB3LYP) =  -1136.13599644     A.U. after   19 cycles

 The electronic state is 2-A.
 Alpha  occ. eigenvalues --  -38.44117 -38.43767 -38.43766 -38.43574 -38.43504
 Alpha  occ. eigenvalues --  -38.43201 -38.43139  -2.19921  -2.19625  -2.19596
 Alpha  occ. eigenvalues --   -2.19479  -2.19387  -2.19204  -2.19051  -1.13611
 Alpha  occ. eigenvalues --   -1.13577  -1.13555  -1.13329  -1.13292  -1.13287
 Alpha  occ. eigenvalues --   -1.13280  -1.13254  -1.13207  -1.13148  -1.13129
 Alpha  occ. eigenvalues --   -1.13105  -1.13101  -1.13053  -1.13003  -1.12875
 Alpha  occ. eigenvalues --   -1.12825  -1.12822  -1.12717  -1.12695  -1.12689
 Alpha  occ. eigenvalues --   -0.18781  -0.12836  -0.12630  -0.10974
 Alpha virt. eigenvalues --   -0.05731  -0.04929  -0.04485  -0.03269  -0.03118
 Alpha virt. eigenvalues --   -0.02611  -0.01470  -0.01146  -0.00208  -0.00187
 Alpha virt. eigenvalues --    0.00080   0.00365   0.00815   0.00895   0.00933

  Beta  occ. eigenvalues --  -38.44116 -38.43762 -38.43762 -38.43490 -38.43489
  Beta  occ. eigenvalues --  -38.43135 -38.43119  -2.19921  -2.19622  -2.19590
  Beta  occ. eigenvalues --   -2.19363  -2.19325  -2.19083  -2.19018  -1.13599
  Beta  occ. eigenvalues --   -1.13574  -1.13555  -1.13324  -1.13285  -1.13266
  Beta  occ. eigenvalues --   -1.13261  -1.13250  -1.13203  -1.13104  -1.13044
  Beta  occ. eigenvalues --   -1.13021  -1.13001  -1.12987  -1.12985  -1.12795
  Beta  occ. eigenvalues --   -1.12745  -1.12735  -1.12690  -1.12677  -1.12641
  Beta  occ. eigenvalues --   -0.18055  -0.12577  -0.12387
  Beta virt. eigenvalues --   -0.07056  -0.05731  -0.04852  -0.04427  -0.02501
  Beta virt. eigenvalues --   -0.02365  -0.01587  -0.01394  -0.01065  -0.00245
  Beta virt. eigenvalues --   -0.00109   0.00144   0.00395   0.00818   0.00942

 Mulliken charges and spin densities:
               1          2
     1  Na  -0.250247   0.598347
     2  Na   0.094482   0.003626
     3  Na   0.129209   0.171279
     4  Na   0.137894   0.053841
     5  Na  -0.012293  -0.101571
     6  Na  -0.004842  -0.098734
     7  Na  -0.094204   0.373212
 Sum of Mulliken charges =  -0.00000   1.00000

 Dipole moment (field-independent basis, Debye):
    X=              0.2146    Y=              0.4310    Z=              0.0616  Tot=              0.4854
 Quadrupole moment (field-independent basis, Debye-Ang):
   XX=            -58.0336   YY=            -62.4291   ZZ=            -73.1516
   XY=              0.0547   XZ=             -1.2527   YZ=             -0.9147

 Normal termination of Gaussian 16 at Fri Dec  8 07:45:14 2023.
