 Gaussian 16, Revision B.01,
 Gaussian 16:  ES64L-G16RevB.01 20-Dec-2017

 -------------------------
 #P B3LYP/6-311+g(d) force
 -------------------------

 -----
 DPGEN
 -----
 Symbolic Z-matrix:
 Charge =  0 Multiplicity = 2

                         Standard orientation:
 ---------------------------------------------------------------------
 Center     Atomic      Atomic             Coordinates (Angstroms)
 Number     Number       Type             X           Y           Z
 ---------------------------------------------------------------------
      1         11           0       -2.745704    1.862540   -0.154746
      2         11           0        1.765494    2.617891   -0.052638
      3         11           0        3.262224   -0.917529    0.522828
      4         11           0       -0.327060    0.001099    1.807499
      5         11           0        0.586161   -2.486846   -0.986997
      6         11           0        0.111531    0.754668   -1.404070
      7         11           0       -2.652646   -1.831824    0.268124
 ---------------------------------------------------------------------

 SCF Done:  E(UB3LYP) =  -1136.12725660     A.U. after   21 cycles

 The electronic state is 2-A.
 Alpha  occ. eigenvalues --  -38.44558 -38.44514 -38.44142 -38.44064 -38.43567
 Alpha  occ. eigenvalues --  -38.42970 -38.42961  -2.20360  -2.20297  -2.19990
 Alpha  occ. eigenvalues --   -2.19884  -2.19475  -2.18987  -2.18837  -1.14048
 Alpha  occ. eigenvalues --   -1.14018  -1.13987  -1.13968  -1.13958  -1.13933
 Alpha  occ. eigenvalues --   -1.13786  -1.13626  -1.13586  -1.13575  -1.13539
 Alpha  occ. eigenvalues --   -1.13521  -1.13179  -1.13105  -1.13080  -1.12659
 Alpha  occ. eigenvalues --   -1.12658  -1.12598  -1.12504  -1.12478  -1.12464
 Alpha  occ. eigenvalues --   -0.18420  -0.13106  -0.12273  -0.10393
 Alpha virt. eigenvalues --   -0.06236  -0.05602  -0.04162  -0.03219  -0.02853
 Alpha virt. eigenvalues --   -0.02136  -0.01961  -0.01447  -0.00487  -0.00224
 Alpha virt. eigenvalues --    0.00043   0.00311   0.00612   0.00746   0.00784

  Beta  occ. eigenvalues --  -38.44555 -38.44504 -38.44140 -38.44060 -38.43496
  Beta  occ. eigenvalues --  -38.42939 -38.42903  -2.20356  -2.20281  -2.19988
  Beta  occ. eigenvalues --   -2.19879  -2.19344  -2.18882  -2.18781  -1.14037
  Beta  occ. eigenvalues --   -1.14013  -1.13982  -1.13951  -1.13940  -1.13923
  Beta  occ. eigenvalues --   -1.13777  -1.13615  -1.13582  -1.13563  -1.13527
  Beta  occ. eigenvalues --   -1.13515  -1.13088  -1.13015  -1.12981  -1.12587
  Beta  occ. eigenvalues --   -1.12576  -1.12529  -1.12454  -1.12430  -1.12426
  Beta  occ. eigenvalues --   -0.17744  -0.12866  -0.12017
  Beta virt. eigenvalues --   -0.06619  -0.06194  -0.05501  -0.04060  -0.02520
  Beta virt. eigenvalues --   -0.02194  -0.01829  -0.01405  -0.01170  -0.00516
  Beta virt. eigenvalues --   -0.00134   0.00141   0.00353   0.00658   0.00805

 Mulliken charges and spin densities:
               1          2
     1  Na   0.000365  -0.025792
     2  Na   0.062577   0.080516
     3  Na  -0.098437   0.131336
     4  Na  -0.270396   0.562968
     5  Na   0.040879   0.138098
     6  Na   0.203554   0.058189
     7  Na   0.061457   0.054684
 Sum of Mulliken charges =  -0.00000   1.00000

 Dipole moment (field-independent basis, Debye):
    X=             -0.2069    Y=              0.3248    Z=              0.3422  Tot=              0.5152
 Quadrupole moment (field-independent basis, Debye-Ang):
   XX=            -51.5416   YY=            -63.7736   ZZ=            -75.9744
   XY=             -0.1958   XZ=              1.6458   YZ=              0.9497

 Normal termination of Gaussian 16 at Tue Dec  5 16:59:44 2023.
