 Gaussian 16, Revision B.01,
 Gaussian 16:  ES64L-G16RevB.01 20-Dec-2017

 -------------------------
 #P B3LYP/6-311+g(d) force
 -------------------------

 -----
 DPGEN
 -----
 Symbolic Z-matrix:
 Charge =  0 Multiplicity = 2

                         Standard orientation:
 ---------------------------------------------------------------------
 Center     Atomic      Atomic             Coordinates (Angstroms)
 Number     Number       Type             X           Y           Z
 ---------------------------------------------------------------------
      1         11           0        0.552981    3.033576   -0.069352
      2         11           0       -0.600585   -0.491066    2.047119
      3         11           0       -2.216017   -2.307149   -0.371137
      4         11           0       -2.801576    1.433375    0.029955
      5         11           0        2.196039   -2.355198   -0.038813
      6         11           0       -0.014766   -0.042430   -1.801636
      7         11           0        2.883923    0.728892    0.203863
 ---------------------------------------------------------------------

 SCF Done:  E(UB3LYP) =  -1136.13548206     A.U. after   19 cycles

 The electronic state is 2-A.
 Alpha  occ. eigenvalues --  -38.44350 -38.44106 -38.43892 -38.43742 -38.43653
 Alpha  occ. eigenvalues --  -38.43441 -38.43298  -2.20153  -2.19918  -2.19708
 Alpha  occ. eigenvalues --   -2.19598  -2.19518  -2.19347  -2.19122  -1.13835
 Alpha  occ. eigenvalues --   -1.13820  -1.13782  -1.13594  -1.13587  -1.13550
 Alpha  occ. eigenvalues --   -1.13418  -1.13371  -1.13347  -1.13258  -1.13232
 Alpha  occ. eigenvalues --   -1.13217  -1.13189  -1.13178  -1.13157  -1.13025
 Alpha  occ. eigenvalues --   -1.12978  -1.12974  -1.12791  -1.12787  -1.12761
 Alpha  occ. eigenvalues --   -0.18191  -0.13118  -0.12270  -0.10646
 Alpha virt. eigenvalues --   -0.05952  -0.05317  -0.04704  -0.03346  -0.02847
 Alpha virt. eigenvalues --   -0.02591  -0.01541  -0.01303  -0.00572  -0.00430
 Alpha virt. eigenvalues --   -0.00036   0.00370   0.00766   0.00803   0.00873

  Beta  occ. eigenvalues --  -38.44346 -38.44097 -38.43892 -38.43658 -38.43650
  Beta  occ. eigenvalues --  -38.43368 -38.43298  -2.20148  -2.19905  -2.19710
  Beta  occ. eigenvalues --   -2.19515  -2.19442  -2.19212  -2.19124  -1.13821
  Beta  occ. eigenvalues --   -1.13803  -1.13783  -1.13581  -1.13557  -1.13544
  Beta  occ. eigenvalues --   -1.13421  -1.13354  -1.13350  -1.13189  -1.13163
  Beta  occ. eigenvalues --   -1.13154  -1.13151  -1.13122  -1.13105  -1.12935
  Beta  occ. eigenvalues --   -1.12879  -1.12878  -1.12793  -1.12772  -1.12764
  Beta  occ. eigenvalues --   -0.17481  -0.12911  -0.12073
  Beta virt. eigenvalues --   -0.06777  -0.05954  -0.05170  -0.04681  -0.02572
  Beta virt. eigenvalues --   -0.02136  -0.01570  -0.01448  -0.01218  -0.00635
  Beta virt. eigenvalues --   -0.00461   0.00123   0.00403   0.00768   0.00870

 Mulliken charges and spin densities:
               1          2
     1  Na  -0.025400  -0.049986
     2  Na  -0.352285   0.704347
     3  Na   0.159355  -0.144426
     4  Na   0.135429  -0.044852
     5  Na   0.148437  -0.086999
     6  Na  -0.028204   0.618182
     7  Na  -0.037332   0.003734
 Sum of Mulliken charges =  -0.00000   1.00000

 Dipole moment (field-independent basis, Debye):
    X=             -0.4719    Y=             -0.2864    Z=              0.0314  Tot=              0.5529
 Quadrupole moment (field-independent basis, Debye-Ang):
   XX=            -58.1268   YY=            -61.4913   ZZ=            -74.7186
   XY=             -0.5242   XZ=              1.2026   YZ=              0.9824

 Normal termination of Gaussian 16 at Thu Dec  7 14:36:38 2023.
