 Gaussian 16, Revision B.01,
 Gaussian 16:  ES64L-G16RevB.01 20-Dec-2017

 -------------------------
 #P B3LYP/6-311+g(d) force
 -------------------------

 -----
 DPGEN
 -----
 Symbolic Z-matrix:
 Charge =  0 Multiplicity = 2

                         Standard orientation:
 ---------------------------------------------------------------------
 Center     Atomic      Atomic             Coordinates (Angstroms)
 Number     Number       Type             X           Y           Z
 ---------------------------------------------------------------------
      1         11           0        0.420792    0.172595    1.685901
      2         11           0        3.863954   -0.322435    0.100881
      3         11           0        0.627419    0.233743   -1.319875
      4         11           0       -2.887526   -1.916564   -0.082144
      5         11           0        0.636135    3.375301   -0.263927
      6         11           0        0.447485   -3.220032   -0.201361
      7         11           0       -3.108259    1.677391    0.080525
 ---------------------------------------------------------------------

 SCF Done:  E(UB3LYP) =  -1136.11951435     A.U. after   25 cycles

 The electronic state is 2-A.
 Alpha  occ. eigenvalues --  -38.44847 -38.44777 -38.44240 -38.43994 -38.43856
 Alpha  occ. eigenvalues --  -38.43767 -38.43504  -2.20628  -2.20612  -2.20002
 Alpha  occ. eigenvalues --   -2.19769  -2.19664  -2.19567  -2.19436  -1.14393
 Alpha  occ. eigenvalues --   -1.14283  -1.14266  -1.14259  -1.14239  -1.14205
 Alpha  occ. eigenvalues --   -1.13684  -1.13657  -1.13632  -1.13457  -1.13428
 Alpha  occ. eigenvalues --   -1.13411  -1.13340  -1.13319  -1.13292  -1.13242
 Alpha  occ. eigenvalues --   -1.13225  -1.13191  -1.13178  -1.13056  -1.13023
 Alpha  occ. eigenvalues --   -0.17612  -0.12836  -0.12544  -0.09511
 Alpha virt. eigenvalues --   -0.06879  -0.05593  -0.05226  -0.02655  -0.02540
 Alpha virt. eigenvalues --   -0.02511  -0.01778  -0.01637  -0.01190  -0.00929
 Alpha virt. eigenvalues --   -0.00114   0.00153   0.00507   0.00537   0.00663

  Beta  occ. eigenvalues --  -38.44819 -38.44740 -38.44221 -38.43995 -38.43826
  Beta  occ. eigenvalues --  -38.43745 -38.43465  -2.20562  -2.20558  -2.19969
  Beta  occ. eigenvalues --   -2.19774  -2.19611  -2.19527  -2.19365  -1.14339
  Beta  occ. eigenvalues --   -1.14237  -1.14231  -1.14219  -1.14203  -1.14152
  Beta  occ. eigenvalues --   -1.13661  -1.13632  -1.13605  -1.13463  -1.13434
  Beta  occ. eigenvalues --   -1.13391  -1.13294  -1.13278  -1.13260  -1.13208
  Beta  occ. eigenvalues --   -1.13198  -1.13162  -1.13124  -1.13013  -1.12964
  Beta  occ. eigenvalues --   -0.17170  -0.12447  -0.12164
  Beta virt. eigenvalues --   -0.06662  -0.06124  -0.05356  -0.05188  -0.02314
  Beta virt. eigenvalues --   -0.02135  -0.02056  -0.01555  -0.01106  -0.01042
  Beta virt. eigenvalues --   -0.00851   0.00057   0.00264   0.00609   0.00715

 Mulliken charges and spin densities:
               1          2
     1  Na  -0.069805   0.546952
     2  Na   0.055756   0.125943
     3  Na   0.099692   0.017528
     4  Na  -0.143546  -0.007520
     5  Na   0.094070   0.072447
     6  Na   0.037169   0.123611
     7  Na  -0.073336   0.121040
 Sum of Mulliken charges =  -0.00000   1.00000

 Dipole moment (field-independent basis, Debye):
    X=              0.5858    Y=              0.1676    Z=              0.0071  Tot=              0.6094
 Quadrupole moment (field-independent basis, Debye-Ang):
   XX=            -58.1209   YY=            -61.5466   ZZ=            -75.1782
   XY=             -0.5502   XZ=             -0.5703   YZ=              0.3853

 Normal termination of Gaussian 16 at Tue Dec  5 13:08:14 2023.
