 Gaussian 16, Revision B.01,
 Gaussian 16:  ES64L-G16RevB.01 20-Dec-2017

 -------------------------
 #P B3LYP/6-311+g(d) force
 -------------------------

 -----
 DPGEN
 -----
 Symbolic Z-matrix:
 Charge =  0 Multiplicity = 2

                         Standard orientation:
 ---------------------------------------------------------------------
 Center     Atomic      Atomic             Coordinates (Angstroms)
 Number     Number       Type             X           Y           Z
 ---------------------------------------------------------------------
      1         11           0       -1.633210   -1.265240   -1.432328
      2         11           0        0.927499    0.276353   -1.588759
      3         11           0       -1.724088    2.153914   -0.484627
      4         11           0       -2.579426   -1.667505    1.136253
      5         11           0        3.265538   -2.138504   -0.030529
      6         11           0        0.235665   -0.070982    1.799748
      7         11           0        1.508023    2.711965    0.600242
 ---------------------------------------------------------------------

 SCF Done:  E(UB3LYP) =  -1136.11976136     A.U. after   21 cycles

 The electronic state is 2-A.
 Alpha  occ. eigenvalues --  -38.44137 -38.44041 -38.44039 -38.43954 -38.43910
 Alpha  occ. eigenvalues --  -38.43760 -38.43547  -2.20056  -2.19999  -2.19956
 Alpha  occ. eigenvalues --   -2.19815  -2.19763  -2.19524  -2.19495  -1.14018
 Alpha  occ. eigenvalues --   -1.13754  -1.13692  -1.13654  -1.13645  -1.13603
 Alpha  occ. eigenvalues --   -1.13577  -1.13559  -1.13496  -1.13490  -1.13472
 Alpha  occ. eigenvalues --   -1.13453  -1.13443  -1.13421  -1.13364  -1.13225
 Alpha  occ. eigenvalues --   -1.13173  -1.13169  -1.13165  -1.13130  -1.13079
 Alpha  occ. eigenvalues --   -0.18822  -0.13124  -0.11820  -0.11632
 Alpha virt. eigenvalues --   -0.05728  -0.05472  -0.04250  -0.03300  -0.03090
 Alpha virt. eigenvalues --   -0.02730  -0.01618  -0.01360  -0.00461   0.00103
 Alpha virt. eigenvalues --    0.00297   0.00392   0.00513   0.00753   0.00773

  Beta  occ. eigenvalues --  -38.44110 -38.44001 -38.43969 -38.43943 -38.43895
  Beta  occ. eigenvalues --  -38.43769 -38.43485  -2.20002  -2.19936  -2.19826
  Beta  occ. eigenvalues --   -2.19795  -2.19739  -2.19514  -2.19415  -1.13971
  Beta  occ. eigenvalues --   -1.13700  -1.13628  -1.13619  -1.13566  -1.13531
  Beta  occ. eigenvalues --   -1.13526  -1.13474  -1.13467  -1.13446  -1.13438
  Beta  occ. eigenvalues --   -1.13428  -1.13414  -1.13396  -1.13350  -1.13183
  Beta  occ. eigenvalues --   -1.13177  -1.13154  -1.13140  -1.13081  -1.13000
  Beta  occ. eigenvalues --   -0.17976  -0.12928  -0.11530
  Beta virt. eigenvalues --   -0.07662  -0.05660  -0.05335  -0.03546  -0.03154
  Beta virt. eigenvalues --   -0.02221  -0.02129  -0.01438  -0.01258  -0.00193
  Beta virt. eigenvalues --    0.00091   0.00332   0.00422   0.00653   0.00790

 Mulliken charges and spin densities:
               1          2
     1  Na   0.226281   0.182577
     2  Na   0.013445   0.125540
     3  Na  -0.192562   0.137435
     4  Na  -0.023533   0.033722
     5  Na  -0.035349  -0.052239
     6  Na  -0.279318   0.517564
     7  Na   0.291037   0.055402
 Sum of Mulliken charges =  -0.00000   1.00000

 Dipole moment (field-independent basis, Debye):
    X=             -0.3134    Y=              0.5659    Z=              0.3809  Tot=              0.7507
 Quadrupole moment (field-independent basis, Debye-Ang):
   XX=            -61.6718   YY=            -64.5929   ZZ=            -68.7907
   XY=              1.9829   XZ=              0.7277   YZ=             -0.4175

 Normal termination of Gaussian 16 at Tue Dec  5 23:03:41 2023.
