 Gaussian 16, Revision B.01,
 Gaussian 16:  ES64L-G16RevB.01 20-Dec-2017

 -------------------------
 #P B3LYP/6-311+g(d) force
 -------------------------

 -----
 DPGEN
 -----
 Symbolic Z-matrix:
 Charge =  0 Multiplicity = 2

                         Standard orientation:
 ---------------------------------------------------------------------
 Center     Atomic      Atomic             Coordinates (Angstroms)
 Number     Number       Type             X           Y           Z
 ---------------------------------------------------------------------
      1         11           0        2.089281    1.983936    0.188655
      2         11           0        3.737444   -1.140434    0.213279
      3         11           0        0.147436   -0.702209    1.951337
      4         11           0        0.956749   -0.485344   -1.727302
      5         11           0       -2.011687   -2.086807   -0.603588
      6         11           0       -3.734285    0.248062    0.418589
      7         11           0       -1.184938    2.182795   -0.440970
 ---------------------------------------------------------------------

 SCF Done:  E(UB3LYP) =  -1136.12154906     A.U. after   25 cycles

 The electronic state is 2-A.
 Alpha  occ. eigenvalues --  -38.45359 -38.45119 -38.44806 -38.43599 -38.43572
 Alpha  occ. eigenvalues --  -38.43544 -38.42480  -2.21190  -2.20894  -2.20619
 Alpha  occ. eigenvalues --   -2.19459  -2.19454  -2.19445  -2.18339  -1.14872
 Alpha  occ. eigenvalues --   -1.14846  -1.14828  -1.14573  -1.14568  -1.14536
 Alpha  occ. eigenvalues --   -1.14302  -1.14267  -1.14221  -1.13170  -1.13151
 Alpha  occ. eigenvalues --   -1.13123  -1.13119  -1.13110  -1.13099  -1.13079
 Alpha  occ. eigenvalues --   -1.13063  -1.13051  -1.12015  -1.12005  -1.11988
 Alpha  occ. eigenvalues --   -0.18325  -0.14117  -0.11290  -0.10709
 Alpha virt. eigenvalues --   -0.07432  -0.05462  -0.04154  -0.03317  -0.02937
 Alpha virt. eigenvalues --   -0.02438  -0.02319  -0.01314  -0.00707  -0.00344
 Alpha virt. eigenvalues --    0.00031   0.00095   0.00338   0.00631   0.00731

  Beta  occ. eigenvalues --  -38.45354 -38.45140 -38.44729 -38.43578 -38.43568
  Beta  occ. eigenvalues --  -38.43464 -38.42474  -2.21181  -2.20936  -2.20478
  Beta  occ. eigenvalues --   -2.19439  -2.19423  -2.19309  -2.18331  -1.14867
  Beta  occ. eigenvalues --   -1.14838  -1.14815  -1.14597  -1.14589  -1.14560
  Beta  occ. eigenvalues --   -1.14203  -1.14164  -1.14119  -1.13144  -1.13105
  Beta  occ. eigenvalues --   -1.13103  -1.13101  -1.13063  -1.13059  -1.13027
  Beta  occ. eigenvalues --   -1.12977  -1.12956  -1.12014  -1.11989  -1.11974
  Beta  occ. eigenvalues --   -0.17601  -0.14050  -0.11079
  Beta virt. eigenvalues --   -0.07231  -0.06810  -0.05416  -0.03734  -0.03059
  Beta virt. eigenvalues --   -0.02665  -0.01705  -0.01543  -0.01175  -0.00527
  Beta virt. eigenvalues --   -0.00276   0.00067   0.00126   0.00500   0.00690

 Mulliken charges and spin densities:
               1          2
     1  Na   0.131123   0.141466
     2  Na   0.341567  -0.070664
     3  Na  -0.382257   0.484723
     4  Na  -0.115986   0.329891
     5  Na   0.050020   0.084799
     6  Na   0.350651   0.045607
     7  Na  -0.375119  -0.015822
 Sum of Mulliken charges =  -0.00000   1.00000

 Dipole moment (field-independent basis, Debye):
    X=              0.2529    Y=             -0.2655    Z=              0.4462  Tot=              0.5775
 Quadrupole moment (field-independent basis, Debye-Ang):
   XX=            -44.8864   YY=            -75.0030   ZZ=            -73.7345
   XY=             -1.0304   XZ=             -0.2324   YZ=              0.9018

 Normal termination of Gaussian 16 at Fri Dec  8 02:30:44 2023.
