 Gaussian 16, Revision B.01,
 Gaussian 16:  ES64L-G16RevB.01 20-Dec-2017

 -------------------------
 #P B3LYP/6-311+g(d) force
 -------------------------

 -----
 DPGEN
 -----
 Symbolic Z-matrix:
 Charge =  0 Multiplicity = 2

                         Standard orientation:
 ---------------------------------------------------------------------
 Center     Atomic      Atomic             Coordinates (Angstroms)
 Number     Number       Type             X           Y           Z
 ---------------------------------------------------------------------
      1         11           0        2.745696   -1.873026    0.277577
      2         11           0       -0.825711   -2.852063   -0.342015
      3         11           0       -0.381975   -0.051303    2.080415
      4         11           0       -0.013587   -0.123648   -1.726886
      5         11           0        2.678772    1.491782   -0.159152
      6         11           0       -3.957105    0.105336   -0.032608
      7         11           0       -0.246090    3.302921   -0.097331
 ---------------------------------------------------------------------

 SCF Done:  E(UB3LYP) =  -1136.12568110     A.U. after   21 cycles

 The electronic state is 2-A.
 Alpha  occ. eigenvalues --  -38.45377 -38.43991 -38.43984 -38.43905 -38.43892
 Alpha  occ. eigenvalues --  -38.43732 -38.43564  -2.21076  -2.19815  -2.19800
 Alpha  occ. eigenvalues --   -2.19709  -2.19671  -2.19570  -2.19460  -1.14758
 Alpha  occ. eigenvalues --   -1.14744  -1.14709  -1.13542  -1.13486  -1.13465
 Alpha  occ. eigenvalues --   -1.13433  -1.13421  -1.13411  -1.13394  -1.13371
 Alpha  occ. eigenvalues --   -1.13344  -1.13343  -1.13334  -1.13321  -1.13253
 Alpha  occ. eigenvalues --   -1.13231  -1.13193  -1.13140  -1.13090  -1.13072
 Alpha  occ. eigenvalues --   -0.17752  -0.12619  -0.12190  -0.10428
 Alpha virt. eigenvalues --   -0.06727  -0.05203  -0.04807  -0.03039  -0.02852
 Alpha virt. eigenvalues --   -0.02506  -0.02198  -0.01313  -0.00766  -0.00661
 Alpha virt. eigenvalues --   -0.00113   0.00271   0.00574   0.00633   0.00767

  Beta  occ. eigenvalues --  -38.45388 -38.43976 -38.43898 -38.43895 -38.43891
  Beta  occ. eigenvalues --  -38.43726 -38.43495  -2.21098  -2.19791  -2.19698
  Beta  occ. eigenvalues --   -2.19672  -2.19634  -2.19562  -2.19333  -1.14767
  Beta  occ. eigenvalues --   -1.14758  -1.14725  -1.13516  -1.13442  -1.13410
  Beta  occ. eigenvalues --   -1.13389  -1.13359  -1.13346  -1.13340  -1.13337
  Beta  occ. eigenvalues --   -1.13332  -1.13322  -1.13315  -1.13289  -1.13241
  Beta  occ. eigenvalues --   -1.13214  -1.13187  -1.13055  -1.12996  -1.12985
  Beta  occ. eigenvalues --   -0.17022  -0.12424  -0.12026
  Beta virt. eigenvalues --   -0.06765  -0.06493  -0.05080  -0.04785  -0.02373
  Beta virt. eigenvalues --   -0.02149  -0.02120  -0.01452  -0.01209  -0.00842
  Beta virt. eigenvalues --   -0.00670   0.00046   0.00301   0.00652   0.00709

 Mulliken charges and spin densities:
               1          2
     1  Na   0.057330   0.058169
     2  Na   0.200681  -0.044245
     3  Na  -0.398947   0.799676
     4  Na   0.132557   0.465531
     5  Na   0.096415   0.016989
     6  Na  -0.062802  -0.168472
     7  Na  -0.025232  -0.127648
 Sum of Mulliken charges =  -0.00000   1.00000

 Dipole moment (field-independent basis, Debye):
    X=             -0.6383    Y=             -0.0274    Z=              0.0253  Tot=              0.6394
 Quadrupole moment (field-independent basis, Debye-Ang):
   XX=            -53.9369   YY=            -62.1076   ZZ=            -76.6064
   XY=             -1.6202   XZ=              0.9582   YZ=             -0.3489

 Normal termination of Gaussian 16 at Thu Dec  7 22:05:16 2023.
