 Gaussian 16, Revision B.01,
 Gaussian 16:  ES64L-G16RevB.01 20-Dec-2017

 -------------------------
 #P B3LYP/6-311+g(d) force
 -------------------------

 -----
 DPGEN
 -----
 Symbolic Z-matrix:
 Charge =  0 Multiplicity = 2

                         Standard orientation:
 ---------------------------------------------------------------------
 Center     Atomic      Atomic             Coordinates (Angstroms)
 Number     Number       Type             X           Y           Z
 ---------------------------------------------------------------------
      1         11           0       -1.166939    2.221339    0.044234
      2         11           0        2.282950    1.628554   -0.637387
      3         11           0       -3.113464   -0.472792   -0.481184
      4         11           0       -0.869666   -1.621167    1.240081
      5         11           0        0.608752    0.678820    1.819805
      6         11           0        2.542199   -1.808873   -0.206765
      7         11           0       -0.283832   -0.625881   -1.778784
 ---------------------------------------------------------------------

 SCF Done:  E(UB3LYP) =  -1136.12507575     A.U. after   20 cycles

 The electronic state is 2-A.
 Alpha  occ. eigenvalues --  -38.44039 -38.43830 -38.43744 -38.43712 -38.43629
 Alpha  occ. eigenvalues --  -38.43475 -38.42862  -2.19957  -2.19893  -2.19726
 Alpha  occ. eigenvalues --   -2.19643  -2.19601  -2.19313  -2.18796  -1.13777
 Alpha  occ. eigenvalues --   -1.13690  -1.13645  -1.13578  -1.13567  -1.13503
 Alpha  occ. eigenvalues --   -1.13422  -1.13363  -1.13339  -1.13278  -1.13259
 Alpha  occ. eigenvalues --   -1.13248  -1.13229  -1.13204  -1.13199  -1.12985
 Alpha  occ. eigenvalues --   -1.12964  -1.12958  -1.12507  -1.12459  -1.12392
 Alpha  occ. eigenvalues --   -0.19595  -0.13538  -0.11955  -0.11825
 Alpha virt. eigenvalues --   -0.05570  -0.04876  -0.03929  -0.03502  -0.03107
 Alpha virt. eigenvalues --   -0.02986  -0.01566  -0.00770  -0.00233   0.00285
 Alpha virt. eigenvalues --    0.00379   0.00430   0.00785   0.00905   0.00954

  Beta  occ. eigenvalues --  -38.44030 -38.43750 -38.43698 -38.43683 -38.43572
  Beta  occ. eigenvalues --  -38.43474 -38.42854  -2.19944  -2.19751  -2.19614
  Beta  occ. eigenvalues --   -2.19577  -2.19544  -2.19314  -2.18786  -1.13677
  Beta  occ. eigenvalues --   -1.13664  -1.13610  -1.13571  -1.13473  -1.13413
  Beta  occ. eigenvalues --   -1.13353  -1.13286  -1.13259  -1.13240  -1.13229
  Beta  occ. eigenvalues --   -1.13192  -1.13183  -1.13143  -1.13118  -1.12974
  Beta  occ. eigenvalues --   -1.12968  -1.12950  -1.12493  -1.12428  -1.12390
  Beta  occ. eigenvalues --   -0.18806  -0.13287  -0.11682
  Beta virt. eigenvalues --   -0.07752  -0.05467  -0.04868  -0.03485  -0.03143
  Beta virt. eigenvalues --   -0.02301  -0.01937  -0.01458  -0.00730  -0.00033
  Beta virt. eigenvalues --    0.00294   0.00391   0.00441   0.00869   0.00917

 Mulliken charges and spin densities:
               1          2
     1  Na  -0.446693   0.017449
     2  Na  -0.147272   0.028313
     3  Na   0.544701   0.090997
     4  Na  -0.128508   0.049580
     5  Na   0.619032   0.303298
     6  Na  -0.145669  -0.076923
     7  Na  -0.295592   0.587288
 Sum of Mulliken charges =  -0.00000   1.00000

 Dipole moment (field-independent basis, Debye):
    X=              0.0467    Y=             -0.0599    Z=             -0.4560  Tot=              0.4623
 Quadrupole moment (field-independent basis, Debye-Ang):
   XX=            -55.0491   YY=            -71.3031   ZZ=            -68.6578
   XY=             -0.2025   XZ=             -0.3706   YZ=             -1.9355

 Normal termination of Gaussian 16 at Tue Dec  5 10:38:41 2023.
