 Gaussian 16, Revision B.01,
 Gaussian 16:  ES64L-G16RevB.01 20-Dec-2017

 -------------------------
 #P B3LYP/6-311+g(d) force
 -------------------------

 -----
 DPGEN
 -----
 Symbolic Z-matrix:
 Charge =  0 Multiplicity = 2

                         Standard orientation:
 ---------------------------------------------------------------------
 Center     Atomic      Atomic             Coordinates (Angstroms)
 Number     Number       Type             X           Y           Z
 ---------------------------------------------------------------------
      1         11           0       -0.884413   -2.738138   -0.204416
      2         11           0       -3.548129    0.233665   -0.072559
      3         11           0       -0.607084    2.965167    0.105849
      4         11           0        3.062754    1.321071   -0.202421
      5         11           0       -0.250669    0.071288   -1.624206
      6         11           0        2.347304   -1.638643    0.031660
      7         11           0       -0.119763   -0.214410    1.966092
 ---------------------------------------------------------------------

 SCF Done:  E(UB3LYP) =  -1136.13249300     A.U. after   20 cycles

 The electronic state is 2-A.
 Alpha  occ. eigenvalues --  -38.45153 -38.44118 -38.43722 -38.43461 -38.43339
 Alpha  occ. eigenvalues --  -38.43243 -38.43195  -2.20906  -2.19938  -2.19517
 Alpha  occ. eigenvalues --   -2.19370  -2.19240  -2.19195  -2.19071  -1.14586
 Alpha  occ. eigenvalues --   -1.14553  -1.14545  -1.13659  -1.13593  -1.13562
 Alpha  occ. eigenvalues --   -1.13210  -1.13191  -1.13137  -1.13054  -1.13029
 Alpha  occ. eigenvalues --   -1.13019  -1.12931  -1.12891  -1.12868  -1.12858
 Alpha  occ. eigenvalues --   -1.12852  -1.12804  -1.12729  -1.12725  -1.12689
 Alpha  occ. eigenvalues --   -0.18470  -0.13076  -0.12244  -0.10454
 Alpha virt. eigenvalues --   -0.06459  -0.04869  -0.04705  -0.03111  -0.02710
 Alpha virt. eigenvalues --   -0.02362  -0.02123  -0.01090  -0.00616  -0.00326
 Alpha virt. eigenvalues --   -0.00034   0.00306   0.00741   0.00800   0.00851

  Beta  occ. eigenvalues --  -38.45152 -38.44115 -38.43718 -38.43454 -38.43243
  Beta  occ. eigenvalues --  -38.43187 -38.43182  -2.20907  -2.19936  -2.19513
  Beta  occ. eigenvalues --   -2.19361  -2.19084  -2.19065  -2.19060  -1.14572
  Beta  occ. eigenvalues --   -1.14556  -1.14548  -1.13660  -1.13576  -1.13562
  Beta  occ. eigenvalues --   -1.13204  -1.13171  -1.13138  -1.13047  -1.13018
  Beta  occ. eigenvalues --   -1.12986  -1.12856  -1.12797  -1.12777  -1.12751
  Beta  occ. eigenvalues --   -1.12730  -1.12723  -1.12699  -1.12688  -1.12672
  Beta  occ. eigenvalues --   -0.17742  -0.12867  -0.12005
  Beta virt. eigenvalues --   -0.06575  -0.06408  -0.04871  -0.04652  -0.02378
  Beta virt. eigenvalues --   -0.02041  -0.01952  -0.01302  -0.01024  -0.00654
  Beta virt. eigenvalues --   -0.00373   0.00116   0.00336   0.00760   0.00866

 Mulliken charges and spin densities:
               1          2
     1  Na   0.293067  -0.068953
     2  Na   0.051065  -0.131233
     3  Na  -0.061042  -0.123727
     4  Na  -0.014079  -0.053603
     5  Na  -0.258511   0.568466
     6  Na   0.378701   0.067380
     7  Na  -0.389201   0.741670
 Sum of Mulliken charges =  -0.00000   1.00000

 Dipole moment (field-independent basis, Debye):
    X=             -0.7180    Y=              0.2491    Z=              0.0860  Tot=              0.7649
 Quadrupole moment (field-independent basis, Debye-Ang):
   XX=            -52.0667   YY=            -63.7494   ZZ=            -76.1394
   XY=              0.7526   XZ=             -0.3897   YZ=              0.4872

 Normal termination of Gaussian 16 at Tue Dec  5 19:47:57 2023.
