 Gaussian 16, Revision B.01,
 Gaussian 16:  ES64L-G16RevB.01 20-Dec-2017

 -------------------------
 #P B3LYP/6-311+g(d) force
 -------------------------

 -----
 DPGEN
 -----
 Symbolic Z-matrix:
 Charge =  0 Multiplicity = 2

                         Standard orientation:
 ---------------------------------------------------------------------
 Center     Atomic      Atomic             Coordinates (Angstroms)
 Number     Number       Type             X           Y           Z
 ---------------------------------------------------------------------
      1         11           0        1.015373   -2.726923   -0.258389
      2         11           0        3.495763    0.067203    0.282704
      3         11           0        0.526436   -0.017239   -1.501307
      4         11           0       -2.494528   -1.780469   -0.093695
      5         11           0       -0.502116    0.061149    2.107074
      6         11           0       -2.847361    1.481483   -0.361615
      7         11           0        0.806432    2.914796   -0.174772
 ---------------------------------------------------------------------

 SCF Done:  E(UB3LYP) =  -1136.13284416     A.U. after   19 cycles

 The electronic state is 2-A.
 Alpha  occ. eigenvalues --  -38.44956 -38.44137 -38.43740 -38.43578 -38.43549
 Alpha  occ. eigenvalues --  -38.43365 -38.43131  -2.20727  -2.19952  -2.19588
 Alpha  occ. eigenvalues --   -2.19439  -2.19361  -2.19222  -2.19110  -1.14404
 Alpha  occ. eigenvalues --   -1.14377  -1.14367  -1.13633  -1.13616  -1.13590
 Alpha  occ. eigenvalues --   -1.13262  -1.13255  -1.13227  -1.13102  -1.13081
 Alpha  occ. eigenvalues --   -1.13063  -1.13056  -1.13021  -1.13012  -1.12980
 Alpha  occ. eigenvalues --   -1.12872  -1.12831  -1.12780  -1.12725  -1.12711
 Alpha  occ. eigenvalues --   -0.18269  -0.13149  -0.12216  -0.10394
 Alpha virt. eigenvalues --   -0.06290  -0.05204  -0.04611  -0.03265  -0.02657
 Alpha virt. eigenvalues --   -0.02365  -0.01964  -0.01124  -0.00617  -0.00485
 Alpha virt. eigenvalues --   -0.00034   0.00314   0.00732   0.00803   0.00851

  Beta  occ. eigenvalues --  -38.44955 -38.44130 -38.43736 -38.43545 -38.43480
  Beta  occ. eigenvalues --  -38.43358 -38.43080  -2.20726  -2.19941  -2.19582
  Beta  occ. eigenvalues --   -2.19356  -2.19259  -2.19212  -2.19017  -1.14390
  Beta  occ. eigenvalues --   -1.14377  -1.14369  -1.13627  -1.13591  -1.13583
  Beta  occ. eigenvalues --   -1.13256  -1.13235  -1.13218  -1.13070  -1.13009
  Beta  occ. eigenvalues --   -1.12993  -1.12978  -1.12976  -1.12934  -1.12929
  Beta  occ. eigenvalues --   -1.12847  -1.12828  -1.12715  -1.12665  -1.12645
  Beta  occ. eigenvalues --   -0.17576  -0.12970  -0.11975
  Beta virt. eigenvalues --   -0.06557  -0.06176  -0.05201  -0.04557  -0.02551
  Beta virt. eigenvalues --   -0.01934  -0.01837  -0.01329  -0.01055  -0.00655
  Beta virt. eigenvalues --   -0.00520   0.00134   0.00356   0.00792   0.00822

 Mulliken charges and spin densities:
               1          2
     1  Na   0.203905  -0.046936
     2  Na   0.014642  -0.007558
     3  Na  -0.024468   0.373279
     4  Na   0.251174   0.016129
     5  Na  -0.536458   0.783243
     6  Na   0.080124  -0.027395
     7  Na   0.011081  -0.090763
 Sum of Mulliken charges =  -0.00000   1.00000

 Dipole moment (field-independent basis, Debye):
    X=              0.4131    Y=              0.1315    Z=              0.1907  Tot=              0.4736
 Quadrupole moment (field-independent basis, Debye-Ang):
   XX=            -52.1779   YY=            -63.8956   ZZ=            -76.1689
   XY=             -0.0629   XZ=              2.6026   YZ=             -0.1987

 Normal termination of Gaussian 16 at Thu Dec  7 10:24:08 2023.
