 Gaussian 16, Revision B.01,
 Gaussian 16:  ES64L-G16RevB.01 20-Dec-2017

 -------------------------
 #P B3LYP/6-311+g(d) force
 -------------------------

 -----
 DPGEN
 -----
 Symbolic Z-matrix:
 Charge =  0 Multiplicity = 2

                         Standard orientation:
 ---------------------------------------------------------------------
 Center     Atomic      Atomic             Coordinates (Angstroms)
 Number     Number       Type             X           Y           Z
 ---------------------------------------------------------------------
      1         11           0        1.067766    0.873819   -2.169545
      2         11           0        0.377587   -0.888457    2.310893
      3         11           0       -4.621429   -0.354921    0.045610
      4         11           0       -2.035748    0.252888   -0.334406
      5         11           0        1.271167   -2.644959   -0.959076
      6         11           0        3.253925   -0.100230    0.558307
      7         11           0        0.686732    2.861860    0.548216
 ---------------------------------------------------------------------

 SCF Done:  E(UB3LYP) =  -1136.11405580     A.U. after   22 cycles

 The electronic state is 2-A.
 Alpha  occ. eigenvalues --  -38.45408 -38.44790 -38.44774 -38.43837 -38.43828
 Alpha  occ. eigenvalues --  -38.43327 -38.43129  -2.21218  -2.20612  -2.20603
 Alpha  occ. eigenvalues --   -2.19699  -2.19633  -2.19240  -2.18940  -1.14910
 Alpha  occ. eigenvalues --   -1.14880  -1.14834  -1.14450  -1.14265  -1.14246
 Alpha  occ. eigenvalues --   -1.14224  -1.14219  -1.14211  -1.13379  -1.13351
 Alpha  occ. eigenvalues --   -1.13312  -1.13297  -1.13284  -1.13257  -1.12922
 Alpha  occ. eigenvalues --   -1.12887  -1.12841  -1.12607  -1.12593  -1.12585
 Alpha  occ. eigenvalues --   -0.17849  -0.13151  -0.11673  -0.11446
 Alpha virt. eigenvalues --   -0.07163  -0.04672  -0.03877  -0.03447  -0.03183
 Alpha virt. eigenvalues --   -0.02895  -0.02552  -0.00789  -0.00699  -0.00490
 Alpha virt. eigenvalues --   -0.00180  -0.00079   0.00262   0.00713   0.00855

  Beta  occ. eigenvalues --  -38.45399 -38.44782 -38.44717 -38.43794 -38.43778
  Beta  occ. eigenvalues --  -38.43321 -38.43117  -2.21206  -2.20627  -2.20467
  Beta  occ. eigenvalues --   -2.19591  -2.19571  -2.19229  -2.18920  -1.14879
  Beta  occ. eigenvalues --   -1.14865  -1.14831  -1.14460  -1.14234  -1.14229
  Beta  occ. eigenvalues --   -1.14175  -1.14142  -1.14119  -1.13304  -1.13283
  Beta  occ. eigenvalues --   -1.13259  -1.13242  -1.13216  -1.13206  -1.12921
  Beta  occ. eigenvalues --   -1.12861  -1.12837  -1.12592  -1.12578  -1.12564
  Beta  occ. eigenvalues --   -0.17027  -0.13100  -0.11314
  Beta virt. eigenvalues --   -0.07664  -0.06968  -0.04285  -0.03543  -0.03015
  Beta virt. eigenvalues --   -0.02839  -0.02497  -0.01951  -0.00725  -0.00539
  Beta virt. eigenvalues --   -0.00355  -0.00037   0.00074   0.00275   0.00778

 Mulliken charges and spin densities:
               1          2
     1  Na   1.033584   0.412332
     2  Na   0.358373   0.419970
     3  Na  -0.985665   0.052105
     4  Na  -0.996192  -0.145621
     5  Na   0.117032   0.111829
     6  Na   0.134607   0.089004
     7  Na   0.338261   0.060380
 Sum of Mulliken charges =  -0.00000   1.00000

 Dipole moment (field-independent basis, Debye):
    X=              0.5577    Y=             -0.2771    Z=              0.4265  Tot=              0.7548
 Quadrupole moment (field-independent basis, Debye-Ang):
   XX=            -54.0768   YY=            -72.9344   ZZ=            -67.8298
   XY=              2.6716   XZ=             -0.9193   YZ=              3.4588

 Normal termination of Gaussian 16 at Fri Dec  8 19:43:18 2023.
