 Gaussian 16, Revision B.01,
 Gaussian 16:  ES64L-G16RevB.01 20-Dec-2017

 -------------------------
 #P B3LYP/6-311+g(d) force
 -------------------------

 -----
 DPGEN
 -----
 Symbolic Z-matrix:
 Charge =  0 Multiplicity = 2

                         Standard orientation:
 ---------------------------------------------------------------------
 Center     Atomic      Atomic             Coordinates (Angstroms)
 Number     Number       Type             X           Y           Z
 ---------------------------------------------------------------------
      1         11           0       -2.816347   -1.151538   -0.369122
      2         11           0        0.332908   -2.720145    0.388929
      3         11           0        3.163036   -0.425083   -0.243913
      4         11           0       -0.479293    0.069176    1.761739
      5         11           0        1.422036    2.398481    0.295704
      6         11           0        0.427282   -0.250961   -1.506440
      7         11           0       -2.049622    2.080070   -0.326896
 ---------------------------------------------------------------------

 SCF Done:  E(UB3LYP) =  -1136.13583401     A.U. after   19 cycles

 The electronic state is 2-A.
 Alpha  occ. eigenvalues --  -38.44111 -38.43898 -38.43455 -38.43264 -38.43207
 Alpha  occ. eigenvalues --  -38.43065 -38.43006  -2.19983  -2.19769  -2.19337
 Alpha  occ. eigenvalues --   -2.19154  -2.19119  -2.19108  -2.19014  -1.13709
 Alpha  occ. eigenvalues --   -1.13627  -1.13607  -1.13446  -1.13437  -1.13406
 Alpha  occ. eigenvalues --   -1.13024  -1.13003  -1.12973  -1.12906  -1.12867
 Alpha  occ. eigenvalues --   -1.12832  -1.12809  -1.12777  -1.12766  -1.12744
 Alpha  occ. eigenvalues --   -1.12711  -1.12686  -1.12674  -1.12630  -1.12609
 Alpha  occ. eigenvalues --   -0.19221  -0.13393  -0.12562  -0.10609
 Alpha virt. eigenvalues --   -0.05686  -0.05067  -0.04533  -0.03196  -0.02829
 Alpha virt. eigenvalues --   -0.02135  -0.01631  -0.01033  -0.00279  -0.00109
 Alpha virt. eigenvalues --    0.00049   0.00347   0.00824   0.00899   0.00920

  Beta  occ. eigenvalues --  -38.44105 -38.43886 -38.43446 -38.43255 -38.43193
  Beta  occ. eigenvalues --  -38.43010 -38.42922  -2.19974  -2.19751  -2.19324
  Beta  occ. eigenvalues --   -2.19141  -2.19090  -2.19017  -2.18861  -1.13694
  Beta  occ. eigenvalues --   -1.13615  -1.13598  -1.13437  -1.13408  -1.13384
  Beta  occ. eigenvalues --   -1.13015  -1.12983  -1.12950  -1.12871  -1.12851
  Beta  occ. eigenvalues --   -1.12794  -1.12769  -1.12755  -1.12710  -1.12707
  Beta  occ. eigenvalues --   -1.12661  -1.12633  -1.12578  -1.12525  -1.12500
  Beta  occ. eigenvalues --   -0.18521  -0.13106  -0.12294
  Beta virt. eigenvalues --   -0.06719  -0.05597  -0.05058  -0.04512  -0.02444
  Beta virt. eigenvalues --   -0.02045  -0.01534  -0.01124  -0.00979  -0.00267
  Beta virt. eigenvalues --   -0.00149   0.00165   0.00392   0.00874   0.00902

 Mulliken charges and spin densities:
               1          2
     1  Na   0.114772   0.024636
     2  Na   0.145375  -0.047138
     3  Na   0.300950  -0.030017
     4  Na  -0.218856   0.575080
     5  Na   0.112979  -0.032889
     6  Na  -0.446412   0.487846
     7  Na  -0.008808   0.022481
 Sum of Mulliken charges =  -0.00000   1.00000

 Dipole moment (field-independent basis, Debye):
    X=              0.0433    Y=             -0.0768    Z=              0.0478  Tot=              0.1002
 Quadrupole moment (field-independent basis, Debye-Ang):
   XX=            -54.5715   YY=            -63.0857   ZZ=            -74.8457
   XY=              0.0907   XZ=              1.7825   YZ=             -0.5253

 Normal termination of Gaussian 16 at Tue Nov 28 22:50:13 2023.
