 Gaussian 16, Revision B.01,
 Gaussian 16:  ES64L-G16RevB.01 20-Dec-2017

 -------------------------
 #P B3LYP/6-311+g(d) force
 -------------------------

 -----
 DPGEN
 -----
 Symbolic Z-matrix:
 Charge =  0 Multiplicity = 2

                         Standard orientation:
 ---------------------------------------------------------------------
 Center     Atomic      Atomic             Coordinates (Angstroms)
 Number     Number       Type             X           Y           Z
 ---------------------------------------------------------------------
      1         11           0        0.789616    1.887923   -0.581696
      2         11           0        3.918822   -0.008369   -1.060213
      3         11           0        2.223053   -0.096633    2.261714
      4         11           0        0.882830   -1.981174   -0.582560
      5         11           0       -2.184802   -2.522945   -0.044636
      6         11           0       -3.822692    0.044387   -0.008101
      7         11           0       -1.806827    2.676812    0.015493
 ---------------------------------------------------------------------

 SCF Done:  E(UB3LYP) =  -1136.11077799     A.U. after   28 cycles

 The electronic state is 2-A.
 Alpha  occ. eigenvalues --  -38.45494 -38.44730 -38.44684 -38.44461 -38.44174
 Alpha  occ. eigenvalues --  -38.43722 -38.43680  -2.21310  -2.20549  -2.20503
 Alpha  occ. eigenvalues --   -2.20334  -2.20002  -2.19570  -2.19554  -1.14997
 Alpha  occ. eigenvalues --   -1.14973  -1.14951  -1.14250  -1.14228  -1.14187
 Alpha  occ. eigenvalues --   -1.14160  -1.14157  -1.14126  -1.14104  -1.13995
 Alpha  occ. eigenvalues --   -1.13970  -1.13652  -1.13639  -1.13610  -1.13250
 Alpha  occ. eigenvalues --   -1.13232  -1.13229  -1.13205  -1.13172  -1.13168
 Alpha  occ. eigenvalues --   -0.17505  -0.14318  -0.12501  -0.10323
 Alpha virt. eigenvalues --   -0.07593  -0.05856  -0.04426  -0.03529  -0.02878
 Alpha virt. eigenvalues --   -0.02280  -0.02242  -0.01780  -0.00711  -0.00648
 Alpha virt. eigenvalues --   -0.00473   0.00066   0.00341   0.00544   0.00609

  Beta  occ. eigenvalues --  -38.45497 -38.44726 -38.44619 -38.44454 -38.44072
  Beta  occ. eigenvalues --  -38.43723 -38.43681  -2.21316  -2.20545  -2.20383
  Beta  occ. eigenvalues --   -2.20325  -2.19813  -2.19572  -2.19555  -1.15002
  Beta  occ. eigenvalues --   -1.14976  -1.14955  -1.14250  -1.14195  -1.14186
  Beta  occ. eigenvalues --   -1.14116  -1.14072  -1.14061  -1.14034  -1.13986
  Beta  occ. eigenvalues --   -1.13951  -1.13519  -1.13508  -1.13485  -1.13253
  Beta  occ. eigenvalues --   -1.13232  -1.13230  -1.13203  -1.13174  -1.13165
  Beta  occ. eigenvalues --   -0.17070  -0.13997  -0.12455
  Beta virt. eigenvalues --   -0.07407  -0.06284  -0.05723  -0.04297  -0.03180
  Beta virt. eigenvalues --   -0.02707  -0.01926  -0.01505  -0.01380  -0.00532
  Beta virt. eigenvalues --   -0.00479  -0.00220   0.00159   0.00528   0.00672

 Mulliken charges and spin densities:
               1          2
     1  Na  -0.742271   0.019299
     2  Na   1.506535   0.535738
     3  Na  -0.239345   0.470014
     4  Na  -0.288854   0.067775
     5  Na  -0.067107  -0.044815
     6  Na  -0.372646  -0.034394
     7  Na   0.203688  -0.013617
 Sum of Mulliken charges =  -0.00000   1.00000

 Dipole moment (field-independent basis, Debye):
    X=             -0.3117    Y=             -0.1418    Z=              0.2087  Tot=              0.4011
 Quadrupole moment (field-independent basis, Debye-Ang):
   XX=            -51.4953   YY=            -71.9928   ZZ=            -76.3531
   XY=             -0.7840   XZ=             -0.1799   YZ=              0.7879

 Normal termination of Gaussian 16 at Fri Dec  8 19:56:28 2023.
