 Gaussian 16, Revision B.01,
 Gaussian 16:  ES64L-G16RevB.01 20-Dec-2017

 -------------------------
 #P B3LYP/6-311+g(d) force
 -------------------------

 -----
 DPGEN
 -----
 Symbolic Z-matrix:
 Charge =  0 Multiplicity = 2

                         Standard orientation:
 ---------------------------------------------------------------------
 Center     Atomic      Atomic             Coordinates (Angstroms)
 Number     Number       Type             X           Y           Z
 ---------------------------------------------------------------------
      1         11           0       -1.535718   -2.408370   -0.347225
      2         11           0       -0.563475    2.952700   -0.151933
      3         11           0       -0.029210    0.043723    2.032331
      4         11           0        2.977422    1.362561   -0.100161
      5         11           0        2.255109   -2.274013    0.138620
      6         11           0       -3.291090    0.294062    0.080514
      7         11           0        0.186962    0.029338   -1.652147
 ---------------------------------------------------------------------

 SCF Done:  E(UB3LYP) =  -1136.13725112     A.U. after   19 cycles

 The electronic state is 2-A.
 Alpha  occ. eigenvalues --  -38.44392 -38.44244 -38.43799 -38.43580 -38.43442
 Alpha  occ. eigenvalues --  -38.43332 -38.43179  -2.20185  -2.20057  -2.19601
 Alpha  occ. eigenvalues --   -2.19448  -2.19258  -2.19201  -2.19132  -1.13869
 Alpha  occ. eigenvalues --   -1.13844  -1.13817  -1.13733  -1.13723  -1.13697
 Alpha  occ. eigenvalues --   -1.13275  -1.13263  -1.13243  -1.13122  -1.13077
 Alpha  occ. eigenvalues --   -1.13062  -1.12958  -1.12925  -1.12923  -1.12883
 Alpha  occ. eigenvalues --   -1.12857  -1.12828  -1.12806  -1.12749  -1.12747
 Alpha  occ. eigenvalues --   -0.18343  -0.13010  -0.12243  -0.10542
 Alpha virt. eigenvalues --   -0.05942  -0.05370  -0.04599  -0.03143  -0.02770
 Alpha virt. eigenvalues --   -0.02482  -0.01755  -0.01264  -0.00585  -0.00401
 Alpha virt. eigenvalues --   -0.00020   0.00344   0.00738   0.00822   0.00873

  Beta  occ. eigenvalues --  -38.44389 -38.44243 -38.43796 -38.43486 -38.43437
  Beta  occ. eigenvalues --  -38.43322 -38.43114  -2.20183  -2.20058  -2.19599
  Beta  occ. eigenvalues --   -2.19276  -2.19253  -2.19186  -2.19013  -1.13854
  Beta  occ. eigenvalues --   -1.13838  -1.13818  -1.13737  -1.13705  -1.13698
  Beta  occ. eigenvalues --   -1.13264  -1.13253  -1.13244  -1.13008  -1.12961
  Beta  occ. eigenvalues --   -1.12945  -1.12936  -1.12903  -1.12898  -1.12881
  Beta  occ. eigenvalues --   -1.12831  -1.12816  -1.12728  -1.12667  -1.12665
  Beta  occ. eigenvalues --   -0.17619  -0.12809  -0.12006
  Beta virt. eigenvalues --   -0.06648  -0.05909  -0.05356  -0.04560  -0.02391
  Beta virt. eigenvalues --   -0.02016  -0.01661  -0.01418  -0.01193  -0.00647
  Beta virt. eigenvalues --   -0.00438   0.00123   0.00366   0.00783   0.00828

 Mulliken charges and spin densities:
               1          2
     1  Na   0.205889  -0.026851
     2  Na   0.026154  -0.127910
     3  Na  -0.428862   0.834805
     4  Na   0.089387  -0.111557
     5  Na   0.058596  -0.059970
     6  Na   0.098665  -0.033259
     7  Na  -0.049829   0.524743
 Sum of Mulliken charges =  -0.00000   1.00000

 Dipole moment (field-independent basis, Debye):
    X=              0.2090    Y=              0.1650    Z=              0.1343  Tot=              0.2983
 Quadrupole moment (field-independent basis, Debye-Ang):
   XX=            -53.6957   YY=            -63.0339   ZZ=            -75.6972
   XY=             -0.4644   XZ=              0.2929   YZ=             -0.0394

 Normal termination of Gaussian 16 at Fri Dec  8 06:16:45 2023.
