 Gaussian 16, Revision B.01,
 Gaussian 16:  ES64L-G16RevB.01 20-Dec-2017

 -------------------------
 #P B3LYP/6-311+g(d) force
 -------------------------

 -----
 DPGEN
 -----
 Symbolic Z-matrix:
 Charge =  0 Multiplicity = 2

                         Standard orientation:
 ---------------------------------------------------------------------
 Center     Atomic      Atomic             Coordinates (Angstroms)
 Number     Number       Type             X           Y           Z
 ---------------------------------------------------------------------
      1         11           0       -4.098414    1.327079    0.180628
      2         11           0        2.233841    3.242207   -0.209622
      3         11           0       -1.111054    3.497021    0.043990
      4         11           0       -3.600725   -2.252185   -0.615345
      5         11           0        2.798997   -2.728713   -0.548434
      6         11           0        4.569715   -0.155698    0.277328
      7         11           0       -0.792359   -2.929709    0.871456
 ---------------------------------------------------------------------

 SCF Done:  E(UB3LYP) =  -1136.10698023     A.U. after   20 cycles

 The electronic state is 2-A.
 Alpha  occ. eigenvalues --  -38.44984 -38.44979 -38.44841 -38.44557 -38.44316
 Alpha  occ. eigenvalues --  -38.44184 -38.44134  -2.20762  -2.20752  -2.20618
 Alpha  occ. eigenvalues --   -2.20349  -2.20075  -2.19975  -2.19917  -1.14442
 Alpha  occ. eigenvalues --   -1.14434  -1.14427  -1.14424  -1.14405  -1.14401
 Alpha  occ. eigenvalues --   -1.14286  -1.14275  -1.14243  -1.14004  -1.13999
 Alpha  occ. eigenvalues --   -1.13973  -1.13763  -1.13759  -1.13730  -1.13628
 Alpha  occ. eigenvalues --   -1.13611  -1.13593  -1.13573  -1.13561  -1.13536
 Alpha  occ. eigenvalues --   -0.15392  -0.13876  -0.13336  -0.10768
 Alpha virt. eigenvalues --   -0.07728  -0.04995  -0.04504  -0.03529  -0.03244
 Alpha virt. eigenvalues --   -0.02778  -0.02312  -0.01975  -0.01238  -0.00496
 Alpha virt. eigenvalues --   -0.00420  -0.00280  -0.00010   0.00144   0.00467

  Beta  occ. eigenvalues --  -38.44984 -38.44956 -38.44830 -38.44507 -38.44319
  Beta  occ. eigenvalues --  -38.44099 -38.44075  -2.20767  -2.20714  -2.20602
  Beta  occ. eigenvalues --   -2.20258  -2.20088  -2.19817  -2.19810  -1.14442
  Beta  occ. eigenvalues --   -1.14438  -1.14405  -1.14393  -1.14386  -1.14366
  Beta  occ. eigenvalues --   -1.14278  -1.14266  -1.14211  -1.13941  -1.13938
  Beta  occ. eigenvalues --   -1.13913  -1.13777  -1.13772  -1.13693  -1.13520
  Beta  occ. eigenvalues --   -1.13506  -1.13501  -1.13492  -1.13489  -1.13462
  Beta  occ. eigenvalues --   -0.14875  -0.13201  -0.12577
  Beta virt. eigenvalues --   -0.07840  -0.07643  -0.04701  -0.03947  -0.03276
  Beta virt. eigenvalues --   -0.02864  -0.02589  -0.02073  -0.01853  -0.01126
  Beta virt. eigenvalues --   -0.00249  -0.00058   0.00014   0.00074   0.00178

 Mulliken charges and spin densities:
               1          2
     1  Na  -0.081527   0.406748
     2  Na   0.085926   0.229699
     3  Na   0.107923  -0.019556
     4  Na   0.197212  -0.033572
     5  Na  -0.037805   0.051286
     6  Na   0.105651   0.121432
     7  Na  -0.377381   0.243962
 Sum of Mulliken charges =  -0.00000   1.00000

 Dipole moment (field-independent basis, Debye):
    X=              0.4907    Y=             -1.0407    Z=             -0.0959  Tot=              1.1546
 Quadrupole moment (field-independent basis, Debye-Ang):
   XX=            -58.5911   YY=            -70.5461   ZZ=            -71.4383
   XY=              4.3243   XZ=              2.5691   YZ=              2.3548

 Normal termination of Gaussian 16 at Mon Dec  4 00:37:49 2023.
