 Gaussian 16, Revision B.01,
 Gaussian 16:  ES64L-G16RevB.01 20-Dec-2017

 -------------------------
 #P B3LYP/6-311+g(d) force
 -------------------------

 -----
 DPGEN
 -----
 Symbolic Z-matrix:
 Charge =  0 Multiplicity = 2

                         Standard orientation:
 ---------------------------------------------------------------------
 Center     Atomic      Atomic             Coordinates (Angstroms)
 Number     Number       Type             X           Y           Z
 ---------------------------------------------------------------------
      1         11           0       -3.158568    1.479459    0.141188
      2         11           0        1.547493    2.884889   -0.023407
      3         11           0        3.526122   -0.432860   -0.063685
      4         11           0       -0.552721    0.362295   -1.671429
      5         11           0        0.989610   -2.294987   -0.397434
      6         11           0        0.063258   -0.250619    2.034440
      7         11           0       -2.415194   -1.748177   -0.019672
 ---------------------------------------------------------------------

 SCF Done:  E(UB3LYP) =  -1136.12669055     A.U. after   22 cycles

 The electronic state is 2-A.
 Alpha  occ. eigenvalues --  -38.45139 -38.44788 -38.43787 -38.43770 -38.43663
 Alpha  occ. eigenvalues --  -38.43480 -38.42686  -2.20927  -2.20594  -2.19682
 Alpha  occ. eigenvalues --   -2.19643  -2.19422  -2.19413  -2.18614  -1.14614
 Alpha  occ. eigenvalues --   -1.14590  -1.14552  -1.14265  -1.14254  -1.14238
 Alpha  occ. eigenvalues --   -1.13383  -1.13351  -1.13321  -1.13311  -1.13270
 Alpha  occ. eigenvalues --   -1.13250  -1.13104  -1.13099  -1.13086  -1.13063
 Alpha  occ. eigenvalues --   -1.13051  -1.13025  -1.12302  -1.12269  -1.12255
 Alpha  occ. eigenvalues --   -0.18429  -0.13504  -0.11713  -0.10602
 Alpha virt. eigenvalues --   -0.06765  -0.05425  -0.04062  -0.03418  -0.02592
 Alpha virt. eigenvalues --   -0.02462  -0.02196  -0.01251  -0.00759  -0.00141
 Alpha virt. eigenvalues --   -0.00076   0.00267   0.00624   0.00702   0.00737

  Beta  occ. eigenvalues --  -38.45141 -38.44785 -38.43777 -38.43676 -38.43666
  Beta  occ. eigenvalues --  -38.43417 -38.42672  -2.20932  -2.20591  -2.19669
  Beta  occ. eigenvalues --   -2.19470  -2.19428  -2.19298  -2.18592  -1.14618
  Beta  occ. eigenvalues --   -1.14583  -1.14557  -1.14262  -1.14246  -1.14229
  Beta  occ. eigenvalues --   -1.13370  -1.13314  -1.13300  -1.13206  -1.13148
  Beta  occ. eigenvalues --   -1.13127  -1.13097  -1.13088  -1.13070  -1.13023
  Beta  occ. eigenvalues --   -1.12965  -1.12942  -1.12291  -1.12244  -1.12215
  Beta  occ. eigenvalues --   -0.17671  -0.13336  -0.11508
  Beta virt. eigenvalues --   -0.06697  -0.06663  -0.05383  -0.04031  -0.02688
  Beta virt. eigenvalues --   -0.02136  -0.01839  -0.01443  -0.01180  -0.00771
  Beta virt. eigenvalues --   -0.00158   0.00090   0.00303   0.00728   0.00740

 Mulliken charges and spin densities:
               1          2
     1  Na   0.073275  -0.071272
     2  Na  -0.110619  -0.119354
     3  Na   0.005464  -0.059128
     4  Na  -0.067873   0.336379
     5  Na   0.070361   0.090526
     6  Na  -0.416629   0.655613
     7  Na   0.446020   0.167236
 Sum of Mulliken charges =  -0.00000   1.00000

 Dipole moment (field-independent basis, Debye):
    X=             -0.1228    Y=              0.1874    Z=              0.2158  Tot=              0.3110
 Quadrupole moment (field-independent basis, Debye-Ang):
   XX=            -49.1666   YY=            -68.2023   ZZ=            -75.3211
   XY=             -1.3571   XZ=             -1.0073   YZ=              1.2975

 Normal termination of Gaussian 16 at Tue Dec  5 16:53:30 2023.
