 Gaussian 16, Revision B.01,
 Gaussian 16:  ES64L-G16RevB.01 20-Dec-2017

 -------------------------
 #P B3LYP/6-311+g(d) force
 -------------------------

 -----
 DPGEN
 -----
 Symbolic Z-matrix:
 Charge =  0 Multiplicity = 2

                         Standard orientation:
 ---------------------------------------------------------------------
 Center     Atomic      Atomic             Coordinates (Angstroms)
 Number     Number       Type             X           Y           Z
 ---------------------------------------------------------------------
      1         11           0       -3.190568   -0.749759    0.088143
      2         11           0        0.234005   -0.430106   -1.798435
      3         11           0       -0.324171   -2.721704    0.148797
      4         11           0        3.020555   -1.173172   -0.084933
      5         11           0        1.799136    2.423312    0.202486
      6         11           0        0.010941    0.076500    1.845490
      7         11           0       -1.549899    2.574930   -0.401548
 ---------------------------------------------------------------------

 SCF Done:  E(UB3LYP) =  -1136.13809004     A.U. after   20 cycles

 The electronic state is 2-A.
 Alpha  occ. eigenvalues --  -38.43984 -38.43983 -38.43600 -38.43573 -38.43460
 Alpha  occ. eigenvalues --  -38.43389 -38.43335  -2.19804  -2.19785  -2.19437
 Alpha  occ. eigenvalues --   -2.19395  -2.19370  -2.19332  -2.19265  -1.13487
 Alpha  occ. eigenvalues --   -1.13458  -1.13457  -1.13445  -1.13441  -1.13438
 Alpha  occ. eigenvalues --   -1.13169  -1.13135  -1.13112  -1.13080  -1.13069
 Alpha  occ. eigenvalues --   -1.13065  -1.13052  -1.13015  -1.12984  -1.12966
 Alpha  occ. eigenvalues --   -1.12936  -1.12931  -1.12922  -1.12887  -1.12873
 Alpha  occ. eigenvalues --   -0.18597  -0.12759  -0.12687  -0.10632
 Alpha virt. eigenvalues --   -0.05626  -0.05218  -0.04801  -0.03053  -0.02992
 Alpha virt. eigenvalues --   -0.02432  -0.01623  -0.01149  -0.00411  -0.00328
 Alpha virt. eigenvalues --   -0.00007   0.00350   0.00795   0.00862   0.00878

  Beta  occ. eigenvalues --  -38.43983 -38.43981 -38.43595 -38.43565 -38.43448
  Beta  occ. eigenvalues --  -38.43315 -38.43253  -2.19801  -2.19788  -2.19431
  Beta  occ. eigenvalues --   -2.19382  -2.19353  -2.19196  -2.19115  -1.13474
  Beta  occ. eigenvalues --   -1.13453  -1.13450  -1.13443  -1.13439  -1.13434
  Beta  occ. eigenvalues --   -1.13132  -1.13127  -1.13089  -1.13077  -1.13046
  Beta  occ. eigenvalues --   -1.13039  -1.13018  -1.13010  -1.12957  -1.12899
  Beta  occ. eigenvalues --   -1.12850  -1.12835  -1.12830  -1.12782  -1.12765
  Beta  occ. eigenvalues --   -0.17866  -0.12529  -0.12444
  Beta virt. eigenvalues --   -0.06751  -0.05602  -0.05203  -0.04726  -0.02266
  Beta virt. eigenvalues --   -0.02249  -0.01549  -0.01403  -0.01079  -0.00443
  Beta virt. eigenvalues --   -0.00374   0.00124   0.00372   0.00851   0.00857

 Mulliken charges and spin densities:
               1          2
     1  Na  -0.019671  -0.080360
     2  Na  -0.268705   0.754173
     3  Na   0.308144  -0.116068
     4  Na   0.190350  -0.122990
     5  Na   0.041269  -0.082411
     6  Na  -0.190389   0.689119
     7  Na  -0.060998  -0.041463
 Sum of Mulliken charges =  -0.00000   1.00000

 Dipole moment (field-independent basis, Debye):
    X=              0.0751    Y=             -0.0462    Z=              0.0161  Tot=              0.0896
 Quadrupole moment (field-independent basis, Debye-Ang):
   XX=            -55.3379   YY=            -62.7494   ZZ=            -74.8863
   XY=             -0.1894   XZ=              0.5472   YZ=             -1.0924

 Normal termination of Gaussian 16 at Thu Dec  7 10:03:19 2023.
