 Gaussian 16, Revision B.01,
 Gaussian 16:  ES64L-G16RevB.01 20-Dec-2017

 -------------------------
 #P B3LYP/6-311+g(d) force
 -------------------------

 -----
 DPGEN
 -----
 Symbolic Z-matrix:
 Charge =  0 Multiplicity = 2

                         Standard orientation:
 ---------------------------------------------------------------------
 Center     Atomic      Atomic             Coordinates (Angstroms)
 Number     Number       Type             X           Y           Z
 ---------------------------------------------------------------------
      1         11           0        1.278258   -1.153463    1.619815
      2         11           0       -3.957838    0.882982   -0.327230
      3         11           0       -1.751766   -0.566396    1.467344
      4         11           0        0.041784   -2.544638   -0.809211
      5         11           0        2.831640   -0.384032   -1.269743
      6         11           0       -0.698730    1.125685   -1.478919
      7         11           0        2.256652    2.639861    0.797944
 ---------------------------------------------------------------------

 SCF Done:  E(UB3LYP) =  -1136.12632498     A.U. after   21 cycles

 The electronic state is 2-A.
 Alpha  occ. eigenvalues --  -38.44414 -38.44327 -38.44197 -38.43645 -38.43519
 Alpha  occ. eigenvalues --  -38.43398 -38.43334  -2.20251  -2.20141  -2.20018
 Alpha  occ. eigenvalues --   -2.19452  -2.19418  -2.19355  -2.19229  -1.13940
 Alpha  occ. eigenvalues --   -1.13918  -1.13856  -1.13828  -1.13792  -1.13788
 Alpha  occ. eigenvalues --   -1.13718  -1.13694  -1.13610  -1.13220  -1.13108
 Alpha  occ. eigenvalues --   -1.13086  -1.13082  -1.13078  -1.13062  -1.13045
 Alpha  occ. eigenvalues --   -1.12992  -1.12953  -1.12888  -1.12857  -1.12833
 Alpha  occ. eigenvalues --   -0.18256  -0.13497  -0.11701  -0.11209
 Alpha virt. eigenvalues --   -0.06353  -0.04900  -0.04575  -0.03236  -0.03107
 Alpha virt. eigenvalues --   -0.02473  -0.02113  -0.00910  -0.00697  -0.00159
 Alpha virt. eigenvalues --    0.00208   0.00222   0.00304   0.00729   0.00840

  Beta  occ. eigenvalues --  -38.44388 -38.44329 -38.44167 -38.43619 -38.43480
  Beta  occ. eigenvalues --  -38.43353 -38.43312  -2.20205  -2.20145  -2.19965
  Beta  occ. eigenvalues --   -2.19382  -2.19368  -2.19276  -2.19192  -1.13909
  Beta  occ. eigenvalues --   -1.13881  -1.13828  -1.13812  -1.13795  -1.13785
  Beta  occ. eigenvalues --   -1.13685  -1.13641  -1.13575  -1.13163  -1.13053
  Beta  occ. eigenvalues --   -1.13047  -1.13037  -1.13036  -1.13015  -1.13012
  Beta  occ. eigenvalues --   -1.12931  -1.12896  -1.12861  -1.12817  -1.12787
  Beta  occ. eigenvalues --   -0.17539  -0.13326  -0.11465
  Beta virt. eigenvalues --   -0.07346  -0.06211  -0.04619  -0.04203  -0.02944
  Beta virt. eigenvalues --   -0.02582  -0.02073  -0.01565  -0.00804  -0.00390
  Beta virt. eigenvalues --   -0.00063   0.00261   0.00275   0.00399   0.00841

 Mulliken charges and spin densities:
               1          2
     1  Na   0.291011   0.298929
     2  Na   0.428374  -0.081763
     3  Na  -0.256119   0.077727
     4  Na  -0.053948   0.283922
     5  Na   0.240553   0.204759
     6  Na  -0.527739   0.222437
     7  Na  -0.122132  -0.006010
 Sum of Mulliken charges =  -0.00000   1.00000

 Dipole moment (field-independent basis, Debye):
    X=             -0.5106    Y=             -0.0880    Z=             -0.4339  Tot=              0.6758
 Quadrupole moment (field-independent basis, Debye-Ang):
   XX=            -54.8563   YY=            -70.5656   ZZ=            -69.1327
   XY=             -2.0253   XZ=             -0.0483   YZ=              3.3150

 Normal termination of Gaussian 16 at Wed Nov 29 17:05:56 2023.
