 Gaussian 16, Revision B.01,
 Gaussian 16:  ES64L-G16RevB.01 20-Dec-2017

 -------------------------
 #P B3LYP/6-311+g(d) force
 -------------------------

 -----
 DPGEN
 -----
 Symbolic Z-matrix:
 Charge =  0 Multiplicity = 2

                         Standard orientation:
 ---------------------------------------------------------------------
 Center     Atomic      Atomic             Coordinates (Angstroms)
 Number     Number       Type             X           Y           Z
 ---------------------------------------------------------------------
      1         11           0       -3.512083    0.741498   -0.522423
      2         11           0        0.568350   -0.013400   -1.842484
      3         11           0       -1.351556   -2.164089   -0.181496
      4         11           0       -0.424084   -0.573391    2.078230
      5         11           0        1.936373   -2.163890    0.061327
      6         11           0        2.820152    1.326043   -0.089320
      7         11           0       -0.037152    2.847229    0.496166
 ---------------------------------------------------------------------

 SCF Done:  E(UB3LYP) =  -1136.12939803     A.U. after   20 cycles

 The electronic state is 2-A.
 Alpha  occ. eigenvalues --  -38.44392 -38.44016 -38.43792 -38.43736 -38.43586
 Alpha  occ. eigenvalues --  -38.43404 -38.43389  -2.20144  -2.19929  -2.19744
 Alpha  occ. eigenvalues --   -2.19602  -2.19397  -2.19336  -2.19307  -1.13815
 Alpha  occ. eigenvalues --   -1.13804  -1.13778  -1.13680  -1.13558  -1.13518
 Alpha  occ. eigenvalues --   -1.13455  -1.13424  -1.13368  -1.13262  -1.13257
 Alpha  occ. eigenvalues --   -1.13237  -1.13072  -1.13060  -1.13038  -1.13022
 Alpha  occ. eigenvalues --   -1.13015  -1.12982  -1.12967  -1.12952  -1.12883
 Alpha  occ. eigenvalues --   -0.18628  -0.12981  -0.12380  -0.11069
 Alpha virt. eigenvalues --   -0.05865  -0.04943  -0.04607  -0.03436  -0.03065
 Alpha virt. eigenvalues --   -0.02697  -0.01619  -0.01004  -0.00281  -0.00088
 Alpha virt. eigenvalues --   -0.00071   0.00328   0.00798   0.00847   0.00887

  Beta  occ. eigenvalues --  -38.44382 -38.43928 -38.43734 -38.43726 -38.43576
  Beta  occ. eigenvalues --  -38.43398 -38.43378  -2.20126  -2.19766  -2.19623
  Beta  occ. eigenvalues --   -2.19602  -2.19382  -2.19320  -2.19300  -1.13797
  Beta  occ. eigenvalues --   -1.13791  -1.13767  -1.13577  -1.13446  -1.13400
  Beta  occ. eigenvalues --   -1.13391  -1.13349  -1.13284  -1.13250  -1.13246
  Beta  occ. eigenvalues --   -1.13211  -1.13055  -1.13040  -1.13026  -1.13015
  Beta  occ. eigenvalues --   -1.12986  -1.12962  -1.12948  -1.12921  -1.12876
  Beta  occ. eigenvalues --   -0.17893  -0.12728  -0.12139
  Beta virt. eigenvalues --   -0.07240  -0.05708  -0.04926  -0.04466  -0.02718
  Beta virt. eigenvalues --   -0.02361  -0.01731  -0.01505  -0.00963  -0.00267
  Beta virt. eigenvalues --   -0.00110   0.00071   0.00361   0.00866   0.00886

 Mulliken charges and spin densities:
               1          2
     1  Na  -0.140176  -0.012806
     2  Na  -0.207585   0.568348
     3  Na   0.433034   0.079872
     4  Na  -0.478246   0.536894
     5  Na   0.361784  -0.084133
     6  Na   0.136019  -0.059604
     7  Na  -0.104831  -0.028572
 Sum of Mulliken charges =  -0.00000   1.00000

 Dipole moment (field-independent basis, Debye):
    X=              0.0052    Y=              0.1376    Z=              0.0555  Tot=              0.1485
 Quadrupole moment (field-independent basis, Debye-Ang):
   XX=            -57.3752   YY=            -66.2216   ZZ=            -71.6631
   XY=             -1.7705   XZ=              1.9108   YZ=              0.5679

 Normal termination of Gaussian 16 at Tue Dec  5 09:46:41 2023.
