 Gaussian 16, Revision B.01,
 Gaussian 16:  ES64L-G16RevB.01 20-Dec-2017

 -------------------------
 #P B3LYP/6-311+g(d) force
 -------------------------

 -----
 DPGEN
 -----
 Symbolic Z-matrix:
 Charge =  0 Multiplicity = 2

                         Standard orientation:
 ---------------------------------------------------------------------
 Center     Atomic      Atomic             Coordinates (Angstroms)
 Number     Number       Type             X           Y           Z
 ---------------------------------------------------------------------
      1         11           0       -0.319633    3.143002    0.342934
      2         11           0       -4.138457   -0.686799   -1.029938
      3         11           0        3.574340   -1.739573   -0.730126
      4         11           0       -1.267384   -1.951707   -0.763556
      5         11           0       -1.482497    0.124370    1.938555
      6         11           0        1.792956   -0.974572    1.729351
      7         11           0        1.840675    2.085280   -1.487220
 ---------------------------------------------------------------------

 SCF Done:  E(UB3LYP) =  -1136.11865609     A.U. after   21 cycles

 The electronic state is 2-A.
 Alpha  occ. eigenvalues --  -38.44727 -38.44645 -38.44347 -38.44081 -38.43941
 Alpha  occ. eigenvalues --  -38.43900 -38.42993  -2.20547  -2.20452  -2.20204
 Alpha  occ. eigenvalues --   -2.19893  -2.19787  -2.19699  -2.18817  -1.14241
 Alpha  occ. eigenvalues --   -1.14231  -1.14212  -1.14099  -1.14090  -1.14041
 Alpha  occ. eigenvalues --   -1.13887  -1.13842  -1.13815  -1.13577  -1.13553
 Alpha  occ. eigenvalues --   -1.13511  -1.13502  -1.13453  -1.13436  -1.13351
 Alpha  occ. eigenvalues --   -1.13340  -1.13309  -1.12503  -1.12469  -1.12462
 Alpha  occ. eigenvalues --   -0.17120  -0.13459  -0.12037  -0.11358
 Alpha virt. eigenvalues --   -0.06198  -0.05103  -0.04762  -0.03675  -0.03088
 Alpha virt. eigenvalues --   -0.02639  -0.02077  -0.01191  -0.00725  -0.00225
 Alpha virt. eigenvalues --   -0.00026   0.00105   0.00182   0.00448   0.00622

  Beta  occ. eigenvalues --  -38.44721 -38.44605 -38.44274 -38.44039 -38.43908
  Beta  occ. eigenvalues --  -38.43887 -38.42998  -2.20537  -2.20378  -2.20073
  Beta  occ. eigenvalues --   -2.19815  -2.19729  -2.19675  -2.18829  -1.14231
  Beta  occ. eigenvalues --   -1.14212  -1.14191  -1.14048  -1.14038  -1.14003
  Beta  occ. eigenvalues --   -1.13794  -1.13752  -1.13716  -1.13527  -1.13499
  Beta  occ. eigenvalues --   -1.13459  -1.13453  -1.13412  -1.13402  -1.13332
  Beta  occ. eigenvalues --   -1.13318  -1.13276  -1.12504  -1.12480  -1.12457
  Beta  occ. eigenvalues --   -0.16422  -0.13017  -0.11910
  Beta virt. eigenvalues --   -0.07755  -0.05988  -0.04644  -0.04312  -0.03481
  Beta virt. eigenvalues --   -0.02681  -0.02164  -0.01831  -0.00960  -0.00519
  Beta virt. eigenvalues --   -0.00135   0.00112   0.00235   0.00385   0.00571

 Mulliken charges and spin densities:
               1          2
     1  Na  -0.151883  -0.001583
     2  Na   0.592589   0.079657
     3  Na   0.264416   0.131389
     4  Na  -0.736677   0.162819
     5  Na   0.072802   0.402755
     6  Na  -0.030497   0.044814
     7  Na  -0.010749   0.180149
 Sum of Mulliken charges =  -0.00000   1.00000

 Dipole moment (field-independent basis, Debye):
    X=             -1.0128    Y=             -0.5194    Z=             -0.3682  Tot=              1.1963
 Quadrupole moment (field-independent basis, Debye-Ang):
   XX=            -57.2639   YY=            -74.5224   ZZ=            -66.7163
   XY=             -4.3170   XZ=             -2.5836   YZ=              2.4878

 Normal termination of Gaussian 16 at Sun Dec  3 21:55:23 2023.
