 Gaussian 16, Revision B.01,
 Gaussian 16:  ES64L-G16RevB.01 20-Dec-2017

 -------------------------
 #P B3LYP/6-311+g(d) force
 -------------------------

 -----
 DPGEN
 -----
 Symbolic Z-matrix:
 Charge =  0 Multiplicity = 2

                         Standard orientation:
 ---------------------------------------------------------------------
 Center     Atomic      Atomic             Coordinates (Angstroms)
 Number     Number       Type             X           Y           Z
 ---------------------------------------------------------------------
      1         11           0       -3.003547   -0.073741    0.021811
      2         11           0        2.309915   -1.464806    0.229366
      3         11           0       -0.880696   -2.270823    0.052401
      4         11           0       -0.032234    0.262039    1.858946
      5         11           0        0.475375   -0.436271   -1.812749
      6         11           0        2.134230    1.712873    0.048661
      7         11           0       -1.003043    2.270729   -0.398435
 ---------------------------------------------------------------------

 SCF Done:  E(UB3LYP) =  -1136.12736508     A.U. after   19 cycles

 The electronic state is 2-A.
 Alpha  occ. eigenvalues --  -38.43901 -38.43625 -38.43524 -38.43524 -38.43314
 Alpha  occ. eigenvalues --  -38.43046 -38.43017  -2.19811  -2.19692  -2.19564
 Alpha  occ. eigenvalues --   -2.19506  -2.19277  -2.19021  -2.19007  -1.13508
 Alpha  occ. eigenvalues --   -1.13496  -1.13489  -1.13450  -1.13370  -1.13324
 Alpha  occ. eigenvalues --   -1.13264  -1.13226  -1.13206  -1.13143  -1.13127
 Alpha  occ. eigenvalues --   -1.13111  -1.12950  -1.12926  -1.12903  -1.12703
 Alpha  occ. eigenvalues --   -1.12682  -1.12671  -1.12657  -1.12632  -1.12625
 Alpha  occ. eigenvalues --   -0.20082  -0.13532  -0.12649  -0.11478
 Alpha virt. eigenvalues --   -0.05405  -0.04791  -0.04152  -0.03484  -0.03090
 Alpha virt. eigenvalues --   -0.02735  -0.01302  -0.00730  -0.00062   0.00259
 Alpha virt. eigenvalues --    0.00347   0.00382   0.00909   0.01014   0.01040

  Beta  occ. eigenvalues --  -38.43900 -38.43544 -38.43513 -38.43438 -38.43305
  Beta  occ. eigenvalues --  -38.43034 -38.43006  -2.19812  -2.19547  -2.19490
  Beta  occ. eigenvalues --   -2.19408  -2.19266  -2.19006  -2.18989  -1.13511
  Beta  occ. eigenvalues --   -1.13495  -1.13428  -1.13422  -1.13275  -1.13227
  Beta  occ. eigenvalues --   -1.13177  -1.13137  -1.13137  -1.13101  -1.13062
  Beta  occ. eigenvalues --   -1.13044  -1.12938  -1.12902  -1.12875  -1.12692
  Beta  occ. eigenvalues --   -1.12672  -1.12626  -1.12621  -1.12616  -1.12609
  Beta  occ. eigenvalues --   -0.19287  -0.13255  -0.12358
  Beta virt. eigenvalues --   -0.07423  -0.05368  -0.04792  -0.04144  -0.02632
  Beta virt. eigenvalues --   -0.02241  -0.01631  -0.01233  -0.00684   0.00087
  Beta virt. eigenvalues --    0.00228   0.00299   0.00395   0.00963   0.01003

 Mulliken charges and spin densities:
               1          2
     1  Na  -0.120561  -0.079084
     2  Na   0.612080  -0.017131
     3  Na   0.636338   0.007458
     4  Na  -0.950558   0.551044
     5  Na  -0.954318   0.522087
     6  Na   0.391794  -0.012774
     7  Na   0.385224   0.028400
 Sum of Mulliken charges =  -0.00000   1.00000

 Dipole moment (field-independent basis, Debye):
    X=             -0.0495    Y=              0.0645    Z=              0.0650  Tot=              0.1041
 Quadrupole moment (field-independent basis, Debye-Ang):
   XX=            -57.3772   YY=            -67.6274   ZZ=            -70.6216
   XY=             -0.0251   XZ=              0.8321   YZ=             -1.3093

 Normal termination of Gaussian 16 at Fri Dec  8 19:05:00 2023.
