 Gaussian 16, Revision B.01,
 Gaussian 16:  ES64L-G16RevB.01 20-Dec-2017

 -------------------------
 #P B3LYP/6-311+g(d) force
 -------------------------

 -----
 DPGEN
 -----
 Symbolic Z-matrix:
 Charge =  0 Multiplicity = 2

                         Standard orientation:
 ---------------------------------------------------------------------
 Center     Atomic      Atomic             Coordinates (Angstroms)
 Number     Number       Type             X           Y           Z
 ---------------------------------------------------------------------
      1         11           0       -3.113653    0.191093   -0.139400
      2         11           0       -0.256842   -0.337396   -1.672252
      3         11           0       -1.048755   -2.646155    0.130680
      4         11           0        2.144179   -1.929700    0.183035
      5         11           0        3.138577    1.070138   -0.109857
      6         11           0       -0.468326    0.611262    1.897482
      7         11           0       -0.395180    3.040758   -0.289687
 ---------------------------------------------------------------------

 SCF Done:  E(UB3LYP) =  -1136.13378224     A.U. after   19 cycles

 The electronic state is 2-A.
 Alpha  occ. eigenvalues --  -38.44321 -38.44238 -38.43846 -38.43417 -38.43360
 Alpha  occ. eigenvalues --  -38.43315 -38.43195  -2.20177  -2.20034  -2.19659
 Alpha  occ. eigenvalues --   -2.19299  -2.19269  -2.19224  -2.19178  -1.13860
 Alpha  occ. eigenvalues --   -1.13851  -1.13799  -1.13725  -1.13699  -1.13665
 Alpha  occ. eigenvalues --   -1.13353  -1.13327  -1.13284  -1.13070  -1.12985
 Alpha  occ. eigenvalues --   -1.12970  -1.12951  -1.12914  -1.12889  -1.12870
 Alpha  occ. eigenvalues --   -1.12848  -1.12847  -1.12831  -1.12794  -1.12772
 Alpha  occ. eigenvalues --   -0.18679  -0.13102  -0.12585  -0.10503
 Alpha virt. eigenvalues --   -0.06049  -0.04931  -0.04880  -0.03129  -0.02962
 Alpha virt. eigenvalues --   -0.02287  -0.01628  -0.01116  -0.00590  -0.00276
 Alpha virt. eigenvalues --   -0.00000   0.00356   0.00810   0.00858   0.00896

  Beta  occ. eigenvalues --  -38.44311 -38.44239 -38.43840 -38.43412 -38.43351
  Beta  occ. eigenvalues --  -38.43234 -38.43125  -2.20164  -2.20038  -2.19652
  Beta  occ. eigenvalues --   -2.19293  -2.19259  -2.19076  -2.19052  -1.13853
  Beta  occ. eigenvalues --   -1.13808  -1.13796  -1.13730  -1.13689  -1.13670
  Beta  occ. eigenvalues --   -1.13342  -1.13305  -1.13283  -1.13049  -1.12971
  Beta  occ. eigenvalues --   -1.12964  -1.12928  -1.12879  -1.12867  -1.12797
  Beta  occ. eigenvalues --   -1.12750  -1.12743  -1.12740  -1.12702  -1.12691
  Beta  occ. eigenvalues --   -0.17958  -0.12891  -0.12356
  Beta virt. eigenvalues --   -0.06611  -0.06027  -0.04898  -0.04807  -0.02373
  Beta virt. eigenvalues --   -0.02200  -0.01567  -0.01265  -0.01040  -0.00635
  Beta virt. eigenvalues --   -0.00317   0.00153   0.00392   0.00814   0.00878

 Mulliken charges and spin densities:
               1          2
     1  Na   0.409842  -0.068819
     2  Na  -0.247582   0.586885
     3  Na   0.370542   0.063609
     4  Na  -0.036880  -0.032429
     5  Na  -0.060717  -0.075150
     6  Na  -0.401051   0.689865
     7  Na  -0.034155  -0.163962
 Sum of Mulliken charges =  -0.00000   1.00000

 Dipole moment (field-independent basis, Debye):
    X=             -0.2140    Y=              0.3701    Z=              0.0273  Tot=              0.4283
 Quadrupole moment (field-independent basis, Debye-Ang):
   XX=            -56.1382   YY=            -61.8402   ZZ=            -75.4280
   XY=              0.9131   XZ=              0.3555   YZ=             -2.1316

 Normal termination of Gaussian 16 at Thu Dec  7 19:53:16 2023.
