 Gaussian 16, Revision B.01,
 Gaussian 16:  ES64L-G16RevB.01 20-Dec-2017

 -------------------------
 #P B3LYP/6-311+g(d) force
 -------------------------

 -----
 DPGEN
 -----
 Symbolic Z-matrix:
 Charge =  0 Multiplicity = 2

                         Standard orientation:
 ---------------------------------------------------------------------
 Center     Atomic      Atomic             Coordinates (Angstroms)
 Number     Number       Type             X           Y           Z
 ---------------------------------------------------------------------
      1         11           0        3.096372   -0.735805   -0.167088
      2         11           0       -2.607321   -1.119945    0.787741
      3         11           0       -2.404103    1.865698   -0.268120
      4         11           0        0.764312   -0.031318    1.926804
      5         11           0        1.441981    2.388578    0.102372
      6         11           0       -0.115438    0.117521   -1.860916
      7         11           0       -0.175802   -2.484729   -0.520794
 ---------------------------------------------------------------------

 SCF Done:  E(UB3LYP) =  -1136.13045981     A.U. after   19 cycles

 The electronic state is 2-A.
 Alpha  occ. eigenvalues --  -38.44364 -38.43879 -38.43762 -38.43643 -38.43605
 Alpha  occ. eigenvalues --  -38.43420 -38.42929  -2.20209  -2.19821  -2.19660
 Alpha  occ. eigenvalues --   -2.19636  -2.19452  -2.19298  -2.18873  -1.13910
 Alpha  occ. eigenvalues --   -1.13867  -1.13838  -1.13509  -1.13456  -1.13442
 Alpha  occ. eigenvalues --   -1.13371  -1.13355  -1.13333  -1.13303  -1.13287
 Alpha  occ. eigenvalues --   -1.13250  -1.13115  -1.13100  -1.13074  -1.12992
 Alpha  occ. eigenvalues --   -1.12967  -1.12895  -1.12575  -1.12516  -1.12472
 Alpha  occ. eigenvalues --   -0.19072  -0.13438  -0.12126  -0.11334
 Alpha virt. eigenvalues --   -0.05816  -0.04969  -0.04000  -0.03691  -0.02973
 Alpha virt. eigenvalues --   -0.02895  -0.01630  -0.00798  -0.00197   0.00047
 Alpha virt. eigenvalues --    0.00165   0.00369   0.00831   0.00868   0.00913

  Beta  occ. eigenvalues --  -38.44361 -38.43805 -38.43743 -38.43603 -38.43558
  Beta  occ. eigenvalues --  -38.43414 -38.42914  -2.20207  -2.19686  -2.19626
  Beta  occ. eigenvalues --   -2.19481  -2.19451  -2.19290  -2.18850  -1.13898
  Beta  occ. eigenvalues --   -1.13860  -1.13831  -1.13421  -1.13365  -1.13346
  Beta  occ. eigenvalues --   -1.13337  -1.13316  -1.13262  -1.13254  -1.13191
  Beta  occ. eigenvalues --   -1.13157  -1.13093  -1.13083  -1.13066  -1.12978
  Beta  occ. eigenvalues --   -1.12942  -1.12891  -1.12551  -1.12471  -1.12462
  Beta  occ. eigenvalues --   -0.18322  -0.13201  -0.11848
  Beta virt. eigenvalues --   -0.07406  -0.05748  -0.04895  -0.03954  -0.02943
  Beta virt. eigenvalues --   -0.02196  -0.01835  -0.01553  -0.00727  -0.00103
  Beta virt. eigenvalues --    0.00072   0.00162   0.00395   0.00888   0.00933

 Mulliken charges and spin densities:
               1          2
     1  Na   0.161138  -0.094787
     2  Na  -0.027726   0.112604
     3  Na   0.003371  -0.034486
     4  Na  -0.203272   0.571619
     5  Na  -0.032122  -0.123591
     6  Na  -0.107692   0.489389
     7  Na   0.206303   0.079254
 Sum of Mulliken charges =  -0.00000   1.00000

 Dipole moment (field-independent basis, Debye):
    X=              0.4917    Y=              0.1234    Z=              0.1709  Tot=              0.5349
 Quadrupole moment (field-independent basis, Debye-Ang):
   XX=            -55.9618   YY=            -68.1893   ZZ=            -70.9276
   XY=             -0.9134   XZ=             -2.1587   YZ=             -0.2743

 Normal termination of Gaussian 16 at Wed Dec  6 01:13:26 2023.
