 Gaussian 16, Revision B.01,
 Gaussian 16:  ES64L-G16RevB.01 20-Dec-2017

 -------------------------
 #P B3LYP/6-311+g(d) force
 -------------------------

 -----
 DPGEN
 -----
 Symbolic Z-matrix:
 Charge =  0 Multiplicity = 2

                         Standard orientation:
 ---------------------------------------------------------------------
 Center     Atomic      Atomic             Coordinates (Angstroms)
 Number     Number       Type             X           Y           Z
 ---------------------------------------------------------------------
      1         11           0        2.328592    1.952085   -0.278835
      2         11           0        2.748156   -1.415176    0.113047
      3         11           0       -0.501670   -2.845760   -0.215655
      4         11           0       -3.286248   -0.318472   -0.113614
      5         11           0       -0.094428    0.121012   -1.710543
      6         11           0       -0.024230   -0.162706    1.986559
      7         11           0       -1.170172    2.669018    0.219042
 ---------------------------------------------------------------------

 SCF Done:  E(UB3LYP) =  -1136.14070509     A.U. after   18 cycles

 The electronic state is 2-A.
 Alpha  occ. eigenvalues --  -38.44245 -38.43759 -38.43540 -38.43484 -38.43438
 Alpha  occ. eigenvalues --  -38.43364 -38.43207  -2.20040  -2.19597  -2.19388
 Alpha  occ. eigenvalues --   -2.19381  -2.19285  -2.19214  -2.19166  -1.13717
 Alpha  occ. eigenvalues --   -1.13692  -1.13685  -1.13273  -1.13264  -1.13244
 Alpha  occ. eigenvalues --   -1.13079  -1.13062  -1.13042  -1.13027  -1.13019
 Alpha  occ. eigenvalues --   -1.13001  -1.12973  -1.12949  -1.12923  -1.12905
 Alpha  occ. eigenvalues --   -1.12879  -1.12837  -1.12833  -1.12785  -1.12778
 Alpha  occ. eigenvalues --   -0.18598  -0.12896  -0.12488  -0.10694
 Alpha virt. eigenvalues --   -0.05732  -0.05085  -0.04733  -0.03098  -0.02929
 Alpha virt. eigenvalues --   -0.02529  -0.01623  -0.01109  -0.00386  -0.00363
 Alpha virt. eigenvalues --   -0.00010   0.00360   0.00795   0.00879   0.00891

  Beta  occ. eigenvalues --  -38.44243 -38.43755 -38.43534 -38.43431 -38.43393
  Beta  occ. eigenvalues --  -38.43357 -38.43138  -2.20040  -2.19594  -2.19379
  Beta  occ. eigenvalues --   -2.19276  -2.19216  -2.19205  -2.19041  -1.13702
  Beta  occ. eigenvalues --   -1.13693  -1.13684  -1.13270  -1.13248  -1.13238
  Beta  occ. eigenvalues --   -1.13064  -1.13025  -1.13023  -1.12975  -1.12948
  Beta  occ. eigenvalues --   -1.12934  -1.12906  -1.12903  -1.12889  -1.12873
  Beta  occ. eigenvalues --   -1.12847  -1.12828  -1.12756  -1.12702  -1.12687
  Beta  occ. eigenvalues --   -0.17863  -0.12675  -0.12237
  Beta virt. eigenvalues --   -0.06788  -0.05712  -0.05089  -0.04675  -0.02334
  Beta virt. eigenvalues --   -0.02138  -0.01544  -0.01467  -0.01034  -0.00438
  Beta virt. eigenvalues --   -0.00413   0.00122   0.00377   0.00838   0.00876

 Mulliken charges and spin densities:
               1          2
     1  Na   0.151264  -0.045047
     2  Na   0.146657  -0.043641
     3  Na   0.088503  -0.116672
     4  Na   0.065801  -0.112052
     5  Na  -0.177410   0.609069
     6  Na  -0.368243   0.771368
     7  Na   0.093427  -0.063025
 Sum of Mulliken charges =  -0.00000   1.00000

 Dipole moment (field-independent basis, Debye):
    X=             -0.2227    Y=             -0.0504    Z=              0.0858  Tot=              0.2439
 Quadrupole moment (field-independent basis, Debye-Ang):
   XX=            -55.4790   YY=            -62.7415   ZZ=            -74.6601
   XY=             -0.0024   XZ=             -0.0920   YZ=              0.5264

 Normal termination of Gaussian 16 at Thu Dec  7 09:56:08 2023.
