 Gaussian 16, Revision B.01,
 Gaussian 16:  ES64L-G16RevB.01 20-Dec-2017

 -------------------------
 #P B3LYP/6-311+g(d) force
 -------------------------

 -----
 DPGEN
 -----
 Symbolic Z-matrix:
 Charge =  0 Multiplicity = 2

                         Standard orientation:
 ---------------------------------------------------------------------
 Center     Atomic      Atomic             Coordinates (Angstroms)
 Number     Number       Type             X           Y           Z
 ---------------------------------------------------------------------
      1         11           0        0.946927   -1.080622    1.577968
      2         11           0       -2.132896    0.131485    2.470428
      3         11           0       -3.551339    0.808902   -1.195221
      4         11           0       -0.894689   -1.977993   -0.871788
      5         11           0        2.485752   -1.860651   -1.046662
      6         11           0        0.145425    1.718876   -1.455847
      7         11           0        3.000821    2.260001    0.521122
 ---------------------------------------------------------------------

 SCF Done:  E(UB3LYP) =  -1136.12298592     A.U. after   22 cycles

 The electronic state is 2-A.
 Alpha  occ. eigenvalues --  -38.45022 -38.44322 -38.44295 -38.43846 -38.43751
 Alpha  occ. eigenvalues --  -38.43709 -38.43281  -2.20819  -2.20163  -2.20061
 Alpha  occ. eigenvalues --   -2.19714  -2.19665  -2.19488  -2.19052  -1.14486
 Alpha  occ. eigenvalues --   -1.14460  -1.14420  -1.13860  -1.13831  -1.13770
 Alpha  occ. eigenvalues --   -1.13732  -1.13717  -1.13693  -1.13460  -1.13397
 Alpha  occ. eigenvalues --   -1.13336  -1.13318  -1.13296  -1.13266  -1.13183
 Alpha  occ. eigenvalues --   -1.13178  -1.13092  -1.12722  -1.12709  -1.12686
 Alpha  occ. eigenvalues --   -0.17674  -0.13008  -0.11947  -0.11403
 Alpha virt. eigenvalues --   -0.05926  -0.05290  -0.04947  -0.03401  -0.02945
 Alpha virt. eigenvalues --   -0.02739  -0.01860  -0.01191  -0.00974   0.00008
 Alpha virt. eigenvalues --    0.00104   0.00198   0.00311   0.00434   0.00554

  Beta  occ. eigenvalues --  -38.44937 -38.44303 -38.44278 -38.43820 -38.43719
  Beta  occ. eigenvalues --  -38.43701 -38.43271  -2.20663  -2.20129  -2.20031
  Beta  occ. eigenvalues --   -2.19668  -2.19609  -2.19475  -2.19032  -1.14371
  Beta  occ. eigenvalues --   -1.14354  -1.14312  -1.13840  -1.13800  -1.13745
  Beta  occ. eigenvalues --   -1.13709  -1.13691  -1.13676  -1.13432  -1.13352
  Beta  occ. eigenvalues --   -1.13298  -1.13272  -1.13245  -1.13224  -1.13172
  Beta  occ. eigenvalues --   -1.13167  -1.13076  -1.12706  -1.12696  -1.12675
  Beta  occ. eigenvalues --   -0.16983  -0.12723  -0.11293
  Beta virt. eigenvalues --   -0.07976  -0.05813  -0.04864  -0.04484  -0.03150
  Beta virt. eigenvalues --   -0.02442  -0.02166  -0.01749  -0.00901  -0.00644
  Beta virt. eigenvalues --    0.00127   0.00215   0.00280   0.00374   0.00580

 Mulliken charges and spin densities:
               1          2
     1  Na  -0.028713   0.294917
     2  Na  -0.022538   0.224376
     3  Na   0.335751   0.017931
     4  Na  -0.349693   0.309001
     5  Na   0.599849   0.122493
     6  Na  -0.605494   0.052811
     7  Na   0.070838  -0.021529
 Sum of Mulliken charges =  -0.00000   1.00000

 Dipole moment (field-independent basis, Debye):
    X=             -0.5196    Y=             -0.5600    Z=              0.0520  Tot=              0.7657
 Quadrupole moment (field-independent basis, Debye-Ang):
   XX=            -55.4621   YY=            -75.4681   ZZ=            -65.1726
   XY=             -3.7970   XZ=             -0.4881   YZ=              4.2206

 Normal termination of Gaussian 16 at Tue Nov 28 19:00:55 2023.
