 Gaussian 16, Revision B.01,
 Gaussian 16:  ES64L-G16RevB.01 20-Dec-2017

 -------------------------
 #P B3LYP/6-311+g(d) force
 -------------------------

 -----
 DPGEN
 -----
 Symbolic Z-matrix:
 Charge =  0 Multiplicity = 2

                         Standard orientation:
 ---------------------------------------------------------------------
 Center     Atomic      Atomic             Coordinates (Angstroms)
 Number     Number       Type             X           Y           Z
 ---------------------------------------------------------------------
      1         11           0        1.952123    1.153703   -1.454539
      2         11           0        0.089868   -2.176102   -1.059375
      3         11           0        3.257023   -0.825600    0.677299
      4         11           0       -3.055843   -1.107746    0.234527
      5         11           0       -0.069755   -0.585898    1.684761
      6         11           0       -0.320943    2.459772    0.920465
      7         11           0       -1.852471    1.081869   -1.003137
 ---------------------------------------------------------------------

 SCF Done:  E(UB3LYP) =  -1136.12255512     A.U. after   20 cycles

 The electronic state is 2-A.
 Alpha  occ. eigenvalues --  -38.44505 -38.44371 -38.43791 -38.43735 -38.43706
 Alpha  occ. eigenvalues --  -38.43375 -38.42997  -2.20329  -2.20278  -2.19724
 Alpha  occ. eigenvalues --   -2.19654  -2.19592  -2.19370  -2.18938  -1.14114
 Alpha  occ. eigenvalues --   -1.14018  -1.13990  -1.13958  -1.13918  -1.13871
 Alpha  occ. eigenvalues --   -1.13477  -1.13348  -1.13333  -1.13323  -1.13321
 Alpha  occ. eigenvalues --   -1.13309  -1.13273  -1.13261  -1.13180  -1.13051
 Alpha  occ. eigenvalues --   -1.13021  -1.12978  -1.12610  -1.12581  -1.12525
 Alpha  occ. eigenvalues --   -0.19060  -0.13653  -0.11985  -0.11138
 Alpha virt. eigenvalues --   -0.06285  -0.04881  -0.03900  -0.03697  -0.03028
 Alpha virt. eigenvalues --   -0.02515  -0.01938  -0.00784  -0.00347   0.00149
 Alpha virt. eigenvalues --    0.00209   0.00361   0.00579   0.00871   0.00895

  Beta  occ. eigenvalues --  -38.44500 -38.44367 -38.43753 -38.43714 -38.43684
  Beta  occ. eigenvalues --  -38.43297 -38.42977  -2.20323  -2.20274  -2.19687
  Beta  occ. eigenvalues --   -2.19584  -2.19555  -2.19229  -2.18905  -1.14109
  Beta  occ. eigenvalues --   -1.14009  -1.13971  -1.13956  -1.13901  -1.13865
  Beta  occ. eigenvalues --   -1.13446  -1.13313  -1.13303  -1.13293  -1.13266
  Beta  occ. eigenvalues --   -1.13264  -1.13225  -1.13214  -1.13157  -1.12959
  Beta  occ. eigenvalues --   -1.12913  -1.12878  -1.12591  -1.12541  -1.12492
  Beta  occ. eigenvalues --   -0.18316  -0.13430  -0.11777
  Beta virt. eigenvalues --   -0.07220  -0.06178  -0.04677  -0.03805  -0.03106
  Beta virt. eigenvalues --   -0.02354  -0.01870  -0.01523  -0.00663  -0.00118
  Beta virt. eigenvalues --    0.00167   0.00252   0.00396   0.00701   0.00884

 Mulliken charges and spin densities:
               1          2
     1  Na  -0.157118   0.200054
     2  Na  -0.595941   0.263048
     3  Na   0.170772  -0.075478
     4  Na   0.561509  -0.098005
     5  Na   0.069828   0.371102
     6  Na  -0.035235  -0.020447
     7  Na  -0.013815   0.359726
 Sum of Mulliken charges =  -0.00000   1.00000

 Dipole moment (field-independent basis, Debye):
    X=              0.4058    Y=             -0.5057    Z=             -0.0367  Tot=              0.6494
 Quadrupole moment (field-independent basis, Debye-Ang):
   XX=            -53.6201   YY=            -71.4273   ZZ=            -69.5007
   XY=              0.7358   XZ=              0.3373   YZ=              0.3680

 Normal termination of Gaussian 16 at Wed Dec  6 00:35:51 2023.
