 Gaussian 16, Revision B.01,
 Gaussian 16:  ES64L-G16RevB.01 20-Dec-2017

 -------------------------
 #P B3LYP/6-311+g(d) force
 -------------------------

 -----
 DPGEN
 -----
 Symbolic Z-matrix:
 Charge =  0 Multiplicity = 2

                         Standard orientation:
 ---------------------------------------------------------------------
 Center     Atomic      Atomic             Coordinates (Angstroms)
 Number     Number       Type             X           Y           Z
 ---------------------------------------------------------------------
      1         11           0       -3.199400    0.462686    0.007847
      2         11           0        0.142002   -0.264192    2.309582
      3         11           0       -0.660672    2.543492   -0.041577
      4         11           0        2.826906    1.693745   -0.202899
      5         11           0       -0.173162   -0.062623   -1.645359
      6         11           0        2.471111   -1.999196   -0.165863
      7         11           0       -1.406784   -2.373911   -0.261730
 ---------------------------------------------------------------------

 SCF Done:  E(UB3LYP) =  -1136.13318394     A.U. after   19 cycles

 The electronic state is 2-A.
 Alpha  occ. eigenvalues --  -38.44131 -38.44085 -38.44054 -38.43999 -38.43482
 Alpha  occ. eigenvalues --  -38.43346 -38.42967  -2.19986  -2.19924  -2.19841
 Alpha  occ. eigenvalues --   -2.19791  -2.19486  -2.19238  -2.18860  -1.13655
 Alpha  occ. eigenvalues --   -1.13646  -1.13640  -1.13576  -1.13550  -1.13542
 Alpha  occ. eigenvalues --   -1.13517  -1.13496  -1.13491  -1.13470  -1.13447
 Alpha  occ. eigenvalues --   -1.13426  -1.13253  -1.13178  -1.13080  -1.12900
 Alpha  occ. eigenvalues --   -1.12885  -1.12837  -1.12564  -1.12515  -1.12473
 Alpha  occ. eigenvalues --   -0.18578  -0.13054  -0.12172  -0.11015
 Alpha virt. eigenvalues --   -0.05775  -0.05487  -0.04127  -0.03313  -0.02924
 Alpha virt. eigenvalues --   -0.02824  -0.01710  -0.01183  -0.00309  -0.00141
 Alpha virt. eigenvalues --   -0.00073   0.00325   0.00708   0.00853   0.00922

  Beta  occ. eigenvalues --  -38.44130 -38.44054 -38.43999 -38.43976 -38.43422
  Beta  occ. eigenvalues --  -38.43336 -38.42960  -2.19985  -2.19843  -2.19792
  Beta  occ. eigenvalues --   -2.19722  -2.19378  -2.19224  -2.18851  -1.13657
  Beta  occ. eigenvalues --   -1.13646  -1.13620  -1.13504  -1.13499  -1.13495
  Beta  occ. eigenvalues --   -1.13456  -1.13452  -1.13439  -1.13430  -1.13408
  Beta  occ. eigenvalues --   -1.13395  -1.13189  -1.13102  -1.13003  -1.12876
  Beta  occ. eigenvalues --   -1.12849  -1.12830  -1.12554  -1.12484  -1.12472
  Beta  occ. eigenvalues --   -0.17844  -0.12871  -0.11939
  Beta virt. eigenvalues --   -0.07010  -0.05696  -0.05510  -0.04103  -0.02527
  Beta virt. eigenvalues --   -0.02069  -0.01811  -0.01600  -0.01137  -0.00370
  Beta virt. eigenvalues --   -0.00174   0.00099   0.00357   0.00786   0.00846

 Mulliken charges and spin densities:
               1          2
     1  Na   0.245082   0.055206
     2  Na  -0.710863   0.748610
     3  Na   0.186855   0.033083
     4  Na   0.039368  -0.047172
     5  Na  -0.294700   0.264830
     6  Na   0.129212  -0.066723
     7  Na   0.405046   0.012166
 Sum of Mulliken charges =  -0.00000   1.00000

 Dipole moment (field-independent basis, Debye):
    X=              0.1697    Y=             -0.1233    Z=              0.2502  Tot=              0.3265
 Quadrupole moment (field-independent basis, Debye-Ang):
   XX=            -53.9249   YY=            -66.8469   ZZ=            -73.1533
   XY=             -0.2439   XZ=             -0.7211   YZ=              0.3119

 Normal termination of Gaussian 16 at Thu Dec  7 06:02:38 2023.
