 Gaussian 16, Revision B.01,
 Gaussian 16:  ES64L-G16RevB.01 20-Dec-2017

 -------------------------
 #P B3LYP/6-311+g(d) force
 -------------------------

 -----
 DPGEN
 -----
 Symbolic Z-matrix:
 Charge =  0 Multiplicity = 2

                         Standard orientation:
 ---------------------------------------------------------------------
 Center     Atomic      Atomic             Coordinates (Angstroms)
 Number     Number       Type             X           Y           Z
 ---------------------------------------------------------------------
      1         11           0        3.444414   -1.610701    0.585963
      2         11           0        0.161662   -3.346501   -0.452322
      3         11           0        3.073278    2.066895   -0.459722
      4         11           0       -0.246063    3.251533    0.602123
      5         11           0        0.038255   -0.204989   -0.386566
      6         11           0       -3.247583   -1.735798    0.552377
      7         11           0       -3.223963    1.579562   -0.441853
 ---------------------------------------------------------------------

 SCF Done:  E(UB3LYP) =  -1136.12388712     A.U. after   22 cycles

 The electronic state is 2-A.
 Alpha  occ. eigenvalues --  -38.44522 -38.44495 -38.44235 -38.44188 -38.43730
 Alpha  occ. eigenvalues --  -38.43602 -38.43398  -2.20293  -2.20267  -2.20037
 Alpha  occ. eigenvalues --   -2.19999  -2.19623  -2.19421  -2.19241  -1.13985
 Alpha  occ. eigenvalues --   -1.13954  -1.13950  -1.13924  -1.13908  -1.13890
 Alpha  occ. eigenvalues --   -1.13715  -1.13706  -1.13683  -1.13666  -1.13650
 Alpha  occ. eigenvalues --   -1.13617  -1.13354  -1.13291  -1.13248  -1.13088
 Alpha  occ. eigenvalues --   -1.13063  -1.13053  -1.12906  -1.12881  -1.12856
 Alpha  occ. eigenvalues --   -0.16946  -0.13517  -0.13146  -0.09466
 Alpha virt. eigenvalues --   -0.06867  -0.05607  -0.04826  -0.02761  -0.02632
 Alpha virt. eigenvalues --   -0.02245  -0.02212  -0.01779  -0.01759  -0.00264
 Alpha virt. eigenvalues --    0.00271   0.00337   0.00362   0.00553   0.00586

  Beta  occ. eigenvalues --  -38.44508 -38.44457 -38.44195 -38.44167 -38.43727
  Beta  occ. eigenvalues --  -38.43567 -38.43354  -2.20269  -2.20199  -2.19967
  Beta  occ. eigenvalues --   -2.19964  -2.19615  -2.19355  -2.19159  -1.13972
  Beta  occ. eigenvalues --   -1.13940  -1.13906  -1.13879  -1.13866  -1.13821
  Beta  occ. eigenvalues --   -1.13671  -1.13669  -1.13660  -1.13627  -1.13593
  Beta  occ. eigenvalues --   -1.13556  -1.13347  -1.13277  -1.13259  -1.13042
  Beta  occ. eigenvalues --   -1.13019  -1.13013  -1.12849  -1.12828  -1.12805
  Beta  occ. eigenvalues --   -0.16652  -0.12779  -0.12658
  Beta virt. eigenvalues --   -0.06902  -0.06234  -0.05388  -0.04600  -0.02302
  Beta virt. eigenvalues --   -0.02200  -0.02016  -0.01894  -0.01576  -0.01498
  Beta virt. eigenvalues --   -0.00158   0.00375   0.00478   0.00529   0.00593

 Mulliken charges and spin densities:
               1          2
     1  Na   0.677934   0.239130
     2  Na   0.281802   0.116297
     3  Na   0.016969   0.191240
     4  Na   0.818454   0.114917
     5  Na  -2.395894  -0.113814
     6  Na   0.712187   0.230255
     7  Na  -0.111451   0.221975
 Sum of Mulliken charges =  -0.00000   1.00000

 Dipole moment (field-independent basis, Debye):
    X=              0.0318    Y=             -0.0027    Z=              0.1615  Tot=              0.1646
 Quadrupole moment (field-independent basis, Debye-Ang):
   XX=            -71.3477   YY=            -56.8667   ZZ=            -69.9355
   XY=             -0.6530   XZ=             -0.0028   YZ=             -2.4629

 Normal termination of Gaussian 16 at Fri Dec  8 17:39:45 2023.
