 Gaussian 16, Revision B.01,
 Gaussian 16:  ES64L-G16RevB.01 20-Dec-2017

 -------------------------
 #P B3LYP/6-311+g(d) force
 -------------------------

 -----
 DPGEN
 -----
 Symbolic Z-matrix:
 Charge =  0 Multiplicity = 2

                         Standard orientation:
 ---------------------------------------------------------------------
 Center     Atomic      Atomic             Coordinates (Angstroms)
 Number     Number       Type             X           Y           Z
 ---------------------------------------------------------------------
      1         11           0       -2.910826    1.220607   -0.047812
      2         11           0        0.263105    2.892931    0.057738
      3         11           0        3.271118    0.293783   -0.239649
      4         11           0        0.081155    0.041767   -1.552275
      5         11           0        1.502324   -2.408105    0.104494
      6         11           0        0.298410    0.118398    1.712444
      7         11           0       -2.505285   -2.159381   -0.034941
 ---------------------------------------------------------------------

 SCF Done:  E(UB3LYP) =  -1136.13480320     A.U. after   21 cycles

 The electronic state is 2-A.
 Alpha  occ. eigenvalues --  -38.44504 -38.44226 -38.43819 -38.43495 -38.43094
 Alpha  occ. eigenvalues --  -38.43030 -38.42918  -2.20353  -2.20054  -2.19614
 Alpha  occ. eigenvalues --   -2.19392  -2.19030  -2.18968  -2.18903  -1.14022
 Alpha  occ. eigenvalues --   -1.14015  -1.13993  -1.13731  -1.13720  -1.13689
 Alpha  occ. eigenvalues --   -1.13286  -1.13274  -1.13258  -1.13103  -1.13062
 Alpha  occ. eigenvalues --   -1.13009  -1.12778  -1.12703  -1.12670  -1.12635
 Alpha  occ. eigenvalues --   -1.12602  -1.12586  -1.12576  -1.12508  -1.12500
 Alpha  occ. eigenvalues --   -0.18833  -0.13413  -0.12291  -0.10205
 Alpha virt. eigenvalues --   -0.06052  -0.05359  -0.04579  -0.03103  -0.02513
 Alpha virt. eigenvalues --   -0.02009  -0.01928  -0.01210  -0.00481  -0.00447
 Alpha virt. eigenvalues --    0.00022   0.00322   0.00746   0.00848   0.00855

  Beta  occ. eigenvalues --  -38.44494 -38.44224 -38.43820 -38.43485 -38.43086
  Beta  occ. eigenvalues --  -38.42967 -38.42833  -2.20338  -2.20052  -2.19619
  Beta  occ. eigenvalues --   -2.19377  -2.18959  -2.18915  -2.18748  -1.14015
  Beta  occ. eigenvalues --   -1.13987  -1.13975  -1.13722  -1.13712  -1.13690
  Beta  occ. eigenvalues --   -1.13283  -1.13274  -1.13260  -1.13095  -1.13017
  Beta  occ. eigenvalues --   -1.13001  -1.12718  -1.12647  -1.12621  -1.12586
  Beta  occ. eigenvalues --   -1.12554  -1.12540  -1.12473  -1.12401  -1.12394
  Beta  occ. eigenvalues --   -0.18120  -0.13174  -0.12041
  Beta virt. eigenvalues --   -0.06325  -0.05979  -0.05362  -0.04577  -0.02335
  Beta virt. eigenvalues --   -0.01852  -0.01779  -0.01172  -0.00966  -0.00546
  Beta virt. eigenvalues --   -0.00465   0.00169   0.00358   0.00790   0.00844

 Mulliken charges and spin densities:
               1          2
     1  Na   0.082665  -0.075266
     2  Na   0.123898  -0.122241
     3  Na   0.328104   0.001216
     4  Na  -0.370150   0.634082
     5  Na   0.140587  -0.049171
     6  Na  -0.267229   0.707070
     7  Na  -0.037875  -0.095691
 Sum of Mulliken charges =  -0.00000   1.00000

 Dipole moment (field-independent basis, Debye):
    X=              0.1038    Y=              0.0626    Z=              0.0169  Tot=              0.1224
 Quadrupole moment (field-independent basis, Debye-Ang):
   XX=            -51.5732   YY=            -62.0872   ZZ=            -77.4137
   XY=              0.2267   XZ=             -0.5794   YZ=             -0.2104

 Normal termination of Gaussian 16 at Tue Nov 28 19:34:30 2023.
