 Gaussian 16, Revision B.01,
 Gaussian 16:  ES64L-G16RevB.01 20-Dec-2017

 -------------------------
 #P B3LYP/6-311+g(d) force
 -------------------------

 -----
 DPGEN
 -----
 Symbolic Z-matrix:
 Charge =  0 Multiplicity = 2

                         Standard orientation:
 ---------------------------------------------------------------------
 Center     Atomic      Atomic             Coordinates (Angstroms)
 Number     Number       Type             X           Y           Z
 ---------------------------------------------------------------------
      1         11           0        1.784535    2.743002    0.238948
      2         11           0       -3.578456   -0.271853   -0.857390
      3         11           0        2.624795   -0.619512   -1.622598
      4         11           0       -0.625800   -2.415296    0.495303
      5         11           0       -1.339982    1.138119    2.138626
      6         11           0        2.149738   -1.520309    1.119081
      7         11           0       -1.014830    0.945849   -1.511970
 ---------------------------------------------------------------------

 SCF Done:  E(UB3LYP) =  -1136.12068080     A.U. after   20 cycles

 The electronic state is 2-A.
 Alpha  occ. eigenvalues --  -38.44786 -38.44630 -38.44361 -38.43786 -38.43742
 Alpha  occ. eigenvalues --  -38.43544 -38.43495  -2.20581  -2.20474  -2.20212
 Alpha  occ. eigenvalues --   -2.19679  -2.19648  -2.19388  -2.19255  -1.14240
 Alpha  occ. eigenvalues --   -1.14219  -1.14215  -1.14196  -1.14122  -1.14064
 Alpha  occ. eigenvalues --   -1.13980  -1.13840  -1.13820  -1.13396  -1.13341
 Alpha  occ. eigenvalues --   -1.13330  -1.13318  -1.13299  -1.13253  -1.13059
 Alpha  occ. eigenvalues --   -1.13046  -1.12985  -1.12936  -1.12913  -1.12902
 Alpha  occ. eigenvalues --   -0.17832  -0.13540  -0.11678  -0.11364
 Alpha virt. eigenvalues --   -0.05788  -0.05387  -0.04742  -0.03576  -0.03007
 Alpha virt. eigenvalues --   -0.02945  -0.01708  -0.00836  -0.00769  -0.00100
 Alpha virt. eigenvalues --    0.00111   0.00285   0.00384   0.00557   0.00648

  Beta  occ. eigenvalues --  -38.44703 -38.44596 -38.44336 -38.43751 -38.43737
  Beta  occ. eigenvalues --  -38.43532 -38.43499  -2.20427  -2.20410  -2.20168
  Beta  occ. eigenvalues --   -2.19640  -2.19618  -2.19367  -2.19264  -1.14175
  Beta  occ. eigenvalues --   -1.14133  -1.14112  -1.14086  -1.14076  -1.14022
  Beta  occ. eigenvalues --   -1.13940  -1.13809  -1.13789  -1.13386  -1.13302
  Beta  occ. eigenvalues --   -1.13299  -1.13284  -1.13247  -1.13243  -1.13044
  Beta  occ. eigenvalues --   -1.13013  -1.12978  -1.12940  -1.12920  -1.12898
  Beta  occ. eigenvalues --   -0.17180  -0.13249  -0.11481
  Beta virt. eigenvalues --   -0.07648  -0.05598  -0.05005  -0.04345  -0.03413
  Beta virt. eigenvalues --   -0.02407  -0.02111  -0.01610  -0.00752  -0.00350
  Beta virt. eigenvalues --    0.00014   0.00164   0.00352   0.00493   0.00726

 Mulliken charges and spin densities:
               1          2
     1  Na  -0.035025  -0.015569
     2  Na   0.717685  -0.025440
     3  Na   0.201858   0.039267
     4  Na  -0.263635   0.052397
     5  Na  -0.276613   0.444736
     6  Na   0.207750   0.134240
     7  Na  -0.552019   0.370369
 Sum of Mulliken charges =  -0.00000   1.00000

 Dipole moment (field-independent basis, Debye):
    X=             -0.4242    Y=             -0.0282    Z=              0.0626  Tot=              0.4297
 Quadrupole moment (field-independent basis, Debye-Ang):
   XX=            -56.5187   YY=            -74.0286   ZZ=            -66.5333
   XY=              1.5887   XZ=             -1.5157   YZ=              2.6569

 Normal termination of Gaussian 16 at Thu Dec  7 05:03:06 2023.
