 Gaussian 16, Revision B.01,
 Gaussian 16:  ES64L-G16RevB.01 20-Dec-2017

 -------------------------
 #P B3LYP/6-311+g(d) force
 -------------------------

 -----
 DPGEN
 -----
 Symbolic Z-matrix:
 Charge =  0 Multiplicity = 2

                         Standard orientation:
 ---------------------------------------------------------------------
 Center     Atomic      Atomic             Coordinates (Angstroms)
 Number     Number       Type             X           Y           Z
 ---------------------------------------------------------------------
      1         11           0        0.766548    2.435177    0.733753
      2         11           0        0.534219   -0.615326   -1.371758
      3         11           0        1.754462   -1.236846    1.991132
      4         11           0       -3.130974   -0.530582   -1.374026
      5         11           0       -1.094248   -2.949748    0.719343
      6         11           0       -2.339908    2.466112    0.749842
      7         11           0        3.509901    0.431214   -1.448286
 ---------------------------------------------------------------------

 SCF Done:  E(UB3LYP) =  -1136.12598903     A.U. after   20 cycles

 The electronic state is 2-A.
 Alpha  occ. eigenvalues --  -38.44605 -38.44421 -38.44264 -38.43856 -38.43826
 Alpha  occ. eigenvalues --  -38.43593 -38.43454  -2.20413  -2.20242  -2.20047
 Alpha  occ. eigenvalues --   -2.19725  -2.19648  -2.19423  -2.19257  -1.14079
 Alpha  occ. eigenvalues --   -1.14055  -1.14027  -1.13936  -1.13879  -1.13851
 Alpha  occ. eigenvalues --   -1.13728  -1.13693  -1.13668  -1.13415  -1.13392
 Alpha  occ. eigenvalues --   -1.13352  -1.13327  -1.13308  -1.13277  -1.13142
 Alpha  occ. eigenvalues --   -1.13092  -1.13065  -1.12918  -1.12896  -1.12886
 Alpha  occ. eigenvalues --   -0.17377  -0.13033  -0.12350  -0.11291
 Alpha virt. eigenvalues --   -0.05771  -0.05385  -0.04991  -0.03394  -0.03110
 Alpha virt. eigenvalues --   -0.02553  -0.01856  -0.00953  -0.00859  -0.00253
 Alpha virt. eigenvalues --   -0.00004   0.00177   0.00274   0.00341   0.00809

  Beta  occ. eigenvalues --  -38.44534 -38.44370 -38.44234 -38.43852 -38.43794
  Beta  occ. eigenvalues --  -38.43573 -38.43452  -2.20282  -2.20148  -2.19992
  Beta  occ. eigenvalues --   -2.19668  -2.19645  -2.19388  -2.19256  -1.13987
  Beta  occ. eigenvalues --   -1.13968  -1.13933  -1.13862  -1.13817  -1.13792
  Beta  occ. eigenvalues --   -1.13686  -1.13658  -1.13635  -1.13369  -1.13357
  Beta  occ. eigenvalues --   -1.13327  -1.13320  -1.13285  -1.13254  -1.13121
  Beta  occ. eigenvalues --   -1.13060  -1.13041  -1.12918  -1.12894  -1.12875
  Beta  occ. eigenvalues --   -0.16788  -0.12662  -0.11958
  Beta virt. eigenvalues --   -0.07769  -0.05521  -0.04958  -0.04790  -0.03110
  Beta virt. eigenvalues --   -0.02602  -0.01970  -0.01552  -0.00832  -0.00539
  Beta virt. eigenvalues --   -0.00091   0.00045   0.00313   0.00369   0.00500

 Mulliken charges and spin densities:
               1          2
     1  Na  -0.118672   0.159121
     2  Na  -0.919870   0.230957
     3  Na   0.075159   0.347264
     4  Na   0.434224   0.083971
     5  Na   0.070461   0.072432
     6  Na  -0.156335  -0.035222
     7  Na   0.615034   0.141477
 Sum of Mulliken charges =  -0.00000   1.00000

 Dipole moment (field-independent basis, Debye):
    X=              0.5101    Y=             -0.4977    Z=              0.1707  Tot=              0.7328
 Quadrupole moment (field-independent basis, Debye-Ang):
   XX=            -54.9848   YY=            -71.6012   ZZ=            -68.8538
   XY=              2.6268   XZ=              1.0013   YZ=             -1.4379

 Normal termination of Gaussian 16 at Sun Dec  3 15:30:42 2023.
