 Gaussian 16, Revision B.01,
 Gaussian 16:  ES64L-G16RevB.01 20-Dec-2017

 -------------------------
 #P B3LYP/6-311+g(d) force
 -------------------------

 -----
 DPGEN
 -----
 Symbolic Z-matrix:
 Charge =  0 Multiplicity = 2

                         Standard orientation:
 ---------------------------------------------------------------------
 Center     Atomic      Atomic             Coordinates (Angstroms)
 Number     Number       Type             X           Y           Z
 ---------------------------------------------------------------------
      1         11           0        0.350836   -1.228885    0.358591
      2         11           0       -0.412284    2.345758   -0.979428
      3         11           0        3.103720   -1.535942   -0.299655
      4         11           0        1.977978    1.161788    0.330694
      5         11           0       -0.919700    1.295683    1.820419
      6         11           0       -1.519149   -0.191007   -1.653241
      7         11           0       -2.581401   -1.847396    0.422620
 ---------------------------------------------------------------------

 SCF Done:  E(UB3LYP) =  -1136.10466010     A.U. after   20 cycles

 The electronic state is 2-A.
 Alpha  occ. eigenvalues --  -38.44119 -38.43898 -38.43863 -38.43799 -38.43589
 Alpha  occ. eigenvalues --  -38.43431 -38.43133  -2.20187  -2.19844  -2.19831
 Alpha  occ. eigenvalues --   -2.19717  -2.19653  -2.19459  -2.19340  -1.13986
 Alpha  occ. eigenvalues --   -1.13921  -1.13806  -1.13608  -1.13585  -1.13517
 Alpha  occ. eigenvalues --   -1.13502  -1.13453  -1.13451  -1.13426  -1.13422
 Alpha  occ. eigenvalues --   -1.13401  -1.13347  -1.13312  -1.13206  -1.13105
 Alpha  occ. eigenvalues --   -1.13057  -1.13025  -1.12993  -1.12957  -1.12896
 Alpha  occ. eigenvalues --   -0.20047  -0.13668  -0.12641  -0.11659
 Alpha virt. eigenvalues --   -0.05481  -0.04992  -0.03870  -0.03515  -0.03108
 Alpha virt. eigenvalues --   -0.02698  -0.01368  -0.00893  -0.00266   0.00296
 Alpha virt. eigenvalues --    0.00369   0.00648   0.00851   0.00970   0.01001

  Beta  occ. eigenvalues --  -38.44052 -38.43891 -38.43800 -38.43788 -38.43578
  Beta  occ. eigenvalues --  -38.43396 -38.43108  -2.20068  -2.19822  -2.19719
  Beta  occ. eigenvalues --   -2.19707  -2.19638  -2.19400  -2.19302  -1.13903
  Beta  occ. eigenvalues --   -1.13846  -1.13727  -1.13599  -1.13517  -1.13494
  Beta  occ. eigenvalues --   -1.13436  -1.13421  -1.13411  -1.13410  -1.13387
  Beta  occ. eigenvalues --   -1.13335  -1.13324  -1.13296  -1.13180  -1.13056
  Beta  occ. eigenvalues --   -1.13013  -1.12968  -1.12959  -1.12900  -1.12867
  Beta  occ. eigenvalues --   -0.19247  -0.13488  -0.12436
  Beta virt. eigenvalues --   -0.07445  -0.05311  -0.04880  -0.03788  -0.02836
  Beta virt. eigenvalues --   -0.02438  -0.01741  -0.01292  -0.00786   0.00011
  Beta virt. eigenvalues --    0.00340   0.00375   0.00709   0.00881   0.00997

 Mulliken charges and spin densities:
               1          2
     1  Na  -0.714752   0.628032
     2  Na   0.448666   0.125705
     3  Na   0.609192  -0.110264
     4  Na   0.348331   0.377090
     5  Na  -0.660605   0.082141
     6  Na  -0.637896  -0.025664
     7  Na   0.607064  -0.077040
 Sum of Mulliken charges =  -0.00000   1.00000

 Dipole moment (field-independent basis, Debye):
    X=             -0.2856    Y=              0.0787    Z=              0.2152  Tot=              0.3662
 Quadrupole moment (field-independent basis, Debye-Ang):
   XX=            -58.5731   YY=            -67.3347   ZZ=            -68.8913
   XY=              0.7216   XZ=             -2.7429   YZ=             -0.0397

 Normal termination of Gaussian 16 at Thu Dec  7 04:34:36 2023.
