 Gaussian 16, Revision B.01,
 Gaussian 16:  ES64L-G16RevB.01 20-Dec-2017

 -------------------------
 #P B3LYP/6-311+g(d) force
 -------------------------

 -----
 DPGEN
 -----
 Symbolic Z-matrix:
 Charge =  0 Multiplicity = 2

                         Standard orientation:
 ---------------------------------------------------------------------
 Center     Atomic      Atomic             Coordinates (Angstroms)
 Number     Number       Type             X           Y           Z
 ---------------------------------------------------------------------
      1         11           0       -1.668459   -3.550608   -0.093569
      2         11           0        2.554087   -3.485567    0.099395
      3         11           0        3.894753   -0.573833    0.037717
      4         11           0        2.914236    2.959063   -0.534146
      5         11           0       -0.386089    3.882293    0.936643
      6         11           0       -3.398893    2.141960   -0.748857
      7         11           0       -3.909635   -1.373308    0.302818
 ---------------------------------------------------------------------

 SCF Done:  E(UB3LYP) =  -1136.10440361     A.U. after   22 cycles

 The electronic state is 2-A.
 Alpha  occ. eigenvalues --  -38.45520 -38.44779 -38.44693 -38.44692 -38.44447
 Alpha  occ. eigenvalues --  -38.44315 -38.44225  -2.21229  -2.20570  -2.20470
 Alpha  occ. eigenvalues --   -2.20462  -2.20240  -2.20094  -2.20020  -1.14925
 Alpha  occ. eigenvalues --   -1.14907  -1.14869  -1.14249  -1.14225  -1.14204
 Alpha  occ. eigenvalues --   -1.14149  -1.14148  -1.14124  -1.14120  -1.14106
 Alpha  occ. eigenvalues --   -1.14082  -1.13908  -1.13903  -1.13878  -1.13751
 Alpha  occ. eigenvalues --   -1.13739  -1.13715  -1.13671  -1.13666  -1.13654
 Alpha  occ. eigenvalues --   -0.15210  -0.13863  -0.13397  -0.10956
 Alpha virt. eigenvalues --   -0.07796  -0.05109  -0.04414  -0.03469  -0.03263
 Alpha virt. eigenvalues --   -0.02681  -0.02502  -0.01823  -0.01681  -0.00652
 Alpha virt. eigenvalues --   -0.00378  -0.00163   0.00039   0.00062   0.00239

  Beta  occ. eigenvalues --  -38.45542 -38.44731 -38.44686 -38.44620 -38.44440
  Beta  occ. eigenvalues --  -38.44248 -38.44180  -2.21274  -2.20484  -2.20463
  Beta  occ. eigenvalues --   -2.20327  -2.20233  -2.19969  -2.19938  -1.14959
  Beta  occ. eigenvalues --   -1.14941  -1.14874  -1.14188  -1.14168  -1.14149
  Beta  occ. eigenvalues --   -1.14144  -1.14139  -1.14083  -1.14027  -1.14017
  Beta  occ. eigenvalues --   -1.13993  -1.13908  -1.13900  -1.13838  -1.13665
  Beta  occ. eigenvalues --   -1.13655  -1.13635  -1.13617  -1.13612  -1.13593
  Beta  occ. eigenvalues --   -0.14646  -0.13088  -0.12717
  Beta virt. eigenvalues --   -0.07917  -0.07876  -0.04682  -0.03918  -0.03244
  Beta virt. eigenvalues --   -0.02951  -0.02445  -0.02272  -0.01670  -0.01554
  Beta virt. eigenvalues --   -0.00283  -0.00210   0.00072   0.00161   0.00311

 Mulliken charges and spin densities:
               1          2
     1  Na   0.137731   0.233677
     2  Na   0.322423   0.200023
     3  Na  -0.098931   0.044370
     4  Na  -0.100166   0.323813
     5  Na  -0.029221  -0.121354
     6  Na  -0.114879   0.367051
     7  Na  -0.116959  -0.047581
 Sum of Mulliken charges =  -0.00000   1.00000

 Dipole moment (field-independent basis, Debye):
    X=             -0.3034    Y=              0.1553    Z=              0.1079  Tot=              0.3574
 Quadrupole moment (field-independent basis, Debye-Ang):
   XX=            -66.7588   YY=            -62.7981   ZZ=            -71.4939
   XY=             -0.3224   XZ=             -0.6831   YZ=              1.4859

 Normal termination of Gaussian 16 at Mon Dec  4 02:26:04 2023.
