 Gaussian 16, Revision B.01,
 Gaussian 16:  ES64L-G16RevB.01 20-Dec-2017

 -------------------------
 #P B3LYP/6-311+g(d) force
 -------------------------

 -----
 DPGEN
 -----
 Symbolic Z-matrix:
 Charge =  0 Multiplicity = 2

                         Standard orientation:
 ---------------------------------------------------------------------
 Center     Atomic      Atomic             Coordinates (Angstroms)
 Number     Number       Type             X           Y           Z
 ---------------------------------------------------------------------
      1         11           0        0.172967   -2.530066    0.658690
      2         11           0        3.253839   -2.649446   -0.324318
      3         11           0        3.371405    0.563838   -0.534285
      4         11           0       -0.107253    0.919092   -0.083343
      5         11           0       -3.146149    0.363111    1.302634
      6         11           0        2.088793    3.519373    0.141046
      7         11           0       -5.633602   -0.185901   -1.160423
 ---------------------------------------------------------------------

 SCF Done:  E(UB3LYP) =  -1136.12200213     A.U. after   20 cycles

 The electronic state is 2-A.
 Alpha  occ. eigenvalues --  -38.44705 -38.44487 -38.44056 -38.44042 -38.43803
 Alpha  occ. eigenvalues --  -38.43774 -38.43580  -2.20493  -2.20292  -2.19912
 Alpha  occ. eigenvalues --   -2.19834  -2.19678  -2.19592  -2.19428  -1.14130
 Alpha  occ. eigenvalues --   -1.14129  -1.14099  -1.13971  -1.13966  -1.13912
 Alpha  occ. eigenvalues --   -1.13596  -1.13584  -1.13552  -1.13534  -1.13501
 Alpha  occ. eigenvalues --   -1.13488  -1.13371  -1.13358  -1.13293  -1.13252
 Alpha  occ. eigenvalues --   -1.13244  -1.13208  -1.13093  -1.13076  -1.13062
 Alpha  occ. eigenvalues --   -0.16824  -0.13819  -0.12516  -0.11090
 Alpha virt. eigenvalues --   -0.06168  -0.05289  -0.04798  -0.03833  -0.02714
 Alpha virt. eigenvalues --   -0.02090  -0.01835  -0.01683  -0.01201  -0.00659
 Alpha virt. eigenvalues --   -0.00335  -0.00070   0.00100   0.00289   0.00711

  Beta  occ. eigenvalues --  -38.44591 -38.44465 -38.44070 -38.44010 -38.43773
  Beta  occ. eigenvalues --  -38.43768 -38.43560  -2.20281  -2.20253  -2.19867
  Beta  occ. eigenvalues --   -2.19854  -2.19616  -2.19591  -2.19392  -1.13986
  Beta  occ. eigenvalues --   -1.13983  -1.13960  -1.13946  -1.13938  -1.13881
  Beta  occ. eigenvalues --   -1.13560  -1.13556  -1.13547  -1.13527  -1.13501
  Beta  occ. eigenvalues --   -1.13468  -1.13330  -1.13319  -1.13266  -1.13251
  Beta  occ. eigenvalues --   -1.13234  -1.13188  -1.13057  -1.13053  -1.13042
  Beta  occ. eigenvalues --   -0.16349  -0.12978  -0.12488
  Beta virt. eigenvalues --   -0.07547  -0.05658  -0.05070  -0.04503  -0.03567
  Beta virt. eigenvalues --   -0.02383  -0.01813  -0.01689  -0.01257  -0.01121
  Beta virt. eigenvalues --   -0.00300  -0.00025   0.00116   0.00241   0.00475

 Mulliken charges and spin densities:
               1          2
     1  Na   0.182235   0.085211
     2  Na   0.023155   0.054933
     3  Na   0.112763   0.323829
     4  Na  -1.640407  -0.045659
     5  Na   0.141004  -0.082209
     6  Na   0.999020   0.076619
     7  Na   0.182230   0.587276
 Sum of Mulliken charges =  -0.00000   1.00000

 Dipole moment (field-independent basis, Debye):
    X=              0.3489    Y=              0.0234    Z=              0.1329  Tot=              0.3741
 Quadrupole moment (field-independent basis, Debye-Ang):
   XX=            -67.4793   YY=            -61.8992   ZZ=            -68.5725
   XY=              1.9149   XZ=              0.3716   YZ=              1.4351

 Normal termination of Gaussian 16 at Tue Nov 28 21:23:20 2023.
