 Gaussian 16, Revision B.01,
 Gaussian 16:  ES64L-G16RevB.01 20-Dec-2017

 -------------------------
 #P B3LYP/6-311+g(d) force
 -------------------------

 -----
 DPGEN
 -----
 Symbolic Z-matrix:
 Charge =  0 Multiplicity = 2

                         Standard orientation:
 ---------------------------------------------------------------------
 Center     Atomic      Atomic             Coordinates (Angstroms)
 Number     Number       Type             X           Y           Z
 ---------------------------------------------------------------------
      1         11           0        1.646210   -2.301662   -0.655765
      2         11           0       -1.388972    3.139760   -0.434484
      3         11           0        1.429047    1.817926   -0.258540
      4         11           0       -1.773471   -2.872161   -0.331945
      5         11           0       -0.755582   -0.543850    1.362919
      6         11           0       -3.980992    0.410966    0.027991
      7         11           0        4.823761    0.349020    0.289824
 ---------------------------------------------------------------------

 SCF Done:  E(UB3LYP) =  -1136.12221998     A.U. after   20 cycles

 The electronic state is 2-A.
 Alpha  occ. eigenvalues --  -38.45157 -38.44587 -38.44311 -38.43893 -38.43740
 Alpha  occ. eigenvalues --  -38.43739 -38.43381  -2.21029  -2.20375  -2.20152
 Alpha  occ. eigenvalues --   -2.19713  -2.19547  -2.19531  -2.19230  -1.14743
 Alpha  occ. eigenvalues --   -1.14701  -1.14645  -1.14072  -1.14048  -1.13987
 Alpha  occ. eigenvalues --   -1.13847  -1.13820  -1.13759  -1.13413  -1.13375
 Alpha  occ. eigenvalues --   -1.13337  -1.13212  -1.13180  -1.13177  -1.13175
 Alpha  occ. eigenvalues --   -1.13168  -1.13133  -1.12922  -1.12907  -1.12842
 Alpha  occ. eigenvalues --   -0.17242  -0.13360  -0.13055  -0.10290
 Alpha virt. eigenvalues --   -0.06519  -0.05693  -0.04725  -0.03452  -0.02614
 Alpha virt. eigenvalues --   -0.02507  -0.02018  -0.01157  -0.01009  -0.00684
 Alpha virt. eigenvalues --   -0.00480  -0.00233   0.00482   0.00570   0.00634

  Beta  occ. eigenvalues --  -38.45153 -38.44580 -38.44313 -38.43877 -38.43671
  Beta  occ. eigenvalues --  -38.43639 -38.43366  -2.21024  -2.20365  -2.20160
  Beta  occ. eigenvalues --   -2.19687  -2.19418  -2.19345  -2.19207  -1.14744
  Beta  occ. eigenvalues --   -1.14692  -1.14634  -1.14065  -1.14040  -1.13969
  Beta  occ. eigenvalues --   -1.13857  -1.13827  -1.13737  -1.13380  -1.13358
  Beta  occ. eigenvalues --   -1.13321  -1.13124  -1.13097  -1.13079  -1.13050
  Beta  occ. eigenvalues --   -1.13048  -1.13012  -1.12910  -1.12889  -1.12800
  Beta  occ. eigenvalues --   -0.16919  -0.12688  -0.12480
  Beta virt. eigenvalues --   -0.06921  -0.06432  -0.05587  -0.04392  -0.02831
  Beta virt. eigenvalues --   -0.02437  -0.02338  -0.01519  -0.00988  -0.00866
  Beta virt. eigenvalues --   -0.00611  -0.00109   0.00126   0.00621   0.00669

 Mulliken charges and spin densities:
               1          2
     1  Na  -0.122076  -0.018169
     2  Na   0.593933  -0.095877
     3  Na  -1.298293   0.156095
     4  Na  -0.046475   0.018591
     5  Na   0.625234  -0.048880
     6  Na  -0.197878   0.458054
     7  Na   0.445554   0.530186
 Sum of Mulliken charges =  -0.00000   1.00000

 Dipole moment (field-independent basis, Debye):
    X=             -0.9503    Y=             -0.9378    Z=             -0.3378  Tot=              1.3772
 Quadrupole moment (field-independent basis, Debye-Ang):
   XX=            -73.7832   YY=            -62.9185   ZZ=            -67.4079
   XY=             -2.5722   XZ=              1.6672   YZ=              1.6551

 Normal termination of Gaussian 16 at Mon Dec  4 02:01:12 2023.
