 Gaussian 16, Revision B.01,
 Gaussian 16:  ES64L-G16RevB.01 20-Dec-2017

 -------------------------
 #P B3LYP/6-311+g(d) force
 -------------------------

 -----
 DPGEN
 -----
 Symbolic Z-matrix:
 Charge =  0 Multiplicity = 2

                         Standard orientation:
 ---------------------------------------------------------------------
 Center     Atomic      Atomic             Coordinates (Angstroms)
 Number     Number       Type             X           Y           Z
 ---------------------------------------------------------------------
      1         11           0        0.140856    3.087731   -0.072481
      2         11           0       -2.063958    1.131283    1.658781
      3         11           0        3.589186    1.443932   -1.285062
      4         11           0        0.678851   -1.804929    1.316135
      5         11           0       -4.117190   -0.012419   -0.566285
      6         11           0        3.492217   -1.673519    0.578145
      7         11           0       -1.719963   -2.172079   -1.629233
 ---------------------------------------------------------------------

 SCF Done:  E(UB3LYP) =  -1136.10731083     A.U. after   21 cycles

 The electronic state is 2-A.
 Alpha  occ. eigenvalues --  -38.45185 -38.45038 -38.44607 -38.44352 -38.44177
 Alpha  occ. eigenvalues --  -38.44070 -38.43935  -2.20993  -2.20811  -2.20432
 Alpha  occ. eigenvalues --   -2.20126  -2.19914  -2.19906  -2.19785  -1.14671
 Alpha  occ. eigenvalues --   -1.14649  -1.14633  -1.14481  -1.14458  -1.14434
 Alpha  occ. eigenvalues --   -1.14194  -1.14079  -1.14059  -1.13785  -1.13756
 Alpha  occ. eigenvalues --   -1.13750  -1.13613  -1.13604  -1.13575  -1.13568
 Alpha  occ. eigenvalues --   -1.13546  -1.13511  -1.13438  -1.13419  -1.13409
 Alpha  occ. eigenvalues --   -0.16590  -0.13996  -0.12103  -0.10921
 Alpha virt. eigenvalues --   -0.07280  -0.05561  -0.04371  -0.03633  -0.03498
 Alpha virt. eigenvalues --   -0.02294  -0.02174  -0.01342  -0.01117  -0.00456
 Alpha virt. eigenvalues --   -0.00375  -0.00200   0.00067   0.00346   0.00498

  Beta  occ. eigenvalues --  -38.45166 -38.45000 -38.44605 -38.44274 -38.44199
  Beta  occ. eigenvalues --  -38.44028 -38.43887  -2.20959  -2.20743  -2.20433
  Beta  occ. eigenvalues --   -2.19980  -2.19955  -2.19829  -2.19696  -1.14644
  Beta  occ. eigenvalues --   -1.14629  -1.14597  -1.14436  -1.14413  -1.14376
  Beta  occ. eigenvalues --   -1.14176  -1.14084  -1.14046  -1.13686  -1.13661
  Beta  occ. eigenvalues --   -1.13653  -1.13635  -1.13628  -1.13576  -1.13518
  Beta  occ. eigenvalues --   -1.13499  -1.13475  -1.13385  -1.13357  -1.13345
  Beta  occ. eigenvalues --   -0.16076  -0.13427  -0.11703
  Beta virt. eigenvalues --   -0.07626  -0.07290  -0.04987  -0.03865  -0.03377
  Beta virt. eigenvalues --   -0.03135  -0.02237  -0.01750  -0.01090  -0.00788
  Beta virt. eigenvalues --   -0.00407  -0.00293   0.00025   0.00230   0.00502

 Mulliken charges and spin densities:
               1          2
     1  Na  -0.058118  -0.181484
     2  Na  -0.016479   0.327436
     3  Na  -0.061868   0.401124
     4  Na  -0.320870   0.211452
     5  Na   0.159868   0.011705
     6  Na   0.154715   0.004849
     7  Na   0.142752   0.224918
 Sum of Mulliken charges =  -0.00000   1.00000

 Dipole moment (field-independent basis, Debye):
    X=             -0.8300    Y=             -0.4185    Z=             -0.4510  Tot=              1.0332
 Quadrupole moment (field-independent basis, Debye-Ang):
   XX=            -56.8532   YY=            -73.8027   ZZ=            -69.9077
   XY=             -4.8329   XZ=             -1.4584   YZ=             -0.2030

 Normal termination of Gaussian 16 at Mon Dec  4 00:51:19 2023.
