 Gaussian 16, Revision B.01,
 Gaussian 16:  ES64L-G16RevB.01 20-Dec-2017

 -------------------------
 #P B3LYP/6-311+g(d) force
 -------------------------

 -----
 DPGEN
 -----
 Symbolic Z-matrix:
 Charge =  0 Multiplicity = 2

                         Standard orientation:
 ---------------------------------------------------------------------
 Center     Atomic      Atomic             Coordinates (Angstroms)
 Number     Number       Type             X           Y           Z
 ---------------------------------------------------------------------
      1         11           0        2.982402    2.928039   -0.232286
      2         11           0        2.140710   -2.635864   -0.525676
      3         11           0        4.510612   -0.124948   -0.009343
      4         11           0       -1.206966    2.248673    0.451524
      5         11           0       -0.518900   -2.400760    1.143383
      6         11           0       -4.341877    1.433245   -0.060959
      7         11           0       -3.565981   -1.448385   -0.766642
 ---------------------------------------------------------------------

 SCF Done:  E(UB3LYP) =  -1136.10738999     A.U. after   23 cycles

 The electronic state is 2-A.
 Alpha  occ. eigenvalues --  -38.45204 -38.44911 -38.44618 -38.44562 -38.44266
 Alpha  occ. eigenvalues --  -38.43923 -38.43852  -2.21028  -2.20637  -2.20467
 Alpha  occ. eigenvalues --   -2.20358  -2.20058  -2.19728  -2.19664  -1.14709
 Alpha  occ. eigenvalues --   -1.14686  -1.14654  -1.14327  -1.14309  -1.14288
 Alpha  occ. eigenvalues --   -1.14131  -1.14122  -1.14115  -1.14045  -1.14027
 Alpha  occ. eigenvalues --   -1.14010  -1.13721  -1.13708  -1.13666  -1.13386
 Alpha  occ. eigenvalues --   -1.13376  -1.13355  -1.13324  -1.13315  -1.13299
 Alpha  occ. eigenvalues --   -0.16222  -0.14270  -0.12451  -0.10512
 Alpha virt. eigenvalues --   -0.07648  -0.05099  -0.04640  -0.03393  -0.03335
 Alpha virt. eigenvalues --   -0.02858  -0.01932  -0.01871  -0.00807  -0.00737
 Alpha virt. eigenvalues --   -0.00421  -0.00105   0.00105   0.00406   0.00496

  Beta  occ. eigenvalues --  -38.45148 -38.44934 -38.44600 -38.44563 -38.44192
  Beta  occ. eigenvalues --  -38.43874 -38.43822  -2.20929  -2.20684  -2.20441
  Beta  occ. eigenvalues --   -2.20364  -2.19920  -2.19634  -2.19609  -1.14639
  Beta  occ. eigenvalues --   -1.14621  -1.14569  -1.14362  -1.14342  -1.14298
  Beta  occ. eigenvalues --   -1.14111  -1.14103  -1.14070  -1.14045  -1.14032
  Beta  occ. eigenvalues --   -1.13995  -1.13626  -1.13613  -1.13577  -1.13321
  Beta  occ. eigenvalues --   -1.13313  -1.13299  -1.13285  -1.13277  -1.13263
  Beta  occ. eigenvalues --   -0.15625  -0.13783  -0.12112
  Beta virt. eigenvalues --   -0.07604  -0.07128  -0.04688  -0.04324  -0.02919
  Beta virt. eigenvalues --   -0.02798  -0.02645  -0.01902  -0.01783  -0.00705
  Beta virt. eigenvalues --   -0.00455  -0.00148   0.00074   0.00348   0.00457

 Mulliken charges and spin densities:
               1          2
     1  Na   0.140079  -0.214075
     2  Na   0.010609   0.020967
     3  Na  -0.017252   0.240343
     4  Na  -0.541991   0.331776
     5  Na  -0.214212   0.174102
     6  Na   0.647256   0.204361
     7  Na  -0.024489   0.242526
 Sum of Mulliken charges =  -0.00000   1.00000

 Dipole moment (field-independent basis, Debye):
    X=             -0.7600    Y=             -0.1088    Z=             -0.2397  Tot=              0.8044
 Quadrupole moment (field-independent basis, Debye-Ang):
   XX=            -63.9296   YY=            -66.1887   ZZ=            -70.9111
   XY=             -1.9738   XZ=             -1.2706   YZ=              1.4281

 Normal termination of Gaussian 16 at Sun Dec  3 21:45:15 2023.
