 Gaussian 16, Revision B.01,
 Gaussian 16:  ES64L-G16RevB.01 20-Dec-2017

 -------------------------
 #P B3LYP/6-311+g(d) force
 -------------------------

 -----
 DPGEN
 -----
 Symbolic Z-matrix:
 Charge =  0 Multiplicity = 2

                         Standard orientation:
 ---------------------------------------------------------------------
 Center     Atomic      Atomic             Coordinates (Angstroms)
 Number     Number       Type             X           Y           Z
 ---------------------------------------------------------------------
      1         11           0        1.626484   -2.171665   -0.085314
      2         11           0       -2.261869   -2.100351    0.176215
      3         11           0       -2.971704    1.002197   -0.244939
      4         11           0        0.213320   -0.066595   -1.583121
      5         11           0        0.268916    2.847029    0.013839
      6         11           0        0.052365    0.164014    1.705705
      7         11           0        3.072489    0.325371    0.017615
 ---------------------------------------------------------------------

 SCF Done:  E(UB3LYP) =  -1136.13001816     A.U. after   21 cycles

 The electronic state is 2-A.
 Alpha  occ. eigenvalues --  -38.44413 -38.44335 -38.43611 -38.43440 -38.43101
 Alpha  occ. eigenvalues --  -38.42967 -38.42957  -2.20337  -2.20175  -2.19456
 Alpha  occ. eigenvalues --   -2.19418  -2.19151  -2.18976  -2.18832  -1.14089
 Alpha  occ. eigenvalues --   -1.13985  -1.13959  -1.13851  -1.13845  -1.13809
 Alpha  occ. eigenvalues --   -1.13202  -1.13125  -1.13119  -1.13101  -1.13063
 Alpha  occ. eigenvalues --   -1.13029  -1.12849  -1.12768  -1.12746  -1.12671
 Alpha  occ. eigenvalues --   -1.12634  -1.12582  -1.12498  -1.12481  -1.12449
 Alpha  occ. eigenvalues --   -0.19309  -0.13694  -0.12296  -0.10501
 Alpha virt. eigenvalues --   -0.06043  -0.05113  -0.04387  -0.03318  -0.02548
 Alpha virt. eigenvalues --   -0.02082  -0.01847  -0.01055  -0.00278  -0.00189
 Alpha virt. eigenvalues --    0.00035   0.00351   0.00782   0.00898   0.00917

  Beta  occ. eigenvalues --  -38.44404 -38.44331 -38.43608 -38.43428 -38.43030
  Beta  occ. eigenvalues --  -38.42951 -38.42886  -2.20327  -2.20170  -2.19454
  Beta  occ. eigenvalues --   -2.19402  -2.19023  -2.18830  -2.18824  -1.14087
  Beta  occ. eigenvalues --   -1.13964  -1.13932  -1.13850  -1.13821  -1.13810
  Beta  occ. eigenvalues --   -1.13177  -1.13126  -1.13102  -1.13095  -1.13043
  Beta  occ. eigenvalues --   -1.12993  -1.12764  -1.12685  -1.12653  -1.12587
  Beta  occ. eigenvalues --   -1.12544  -1.12478  -1.12473  -1.12447  -1.12426
  Beta  occ. eigenvalues --   -0.18573  -0.13430  -0.12023
  Beta virt. eigenvalues --   -0.06574  -0.06000  -0.05103  -0.04392  -0.02492
  Beta virt. eigenvalues --   -0.01796  -0.01751  -0.01078  -0.00986  -0.00322
  Beta virt. eigenvalues --   -0.00231   0.00170   0.00374   0.00824   0.00892

 Mulliken charges and spin densities:
               1          2
     1  Na   0.401751   0.040307
     2  Na   0.089788  -0.055632
     3  Na   0.010255  -0.064235
     4  Na  -0.484319   0.524567
     5  Na   0.041749  -0.132595
     6  Na  -0.451021   0.695285
     7  Na   0.391798  -0.007697
 Sum of Mulliken charges =  -0.00000   1.00000

 Dipole moment (field-independent basis, Debye):
    X=             -0.1734    Y=              0.1538    Z=              0.0635  Tot=              0.2403
 Quadrupole moment (field-independent basis, Debye-Ang):
   XX=            -52.4211   YY=            -63.8713   ZZ=            -76.0274
   XY=              0.3172   XZ=              0.5493   YZ=             -0.7696

 Normal termination of Gaussian 16 at Wed Nov 29 01:20:49 2023.
