 Gaussian 16, Revision B.01,
 Gaussian 16:  ES64L-G16RevB.01 20-Dec-2017

 -------------------------
 #P B3LYP/6-311+g(d) force
 -------------------------

 -----
 DPGEN
 -----
 Symbolic Z-matrix:
 Charge =  0 Multiplicity = 2

                         Standard orientation:
 ---------------------------------------------------------------------
 Center     Atomic      Atomic             Coordinates (Angstroms)
 Number     Number       Type             X           Y           Z
 ---------------------------------------------------------------------
      1         11           0        2.720294    1.760110   -0.748999
      2         11           0        1.080210    0.366123    1.902951
      3         11           0       -1.208955    2.000246    0.061046
      4         11           0       -3.686115   -0.253982   -1.711785
      5         11           0        0.159734   -1.259773   -0.941066
      6         11           0        3.659949   -1.663296   -0.342280
      7         11           0       -2.725117   -0.949428    1.780133
 ---------------------------------------------------------------------

 SCF Done:  E(UB3LYP) =  -1136.12189430     A.U. after   25 cycles

 The electronic state is 2-A.
 Alpha  occ. eigenvalues --  -38.45026 -38.44764 -38.44702 -38.44047 -38.43539
 Alpha  occ. eigenvalues --  -38.43413 -38.43254  -2.20819  -2.20582  -2.20516
 Alpha  occ. eigenvalues --   -2.19838  -2.19424  -2.19213  -2.19103  -1.14496
 Alpha  occ. eigenvalues --   -1.14459  -1.14439  -1.14271  -1.14235  -1.14233
 Alpha  occ. eigenvalues --   -1.14209  -1.14183  -1.14100  -1.13500  -1.13498
 Alpha  occ. eigenvalues --   -1.13459  -1.13136  -1.13063  -1.13049  -1.12885
 Alpha  occ. eigenvalues --   -1.12878  -1.12851  -1.12809  -1.12772  -1.12702
 Alpha  occ. eigenvalues --   -0.17931  -0.14063  -0.10981  -0.10715
 Alpha virt. eigenvalues --   -0.06744  -0.05649  -0.05141  -0.02965  -0.02639
 Alpha virt. eigenvalues --   -0.02475  -0.02124  -0.01426  -0.01166  -0.00297
 Alpha virt. eigenvalues --    0.00060   0.00172   0.00234   0.00314   0.00396

  Beta  occ. eigenvalues --  -38.44981 -38.44731 -38.44688 -38.44008 -38.43517
  Beta  occ. eigenvalues --  -38.43415 -38.43238  -2.20735  -2.20519  -2.20494
  Beta  occ. eigenvalues --   -2.19765  -2.19386  -2.19217  -2.19076  -1.14436
  Beta  occ. eigenvalues --   -1.14405  -1.14370  -1.14225  -1.14211  -1.14191
  Beta  occ. eigenvalues --   -1.14180  -1.14140  -1.14088  -1.13449  -1.13441
  Beta  occ. eigenvalues --   -1.13414  -1.13114  -1.13026  -1.13009  -1.12885
  Beta  occ. eigenvalues --   -1.12880  -1.12854  -1.12793  -1.12732  -1.12684
  Beta  occ. eigenvalues --   -0.17334  -0.13791  -0.10546
  Beta virt. eigenvalues --   -0.07336  -0.06542  -0.05083  -0.04868  -0.02725
  Beta virt. eigenvalues --   -0.02537  -0.01930  -0.01590  -0.01081  -0.00832
  Beta virt. eigenvalues --   -0.00173   0.00092   0.00316   0.00361   0.00378

 Mulliken charges and spin densities:
               1          2
     1  Na   0.197859   0.076986
     2  Na   0.092084   0.292543
     3  Na  -0.192327   0.291622
     4  Na   0.419239   0.126557
     5  Na  -0.999274   0.186225
     6  Na   0.339585  -0.101308
     7  Na   0.142833   0.127376
 Sum of Mulliken charges =  -0.00000   1.00000

 Dipole moment (field-independent basis, Debye):
    X=             -0.1079    Y=              0.3763    Z=              0.4269  Tot=              0.5793
 Quadrupole moment (field-independent basis, Debye-Ang):
   XX=            -52.7000   YY=            -74.8275   ZZ=            -68.6500
   XY=              3.0885   XZ=             -1.4333   YZ=             -5.5069

 Normal termination of Gaussian 16 at Tue Dec  5 18:55:35 2023.
