 Gaussian 16, Revision B.01,
 Gaussian 16:  ES64L-G16RevB.01 20-Dec-2017

 -------------------------
 #P B3LYP/6-311+g(d) force
 -------------------------

 -----
 DPGEN
 -----
 Symbolic Z-matrix:
 Charge =  0 Multiplicity = 2

                         Standard orientation:
 ---------------------------------------------------------------------
 Center     Atomic      Atomic             Coordinates (Angstroms)
 Number     Number       Type             X           Y           Z
 ---------------------------------------------------------------------
      1         11           0       -2.714950   -2.579857   -1.052977
      2         11           0       -5.231677   -0.731704    0.435736
      3         11           0       -2.886027    1.590142    1.312723
      4         11           0       -0.875582    2.472382   -1.283808
      5         11           0        1.308236    0.378710   -0.232079
      6         11           0        3.932441   -1.077870    1.150669
      7         11           0        6.467560   -0.051803   -0.330264
 ---------------------------------------------------------------------

 SCF Done:  E(UB3LYP) =  -1136.10872964     A.U. after   21 cycles

 The electronic state is 2-A.
 Alpha  occ. eigenvalues --  -38.45024 -38.44566 -38.44376 -38.44345 -38.43923
 Alpha  occ. eigenvalues --  -38.43886 -38.43598  -2.20818  -2.20340  -2.20193
 Alpha  occ. eigenvalues --   -2.20173  -2.19734  -2.19716  -2.19383  -1.14480
 Alpha  occ. eigenvalues --   -1.14464  -1.14458  -1.13997  -1.13980  -1.13951
 Alpha  occ. eigenvalues --   -1.13868  -1.13854  -1.13837  -1.13828  -1.13822
 Alpha  occ. eigenvalues --   -1.13808  -1.13458  -1.13399  -1.13394  -1.13380
 Alpha  occ. eigenvalues --   -1.13367  -1.13294  -1.13060  -1.13053  -1.13034
 Alpha  occ. eigenvalues --   -0.15861  -0.14329  -0.12031  -0.10680
 Alpha virt. eigenvalues --   -0.07189  -0.05180  -0.04482  -0.03600  -0.03058
 Alpha virt. eigenvalues --   -0.02571  -0.01999  -0.01805  -0.01481  -0.00730
 Alpha virt. eigenvalues --   -0.00192  -0.00126   0.00216   0.00301   0.00476

  Beta  occ. eigenvalues --  -38.44982 -38.44483 -38.44352 -38.44308 -38.43935
  Beta  occ. eigenvalues --  -38.43853 -38.43612  -2.20739  -2.20190  -2.20185
  Beta  occ. eigenvalues --   -2.20067  -2.19760  -2.19653  -2.19412  -1.14430
  Beta  occ. eigenvalues --   -1.14409  -1.14404  -1.13892  -1.13873  -1.13854
  Beta  occ. eigenvalues --   -1.13849  -1.13842  -1.13819  -1.13779  -1.13752
  Beta  occ. eigenvalues --   -1.13726  -1.13455  -1.13417  -1.13399  -1.13342
  Beta  occ. eigenvalues --   -1.13322  -1.13274  -1.13083  -1.13069  -1.13034
  Beta  occ. eigenvalues --   -0.15372  -0.13905  -0.11799
  Beta virt. eigenvalues --   -0.07467  -0.06422  -0.04818  -0.04300  -0.03332
  Beta virt. eigenvalues --   -0.02600  -0.02449  -0.01767  -0.01575  -0.01174
  Beta virt. eigenvalues --   -0.00472  -0.00126   0.00093   0.00366   0.00504

 Mulliken charges and spin densities:
               1          2
     1  Na   0.159858   0.457378
     2  Na  -0.055258  -0.125356
     3  Na   0.316657   0.416822
     4  Na   0.898118   0.076382
     5  Na  -1.472452   0.002897
     6  Na   0.035794  -0.042728
     7  Na   0.117282   0.214604
 Sum of Mulliken charges =  -0.00000   1.00000

 Dipole moment (field-independent basis, Debye):
    X=              1.3639    Y=              0.3818    Z=             -0.3076  Tot=              1.4494
 Quadrupole moment (field-independent basis, Debye-Ang):
   XX=            -59.5777   YY=            -71.3365   ZZ=            -66.4008
   XY=             -0.5762   XZ=             -3.1425   YZ=             -3.0320

 Normal termination of Gaussian 16 at Mon Nov 27 04:22:13 2023.
