 Gaussian 16, Revision B.01,
 Gaussian 16:  ES64L-G16RevB.01 20-Dec-2017

 -------------------------
 #P B3LYP/6-311+g(d) force
 -------------------------

 -----
 DPGEN
 -----
 Symbolic Z-matrix:
 Charge =  0 Multiplicity = 2

                         Standard orientation:
 ---------------------------------------------------------------------
 Center     Atomic      Atomic             Coordinates (Angstroms)
 Number     Number       Type             X           Y           Z
 ---------------------------------------------------------------------
      1         11           0        1.890453    2.385600   -0.559660
      2         11           0       -2.204527    2.286004    0.334332
      3         11           0        0.048572   -2.791673   -0.757411
      4         11           0        0.731169   -0.139213    2.171350
      5         11           0       -2.811714   -1.284457    0.379279
      6         11           0        2.981619   -0.866539    0.086846
      7         11           0       -0.635571    0.410278   -1.654737
 ---------------------------------------------------------------------

 SCF Done:  E(UB3LYP) =  -1136.13425566     A.U. after   19 cycles

 The electronic state is 2-A.
 Alpha  occ. eigenvalues --  -38.44128 -38.44011 -38.43900 -38.43893 -38.43842
 Alpha  occ. eigenvalues --  -38.43311 -38.43150  -2.19982  -2.19838  -2.19749
 Alpha  occ. eigenvalues --   -2.19711  -2.19657  -2.19261  -2.18996  -1.13673
 Alpha  occ. eigenvalues --   -1.13620  -1.13601  -1.13515  -1.13506  -1.13479
 Alpha  occ. eigenvalues --   -1.13419  -1.13417  -1.13403  -1.13387  -1.13367
 Alpha  occ. eigenvalues --   -1.13344  -1.13335  -1.13309  -1.13280  -1.12936
 Alpha  occ. eigenvalues --   -1.12911  -1.12886  -1.12676  -1.12648  -1.12626
 Alpha  occ. eigenvalues --   -0.18239  -0.13142  -0.12228  -0.10921
 Alpha virt. eigenvalues --   -0.05587  -0.05418  -0.04526  -0.03566  -0.03015
 Alpha virt. eigenvalues --   -0.02655  -0.01396  -0.01141  -0.00461  -0.00268
 Alpha virt. eigenvalues --   -0.00030   0.00382   0.00758   0.00825   0.00871

  Beta  occ. eigenvalues --  -38.44042 -38.44006 -38.43897 -38.43888 -38.43828
  Beta  occ. eigenvalues --  -38.43258 -38.43131  -2.19832  -2.19821  -2.19747
  Beta  occ. eigenvalues --   -2.19705  -2.19632  -2.19166  -2.18965  -1.13578
  Beta  occ. eigenvalues --   -1.13513  -1.13506  -1.13495  -1.13490  -1.13467
  Beta  occ. eigenvalues --   -1.13410  -1.13398  -1.13391  -1.13376  -1.13356
  Beta  occ. eigenvalues --   -1.13328  -1.13316  -1.13288  -1.13266  -1.12875
  Beta  occ. eigenvalues --   -1.12839  -1.12813  -1.12646  -1.12622  -1.12603
  Beta  occ. eigenvalues --   -0.17543  -0.12921  -0.11987
  Beta virt. eigenvalues --   -0.07114  -0.05571  -0.05212  -0.04430  -0.02833
  Beta virt. eigenvalues --   -0.02345  -0.01697  -0.01291  -0.01070  -0.00455
  Beta virt. eigenvalues --   -0.00263   0.00114   0.00424   0.00827   0.00876

 Mulliken charges and spin densities:
               1          2
     1  Na  -0.007774  -0.105956
     2  Na  -0.092256   0.013817
     3  Na   0.013990  -0.014022
     4  Na  -0.421235   0.603239
     5  Na  -0.019416   0.091891
     6  Na   0.240736   0.083730
     7  Na   0.285955   0.327301
 Sum of Mulliken charges =  -0.00000   1.00000

 Dipole moment (field-independent basis, Debye):
    X=             -0.0609    Y=              0.2034    Z=              0.2995  Tot=              0.3672
 Quadrupole moment (field-independent basis, Debye-Ang):
   XX=            -58.1523   YY=            -64.4462   ZZ=            -72.3644
   XY=             -0.0364   XZ=             -3.1511   YZ=              1.0190

 Normal termination of Gaussian 16 at Thu Dec  7 20:56:22 2023.
