 Gaussian 16, Revision B.01,
 Gaussian 16:  ES64L-G16RevB.01 20-Dec-2017

 -------------------------
 #P B3LYP/6-311+g(d) force
 -------------------------

 -----
 DPGEN
 -----
 Symbolic Z-matrix:
 Charge =  0 Multiplicity = 2

                         Standard orientation:
 ---------------------------------------------------------------------
 Center     Atomic      Atomic             Coordinates (Angstroms)
 Number     Number       Type             X           Y           Z
 ---------------------------------------------------------------------
      1         11           0       -2.950740    2.586035   -0.307028
      2         11           0       -4.919499   -0.094732   -0.555588
      3         11           0       -2.067303   -1.891543    0.730551
      4         11           0        0.602394   -2.147372   -1.013552
      5         11           0        0.128492    0.764218    0.906774
      6         11           0        3.431528    0.031809    1.286145
      7         11           0        5.775128    0.751586   -1.047301
 ---------------------------------------------------------------------

 SCF Done:  E(UB3LYP) =  -1136.11352247     A.U. after   21 cycles

 The electronic state is 2-A.
 Alpha  occ. eigenvalues --  -38.44749 -38.44262 -38.44191 -38.44165 -38.44140
 Alpha  occ. eigenvalues --  -38.44124 -38.44027  -2.20562  -2.20133  -2.20045
 Alpha  occ. eigenvalues --   -2.19943  -2.19939  -2.19913  -2.19818  -1.14237
 Alpha  occ. eigenvalues --   -1.14225  -1.14196  -1.13817  -1.13799  -1.13744
 Alpha  occ. eigenvalues --   -1.13725  -1.13696  -1.13659  -1.13614  -1.13603
 Alpha  occ. eigenvalues --   -1.13595  -1.13593  -1.13588  -1.13583  -1.13580
 Alpha  occ. eigenvalues --   -1.13565  -1.13512  -1.13506  -1.13484  -1.13446
 Alpha  occ. eigenvalues --   -0.16946  -0.13812  -0.11863  -0.10997
 Alpha virt. eigenvalues --   -0.06740  -0.06147  -0.04262  -0.03461  -0.02944
 Alpha virt. eigenvalues --   -0.02610  -0.02093  -0.01697  -0.01002  -0.00443
 Alpha virt. eigenvalues --   -0.00386  -0.00287   0.00145   0.00402   0.00492

  Beta  occ. eigenvalues --  -38.44745 -38.44194 -38.44162 -38.44114 -38.44112
  Beta  occ. eigenvalues --  -38.44102 -38.44040  -2.20554  -2.20006  -2.19994
  Beta  occ. eigenvalues --   -2.19891  -2.19873  -2.19847  -2.19842  -1.14233
  Beta  occ. eigenvalues --   -1.14218  -1.14185  -1.13738  -1.13723  -1.13686
  Beta  occ. eigenvalues --   -1.13668  -1.13634  -1.13613  -1.13586  -1.13573
  Beta  occ. eigenvalues --   -1.13558  -1.13547  -1.13533  -1.13530  -1.13528
  Beta  occ. eigenvalues --   -1.13526  -1.13518  -1.13498  -1.13480  -1.13431
  Beta  occ. eigenvalues --   -0.16397  -0.13494  -0.11509
  Beta virt. eigenvalues --   -0.07663  -0.06218  -0.05722  -0.04000  -0.03153
  Beta virt. eigenvalues --   -0.02611  -0.02355  -0.01775  -0.01447  -0.00806
  Beta virt. eigenvalues --   -0.00304  -0.00179  -0.00065   0.00284   0.00509

 Mulliken charges and spin densities:
               1          2
     1  Na   1.062830  -0.137665
     2  Na  -0.477571   0.064784
     3  Na   0.712095   0.428297
     4  Na   0.205961  -0.071478
     5  Na  -1.268669   0.440998
     6  Na  -0.315704  -0.003721
     7  Na   0.081057   0.278784
 Sum of Mulliken charges =  -0.00000   1.00000

 Dipole moment (field-independent basis, Debye):
    X=             -0.3655    Y=             -0.7242    Z=             -0.7231  Tot=              1.0867
 Quadrupole moment (field-independent basis, Debye-Ang):
   XX=            -69.2856   YY=            -70.2640   ZZ=            -64.3405
   XY=             -0.1617   XZ=             -3.8200   YZ=             -0.7747

 Normal termination of Gaussian 16 at Tue Nov 28 21:06:40 2023.
