 Gaussian 16, Revision B.01,
 Gaussian 16:  ES64L-G16RevB.01 20-Dec-2017

 -------------------------
 #P B3LYP/6-311+g(d) force
 -------------------------

 -----
 DPGEN
 -----
 Symbolic Z-matrix:
 Charge =  0 Multiplicity = 2

                         Standard orientation:
 ---------------------------------------------------------------------
 Center     Atomic      Atomic             Coordinates (Angstroms)
 Number     Number       Type             X           Y           Z
 ---------------------------------------------------------------------
      1         11           0       -2.383074   -1.741081    0.093234
      2         11           0       -2.646340    1.325238   -0.432647
      3         11           0        0.624784    3.020089    0.397679
      4         11           0        0.028235    0.034947   -1.446227
      5         11           0        3.009543    0.460175   -0.171550
      6         11           0       -0.168186   -0.494791    1.766062
      7         11           0        1.535036   -2.604577   -0.206551
 ---------------------------------------------------------------------

 SCF Done:  E(UB3LYP) =  -1136.13430506     A.U. after   20 cycles

 The electronic state is 2-A.
 Alpha  occ. eigenvalues --  -38.44013 -38.43761 -38.43759 -38.43534 -38.43399
 Alpha  occ. eigenvalues --  -38.43128 -38.42882  -2.19869  -2.19684  -2.19656
 Alpha  occ. eigenvalues --   -2.19406  -2.19216  -2.19113  -2.18944  -1.13565
 Alpha  occ. eigenvalues --   -1.13530  -1.13499  -1.13447  -1.13386  -1.13347
 Alpha  occ. eigenvalues --   -1.13323  -1.13287  -1.13230  -1.13096  -1.13078
 Alpha  occ. eigenvalues --   -1.13032  -1.12883  -1.12878  -1.12862  -1.12815
 Alpha  occ. eigenvalues --   -1.12735  -1.12708  -1.12625  -1.12578  -1.12555
 Alpha  occ. eigenvalues --   -0.19070  -0.13423  -0.12514  -0.10431
 Alpha virt. eigenvalues --   -0.05531  -0.05191  -0.04870  -0.03145  -0.02751
 Alpha virt. eigenvalues --   -0.02025  -0.01530  -0.01224  -0.00367  -0.00295
 Alpha virt. eigenvalues --    0.00056   0.00350   0.00814   0.00876   0.00890

  Beta  occ. eigenvalues --  -38.44008 -38.43748 -38.43746 -38.43527 -38.43392
  Beta  occ. eigenvalues --  -38.43045 -38.42824  -2.19864  -2.19671  -2.19633
  Beta  occ. eigenvalues --   -2.19397  -2.19204  -2.18960  -2.18839  -1.13556
  Beta  occ. eigenvalues --   -1.13519  -1.13489  -1.13439  -1.13355  -1.13327
  Beta  occ. eigenvalues --   -1.13296  -1.13253  -1.13218  -1.13090  -1.13053
  Beta  occ. eigenvalues --   -1.13019  -1.12871  -1.12861  -1.12853  -1.12718
  Beta  occ. eigenvalues --   -1.12627  -1.12599  -1.12542  -1.12496  -1.12482
  Beta  occ. eigenvalues --   -0.18377  -0.13113  -0.12263
  Beta virt. eigenvalues --   -0.06574  -0.05501  -0.05150  -0.04809  -0.02346
  Beta virt. eigenvalues --   -0.02031  -0.01433  -0.01157  -0.01051  -0.00392
  Beta virt. eigenvalues --   -0.00322   0.00183   0.00392   0.00859   0.00879

 Mulliken charges and spin densities:
               1          2
     1  Na   0.459894  -0.019743
     2  Na   0.118895   0.056329
     3  Na  -0.092762   0.013313
     4  Na  -0.303236   0.311715
     5  Na   0.045206  -0.027421
     6  Na  -0.366874   0.753509
     7  Na   0.138876  -0.087702
 Sum of Mulliken charges =  -0.00000   1.00000

 Dipole moment (field-independent basis, Debye):
    X=              0.1312    Y=             -0.0801    Z=              0.0940  Tot=              0.1802
 Quadrupole moment (field-independent basis, Debye-Ang):
   XX=            -55.9590   YY=            -60.2412   ZZ=            -76.0188
   XY=             -0.2589   XZ=              0.4299   YZ=              1.1863

 Normal termination of Gaussian 16 at Wed Nov 29 00:30:55 2023.
