 Gaussian 16, Revision B.01,
 Gaussian 16:  ES64L-G16RevB.01 20-Dec-2017

 -------------------------
 #P B3LYP/6-311+g(d) force
 -------------------------

 -----
 DPGEN
 -----
 Symbolic Z-matrix:
 Charge =  0 Multiplicity = 2

                         Standard orientation:
 ---------------------------------------------------------------------
 Center     Atomic      Atomic             Coordinates (Angstroms)
 Number     Number       Type             X           Y           Z
 ---------------------------------------------------------------------
      1         11           0        2.859853   -1.694367   -0.390848
      2         11           0       -3.681766   -0.886245    0.556761
      3         11           0        3.120298    1.363070    0.656304
      4         11           0       -0.016919   -0.208092    2.161129
      5         11           0       -2.362915    1.953149   -0.558621
      6         11           0        0.667415    1.302085   -1.264142
      7         11           0       -0.585966   -1.829601   -1.160582
 ---------------------------------------------------------------------

 SCF Done:  E(UB3LYP) =  -1136.11935827     A.U. after   24 cycles

 The electronic state is 2-A.
 Alpha  occ. eigenvalues --  -38.45289 -38.45247 -38.44464 -38.44233 -38.43624
 Alpha  occ. eigenvalues --  -38.43144 -38.42986  -2.21082  -2.21037  -2.20325
 Alpha  occ. eigenvalues --   -2.20060  -2.19464  -2.18999  -2.18933  -1.14762
 Alpha  occ. eigenvalues --   -1.14723  -1.14705  -1.14701  -1.14691  -1.14667
 Alpha  occ. eigenvalues --   -1.14015  -1.13987  -1.13962  -1.13725  -1.13713
 Alpha  occ. eigenvalues --   -1.13704  -1.13165  -1.13116  -1.13104  -1.12722
 Alpha  occ. eigenvalues --   -1.12657  -1.12609  -1.12604  -1.12591  -1.12543
 Alpha  occ. eigenvalues --   -0.18348  -0.14114  -0.11161  -0.11035
 Alpha virt. eigenvalues --   -0.07242  -0.05575  -0.04296  -0.03219  -0.02746
 Alpha virt. eigenvalues --   -0.02589  -0.02420  -0.01385  -0.00675  -0.00313
 Alpha virt. eigenvalues --    0.00113   0.00188   0.00270   0.00611   0.00654

  Beta  occ. eigenvalues --  -38.45238 -38.45214 -38.44452 -38.44228 -38.43615
  Beta  occ. eigenvalues --  -38.43107 -38.42943  -2.21020  -2.20943  -2.20303
  Beta  occ. eigenvalues --   -2.20054  -2.19449  -2.18935  -2.18857  -1.14695
  Beta  occ. eigenvalues --   -1.14682  -1.14667  -1.14656  -1.14630  -1.14584
  Beta  occ. eigenvalues --   -1.14003  -1.13976  -1.13933  -1.13717  -1.13703
  Beta  occ. eigenvalues --   -1.13693  -1.13144  -1.13101  -1.13093  -1.12674
  Beta  occ. eigenvalues --   -1.12602  -1.12560  -1.12558  -1.12524  -1.12483
  Beta  occ. eigenvalues --   -0.17630  -0.13947  -0.10763
  Beta virt. eigenvalues --   -0.07381  -0.06920  -0.05604  -0.03637  -0.02979
  Beta virt. eigenvalues --   -0.02518  -0.01995  -0.01614  -0.01287  -0.00405
  Beta virt. eigenvalues --   -0.00290   0.00126   0.00211   0.00455   0.00686

 Mulliken charges and spin densities:
               1          2
     1  Na   0.062879  -0.000684
     2  Na   0.514684   0.179484
     3  Na   0.780011   0.134006
     4  Na  -0.497223   0.447787
     5  Na  -0.179294  -0.083535
     6  Na  -0.389263   0.287286
     7  Na  -0.291794   0.035657
 Sum of Mulliken charges =  -0.00000   1.00000

 Dipole moment (field-independent basis, Debye):
    X=             -0.2162    Y=             -0.3360    Z=              0.7711  Tot=              0.8684
 Quadrupole moment (field-independent basis, Debye-Ang):
   XX=            -45.3085   YY=            -77.3673   ZZ=            -71.4669
   XY=              0.7658   XZ=             -0.1734   YZ=              1.1277

 Normal termination of Gaussian 16 at Thu Dec  7 15:33:49 2023.
