 Gaussian 16, Revision B.01,
 Gaussian 16:  ES64L-G16RevB.01 20-Dec-2017

 -------------------------
 #P B3LYP/6-311+g(d) force
 -------------------------

 -----
 DPGEN
 -----
 Symbolic Z-matrix:
 Charge =  0 Multiplicity = 2

                         Standard orientation:
 ---------------------------------------------------------------------
 Center     Atomic      Atomic             Coordinates (Angstroms)
 Number     Number       Type             X           Y           Z
 ---------------------------------------------------------------------
      1         11           0       -2.645610   -2.251957    0.621829
      2         11           0        2.330341    0.962441    0.880044
      3         11           0       -1.255668    0.513771    2.009358
      4         11           0        0.348875   -0.980410   -1.200663
      5         11           0       -2.837802    0.485758   -1.384186
      6         11           0        4.310440   -1.209518   -0.356038
      7         11           0       -0.250576    2.479916   -0.570344
 ---------------------------------------------------------------------

 SCF Done:  E(UB3LYP) =  -1136.12760864     A.U. after   22 cycles

 The electronic state is 2-A.
 Alpha  occ. eigenvalues --  -38.44817 -38.44530 -38.44192 -38.43958 -38.43604
 Alpha  occ. eigenvalues --  -38.43324 -38.42521  -2.20656  -2.20411  -2.19978
 Alpha  occ. eigenvalues --   -2.19850  -2.19499  -2.19167  -2.18428  -1.14366
 Alpha  occ. eigenvalues --   -1.14333  -1.14257  -1.14080  -1.14062  -1.14027
 Alpha  occ. eigenvalues --   -1.13669  -1.13639  -1.13611  -1.13527  -1.13499
 Alpha  occ. eigenvalues --   -1.13451  -1.13191  -1.13182  -1.13099  -1.12833
 Alpha  occ. eigenvalues --   -1.12829  -1.12803  -1.12101  -1.12099  -1.12066
 Alpha  occ. eigenvalues --   -0.18451  -0.13796  -0.11573  -0.11266
 Alpha virt. eigenvalues --   -0.06753  -0.05074  -0.04289  -0.03126  -0.02829
 Alpha virt. eigenvalues --   -0.02706  -0.02389  -0.01151  -0.00733  -0.00273
 Alpha virt. eigenvalues --    0.00133   0.00153   0.00314   0.00664   0.00798

  Beta  occ. eigenvalues --  -38.44786 -38.44481 -38.44198 -38.43875 -38.43594
  Beta  occ. eigenvalues --  -38.43307 -38.42511  -2.20603  -2.20322  -2.19990
  Beta  occ. eigenvalues --   -2.19698  -2.19480  -2.19139  -2.18414  -1.14323
  Beta  occ. eigenvalues --   -1.14287  -1.14217  -1.14009  -1.14003  -1.13960
  Beta  occ. eigenvalues --   -1.13678  -1.13647  -1.13617  -1.13422  -1.13399
  Beta  occ. eigenvalues --   -1.13333  -1.13181  -1.13165  -1.13081  -1.12814
  Beta  occ. eigenvalues --   -1.12804  -1.12775  -1.12096  -1.12092  -1.12022
  Beta  occ. eigenvalues --   -0.17709  -0.13648  -0.11305
  Beta virt. eigenvalues --   -0.07328  -0.06561  -0.04943  -0.03900  -0.02848
  Beta virt. eigenvalues --   -0.02481  -0.02144  -0.01675  -0.01038  -0.00387
  Beta virt. eigenvalues --   -0.00229   0.00177   0.00203   0.00448   0.00753

 Mulliken charges and spin densities:
               1          2
     1  Na   0.448843  -0.024977
     2  Na   0.118454  -0.056611
     3  Na  -0.551660   0.510630
     4  Na  -1.051497   0.387498
     5  Na   0.602058   0.135028
     6  Na   0.255384  -0.026498
     7  Na   0.178417   0.074931
 Sum of Mulliken charges =  -0.00000   1.00000

 Dipole moment (field-independent basis, Debye):
    X=             -0.0750    Y=             -0.0326    Z=             -0.1938  Tot=              0.2104
 Quadrupole moment (field-independent basis, Debye-Ang):
   XX=            -55.2386   YY=            -70.2463   ZZ=            -70.0823
   XY=             -1.9953   XZ=              1.0768   YZ=             -0.3025

 Normal termination of Gaussian 16 at Tue Dec  5 22:51:17 2023.
