 Gaussian 16, Revision B.01,
 Gaussian 16:  ES64L-G16RevB.01 20-Dec-2017

 -------------------------
 #P B3LYP/6-311+g(d) force
 -------------------------

 -----
 DPGEN
 -----
 Symbolic Z-matrix:
 Charge =  0 Multiplicity = 2

                         Standard orientation:
 ---------------------------------------------------------------------
 Center     Atomic      Atomic             Coordinates (Angstroms)
 Number     Number       Type             X           Y           Z
 ---------------------------------------------------------------------
      1         11           0       -1.422718    3.059688    0.008027
      2         11           0        3.089911    1.596093   -0.068988
      3         11           0       -0.792085   -2.979282   -0.019867
      4         11           0       -3.309989   -0.455208   -0.148359
      5         11           0       -0.089634    0.362283   -1.546970
      6         11           0       -0.029666    0.142454    1.918653
      7         11           0        2.554181   -1.726029   -0.142495
 ---------------------------------------------------------------------

 SCF Done:  E(UB3LYP) =  -1136.13363795     A.U. after   19 cycles

 The electronic state is 2-A.
 Alpha  occ. eigenvalues --  -38.44725 -38.44528 -38.44033 -38.43840 -38.43298
 Alpha  occ. eigenvalues --  -38.43252 -38.43181  -2.20510  -2.20313  -2.19818
 Alpha  occ. eigenvalues --   -2.19672  -2.19167  -2.19116  -2.19057  -1.14189
 Alpha  occ. eigenvalues --   -1.14168  -1.14142  -1.13981  -1.13974  -1.13957
 Alpha  occ. eigenvalues --   -1.13498  -1.13476  -1.13457  -1.13346  -1.13337
 Alpha  occ. eigenvalues --   -1.13311  -1.12882  -1.12809  -1.12786  -1.12784
 Alpha  occ. eigenvalues --   -1.12776  -1.12764  -1.12734  -1.12675  -1.12668
 Alpha  occ. eigenvalues --   -0.18060  -0.13068  -0.12212  -0.10049
 Alpha virt. eigenvalues --   -0.06327  -0.05430  -0.04894  -0.03007  -0.02594
 Alpha virt. eigenvalues --   -0.02138  -0.01982  -0.01433  -0.00941  -0.00604
 Alpha virt. eigenvalues --   -0.00012   0.00309   0.00694   0.00733   0.00826

  Beta  occ. eigenvalues --  -38.44720 -38.44527 -38.44031 -38.43835 -38.43295
  Beta  occ. eigenvalues --  -38.43199 -38.43085  -2.20502  -2.20313  -2.19817
  Beta  occ. eigenvalues --   -2.19666  -2.19114  -2.19070  -2.18880  -1.14169
  Beta  occ. eigenvalues --   -1.14160  -1.14141  -1.13978  -1.13965  -1.13956
  Beta  occ. eigenvalues --   -1.13491  -1.13464  -1.13459  -1.13340  -1.13320
  Beta  occ. eigenvalues --   -1.13305  -1.12809  -1.12783  -1.12769  -1.12759
  Beta  occ. eigenvalues --   -1.12730  -1.12712  -1.12615  -1.12552  -1.12541
  Beta  occ. eigenvalues --   -0.17367  -0.12859  -0.12013
  Beta virt. eigenvalues --   -0.06338  -0.06175  -0.05362  -0.04884  -0.02285
  Beta virt. eigenvalues --   -0.01905  -0.01875  -0.01374  -0.01102  -0.00983
  Beta virt. eigenvalues --   -0.00640   0.00150   0.00356   0.00698   0.00795

 Mulliken charges and spin densities:
               1          2
     1  Na   0.032350  -0.150220
     2  Na   0.184663  -0.074265
     3  Na  -0.003947  -0.028473
     4  Na   0.166850  -0.031240
     5  Na  -0.172648   0.480921
     6  Na  -0.318254   0.781247
     7  Na   0.110985   0.022030
 Sum of Mulliken charges =  -0.00000   1.00000

 Dipole moment (field-independent basis, Debye):
    X=             -0.1150    Y=              0.4285    Z=              0.0250  Tot=              0.4444
 Quadrupole moment (field-independent basis, Debye-Ang):
   XX=            -52.9282   YY=            -59.9158   ZZ=            -78.3473
   XY=              0.6589   XZ=             -0.1354   YZ=              0.4966

 Normal termination of Gaussian 16 at Thu Dec  7 22:16:18 2023.
