 Gaussian 16, Revision B.01,
 Gaussian 16:  ES64L-G16RevB.01 20-Dec-2017

 -------------------------
 #P B3LYP/6-311+g(d) force
 -------------------------

 -----
 DPGEN
 -----
 Symbolic Z-matrix:
 Charge =  0 Multiplicity = 2

                         Standard orientation:
 ---------------------------------------------------------------------
 Center     Atomic      Atomic             Coordinates (Angstroms)
 Number     Number       Type             X           Y           Z
 ---------------------------------------------------------------------
      1         11           0       -1.600316   -3.006326   -1.526032
      2         11           0       -3.471775    0.542503   -0.826636
      3         11           0       -2.472311    3.328048   -0.684967
      4         11           0       -1.443857    0.484807    2.579206
      5         11           0       -0.022660   -2.166544    1.028771
      6         11           0        3.407880   -0.624415    0.028475
      7         11           0        5.603040    1.441927   -0.598818
 ---------------------------------------------------------------------

 SCF Done:  E(UB3LYP) =  -1136.10848193     A.U. after   19 cycles

 The electronic state is 2-A.
 Alpha  occ. eigenvalues --  -38.45526 -38.44510 -38.44495 -38.44440 -38.43865
 Alpha  occ. eigenvalues --  -38.43831 -38.43694  -2.21328  -2.20333  -2.20311
 Alpha  occ. eigenvalues --   -2.20260  -2.19674  -2.19655  -2.19485  -1.14979
 Alpha  occ. eigenvalues --   -1.14972  -1.14922  -1.14152  -1.13993  -1.13979
 Alpha  occ. eigenvalues --   -1.13954  -1.13939  -1.13926  -1.13899  -1.13890
 Alpha  occ. eigenvalues --   -1.13856  -1.13365  -1.13345  -1.13338  -1.13331
 Alpha  occ. eigenvalues --   -1.13307  -1.13307  -1.13150  -1.13147  -1.13091
 Alpha  occ. eigenvalues --   -0.16540  -0.13304  -0.12320  -0.11706
 Alpha virt. eigenvalues --   -0.06841  -0.05282  -0.04322  -0.03756  -0.03444
 Alpha virt. eigenvalues --   -0.02309  -0.02017  -0.01695  -0.01133  -0.00904
 Alpha virt. eigenvalues --   -0.00685  -0.00211   0.00168   0.00397   0.00510

  Beta  occ. eigenvalues --  -38.45415 -38.44508 -38.44474 -38.44375 -38.43864
  Beta  occ. eigenvalues --  -38.43826 -38.43695  -2.21124  -2.20317  -2.20286
  Beta  occ. eigenvalues --   -2.20138  -2.19670  -2.19653  -2.19486  -1.14842
  Beta  occ. eigenvalues --   -1.14834  -1.14775  -1.14136  -1.13974  -1.13961
  Beta  occ. eigenvalues --   -1.13940  -1.13924  -1.13853  -1.13839  -1.13816
  Beta  occ. eigenvalues --   -1.13802  -1.13365  -1.13344  -1.13336  -1.13306
  Beta  occ. eigenvalues --   -1.13306  -1.13290  -1.13150  -1.13146  -1.13093
  Beta  occ. eigenvalues --   -0.15750  -0.13247  -0.12053
  Beta virt. eigenvalues --   -0.07857  -0.06564  -0.04973  -0.03880  -0.03518
  Beta virt. eigenvalues --   -0.02763  -0.02012  -0.01873  -0.01666  -0.01049
  Beta virt. eigenvalues --   -0.00606  -0.00358   0.00043   0.00419   0.00480

 Mulliken charges and spin densities:
               1          2
     1  Na   0.439848   0.337879
     2  Na  -0.468913   0.211361
     3  Na   0.177744  -0.029606
     4  Na   0.146279   0.550355
     5  Na  -0.250460  -0.081546
     6  Na  -0.607205   0.017116
     7  Na   0.562707  -0.005559
 Sum of Mulliken charges =  -0.00000   1.00000

 Dipole moment (field-independent basis, Debye):
    X=             -1.1114    Y=              0.9895    Z=              0.0289  Tot=              1.4884
 Quadrupole moment (field-independent basis, Debye-Ang):
   XX=            -69.1886   YY=            -61.6380   ZZ=            -69.0090
   XY=              5.5836   XZ=             -1.2814   YZ=              1.2770

 Normal termination of Gaussian 16 at Mon Dec  4 02:25:43 2023.
