 Gaussian 16, Revision B.01,
 Gaussian 16:  ES64L-G16RevB.01 20-Dec-2017

 -------------------------
 #P B3LYP/6-311+g(d) force
 -------------------------

 -----
 DPGEN
 -----
 Symbolic Z-matrix:
 Charge =  0 Multiplicity = 2

                         Standard orientation:
 ---------------------------------------------------------------------
 Center     Atomic      Atomic             Coordinates (Angstroms)
 Number     Number       Type             X           Y           Z
 ---------------------------------------------------------------------
      1         11           0        3.108624    1.346038   -0.064750
      2         11           0        2.723080   -2.004562   -0.275155
      3         11           0       -2.227609   -2.448329   -0.169290
      4         11           0        0.117368   -0.298108   -1.203248
      5         11           0       -0.547191    2.741634   -0.317734
      6         11           0        0.109948   -0.137285    2.123746
      7         11           0       -3.284219    0.800612   -0.093569
 ---------------------------------------------------------------------

 SCF Done:  E(UB3LYP) =  -1136.12855166     A.U. after   21 cycles

 The electronic state is 2-A.
 Alpha  occ. eigenvalues --  -38.44805 -38.44635 -38.44291 -38.43744 -38.43351
 Alpha  occ. eigenvalues --  -38.43342 -38.42777  -2.20606  -2.20456  -2.20113
 Alpha  occ. eigenvalues --   -2.19555  -2.19336  -2.19219  -2.18631  -1.14280
 Alpha  occ. eigenvalues --   -1.14263  -1.14249  -1.14127  -1.14111  -1.14102
 Alpha  occ. eigenvalues --   -1.13800  -1.13760  -1.13750  -1.13242  -1.13209
 Alpha  occ. eigenvalues --   -1.13200  -1.13070  -1.12999  -1.12946  -1.12882
 Alpha  occ. eigenvalues --   -1.12831  -1.12823  -1.12331  -1.12284  -1.12260
 Alpha  occ. eigenvalues --   -0.18296  -0.13666  -0.11786  -0.10217
 Alpha virt. eigenvalues --   -0.06367  -0.06000  -0.04146  -0.03198  -0.02285
 Alpha virt. eigenvalues --   -0.02261  -0.02207  -0.01585  -0.00860  -0.00360
 Alpha virt. eigenvalues --   -0.00053   0.00235   0.00609   0.00692   0.00851

  Beta  occ. eigenvalues --  -38.44801 -38.44630 -38.44282 -38.43742 -38.43312
  Beta  occ. eigenvalues --  -38.43234 -38.42772  -2.20601  -2.20448  -2.20100
  Beta  occ. eigenvalues --   -2.19555  -2.19284  -2.19002  -2.18624  -1.14264
  Beta  occ. eigenvalues --   -1.14262  -1.14240  -1.14109  -1.14105  -1.14099
  Beta  occ. eigenvalues --   -1.13788  -1.13748  -1.13731  -1.13239  -1.13208
  Beta  occ. eigenvalues --   -1.13189  -1.13007  -1.12963  -1.12910  -1.12740
  Beta  occ. eigenvalues --   -1.12681  -1.12669  -1.12325  -1.12270  -1.12248
  Beta  occ. eigenvalues --   -0.17622  -0.13435  -0.11599
  Beta virt. eigenvalues --   -0.06364  -0.06203  -0.05970  -0.04131  -0.02513
  Beta virt. eigenvalues --   -0.02134  -0.01632  -0.01529  -0.01143  -0.00865
  Beta virt. eigenvalues --   -0.00362   0.00142   0.00309   0.00684   0.00709

 Mulliken charges and spin densities:
               1          2
     1  Na   0.250554   0.059771
     2  Na   0.327855   0.123929
     3  Na   0.305213   0.080234
     4  Na  -0.671313  -0.048099
     5  Na   0.065618   0.046251
     6  Na  -0.498256   0.701990
     7  Na   0.220329   0.035924
 Sum of Mulliken charges =  -0.00000   1.00000

 Dipole moment (field-independent basis, Debye):
    X=              0.3489    Y=             -0.1138    Z=              0.2307  Tot=              0.4335
 Quadrupole moment (field-independent basis, Debye-Ang):
   XX=            -49.4244   YY=            -64.9815   ZZ=            -77.3974
   XY=              0.5499   XZ=             -0.1473   YZ=              0.1610

 Normal termination of Gaussian 16 at Thu Dec  7 14:51:21 2023.
