 Gaussian 16, Revision B.01,
 Gaussian 16:  ES64L-G16RevB.01 20-Dec-2017

 -------------------------
 #P B3LYP/6-311+g(d) force
 -------------------------

 -----
 DPGEN
 -----
 Symbolic Z-matrix:
 Charge =  0 Multiplicity = 2

                         Standard orientation:
 ---------------------------------------------------------------------
 Center     Atomic      Atomic             Coordinates (Angstroms)
 Number     Number       Type             X           Y           Z
 ---------------------------------------------------------------------
      1         11           0       -0.293035   -1.761011   -1.126473
      2         11           0       -3.428900    1.470752   -0.670665
      3         11           0       -2.999869   -1.175679    0.481389
      4         11           0        0.425407   -0.923756    1.552535
      5         11           0       -0.117677    1.941819    0.332033
      6         11           0        3.264339    1.840559   -0.134281
      7         11           0        3.149735   -1.392685   -0.434539
 ---------------------------------------------------------------------

 SCF Done:  E(UB3LYP) =  -1136.11602680     A.U. after   22 cycles

 The electronic state is 2-A.
 Alpha  occ. eigenvalues --  -38.44696 -38.44246 -38.44204 -38.44009 -38.44006
 Alpha  occ. eigenvalues --  -38.43772 -38.43118  -2.20608  -2.20161  -2.20020
 Alpha  occ. eigenvalues --   -2.19877  -2.19874  -2.19771  -2.18999  -1.14335
 Alpha  occ. eigenvalues --   -1.14285  -1.14244  -1.13947  -1.13805  -1.13772
 Alpha  occ. eigenvalues --   -1.13709  -1.13689  -1.13662  -1.13552  -1.13547
 Alpha  occ. eigenvalues --   -1.13519  -1.13505  -1.13490  -1.13489  -1.13454
 Alpha  occ. eigenvalues --   -1.13381  -1.13359  -1.12689  -1.12676  -1.12598
 Alpha  occ. eigenvalues --   -0.18589  -0.14541  -0.11845  -0.10496
 Alpha virt. eigenvalues --   -0.06662  -0.06221  -0.03835  -0.03553  -0.02905
 Alpha virt. eigenvalues --   -0.02469  -0.01673  -0.01493  -0.00765  -0.00248
 Alpha virt. eigenvalues --    0.00049   0.00100   0.00478   0.00614   0.00694

  Beta  occ. eigenvalues --  -38.44677 -38.44242 -38.44192 -38.43968 -38.43962
  Beta  occ. eigenvalues --  -38.43706 -38.43085  -2.20581  -2.20154  -2.20000
  Beta  occ. eigenvalues --   -2.19805  -2.19791  -2.19654  -2.18941  -1.14308
  Beta  occ. eigenvalues --   -1.14272  -1.14192  -1.13919  -1.13803  -1.13770
  Beta  occ. eigenvalues --   -1.13685  -1.13679  -1.13632  -1.13499  -1.13491
  Beta  occ. eigenvalues --   -1.13467  -1.13460  -1.13435  -1.13425  -1.13372
  Beta  occ. eigenvalues --   -1.13295  -1.13278  -1.12644  -1.12620  -1.12570
  Beta  occ. eigenvalues --   -0.18000  -0.13901  -0.11722
  Beta virt. eigenvalues --   -0.06899  -0.06420  -0.06059  -0.03470  -0.03155
  Beta virt. eigenvalues --   -0.02548  -0.02018  -0.01517  -0.01056  -0.00549
  Beta virt. eigenvalues --    0.00009   0.00083   0.00257   0.00513   0.00747

 Mulliken charges and spin densities:
               1          2
     1  Na  -0.178971  -0.056239
     2  Na   0.194477   0.390952
     3  Na   0.670729   0.193761
     4  Na  -0.153401   0.311832
     5  Na  -0.795123  -0.176032
     6  Na   0.082985  -0.046509
     7  Na   0.179304   0.382236
 Sum of Mulliken charges =  -0.00000   1.00000

 Dipole moment (field-independent basis, Debye):
    X=             -0.0376    Y=             -0.4536    Z=              0.3111  Tot=              0.5513
 Quadrupole moment (field-independent basis, Debye-Ang):
   XX=            -62.8760   YY=            -71.1994   ZZ=            -67.4978
   XY=              2.2051   XZ=             -0.3728   YZ=             -2.7349

 Normal termination of Gaussian 16 at Sat Dec  9 07:07:09 2023.
