 Gaussian 16, Revision B.01,
 Gaussian 16:  ES64L-G16RevB.01 20-Dec-2017

 -------------------------
 #P B3LYP/6-311+g(d) force
 -------------------------

 -----
 DPGEN
 -----
 Symbolic Z-matrix:
 Charge =  0 Multiplicity = 2

                         Standard orientation:
 ---------------------------------------------------------------------
 Center     Atomic      Atomic             Coordinates (Angstroms)
 Number     Number       Type             X           Y           Z
 ---------------------------------------------------------------------
      1         11           0        0.672712    0.288984    1.375778
      2         11           0       -0.335752   -2.166761   -0.253436
      3         11           0        3.476517   -0.022967    0.310197
      4         11           0        1.186572    0.343938   -1.461600
      5         11           0       -1.840580   -0.254929   -1.487785
      6         11           0       -1.153370    2.245897   -0.058809
      7         11           0       -2.006099   -0.434163    1.575655
 ---------------------------------------------------------------------

 SCF Done:  E(UB3LYP) =  -1136.09574400     A.U. after   25 cycles

 The electronic state is 2-A.
 Alpha  occ. eigenvalues --  -38.44652 -38.44409 -38.44298 -38.43849 -38.43831
 Alpha  occ. eigenvalues --  -38.42508 -38.42297  -2.20547  -2.20494  -2.20440
 Alpha  occ. eigenvalues --   -2.20059  -2.19973  -2.18587  -2.18309  -1.14394
 Alpha  occ. eigenvalues --   -1.14296  -1.14255  -1.14228  -1.14176  -1.14140
 Alpha  occ. eigenvalues --   -1.14091  -1.14045  -1.13993  -1.13898  -1.13658
 Alpha  occ. eigenvalues --   -1.13631  -1.13619  -1.13543  -1.13524  -1.12308
 Alpha  occ. eigenvalues --   -1.12238  -1.12165  -1.12013  -1.11973  -1.11919
 Alpha  occ. eigenvalues --   -0.20829  -0.13901  -0.12689  -0.11745
 Alpha virt. eigenvalues --   -0.06061  -0.04260  -0.03663  -0.03397  -0.02987
 Alpha virt. eigenvalues --   -0.02852  -0.01665  -0.00609  -0.00287   0.00269
 Alpha virt. eigenvalues --    0.00535   0.00605   0.00886   0.01005   0.01017

  Beta  occ. eigenvalues --  -38.44649 -38.44345 -38.44239 -38.43797 -38.43770
  Beta  occ. eigenvalues --  -38.42494 -38.42289  -2.20541  -2.20380  -2.20336
  Beta  occ. eigenvalues --   -2.19953  -2.19880  -2.18569  -2.18298  -1.14325
  Beta  occ. eigenvalues --   -1.14266  -1.14219  -1.14169  -1.14138  -1.14087
  Beta  occ. eigenvalues --   -1.14012  -1.13965  -1.13913  -1.13832  -1.13579
  Beta  occ. eigenvalues --   -1.13560  -1.13538  -1.13473  -1.13445  -1.12299
  Beta  occ. eigenvalues --   -1.12184  -1.12148  -1.12010  -1.11949  -1.11892
  Beta  occ. eigenvalues --   -0.19967  -0.13771  -0.11424
  Beta virt. eigenvalues --   -0.08267  -0.05941  -0.03672  -0.03408  -0.03280
  Beta virt. eigenvalues --   -0.02145  -0.02028  -0.01551  -0.00279  -0.00219
  Beta virt. eigenvalues --    0.00304   0.00618   0.00784   0.00868   0.01014

 Mulliken charges and spin densities:
               1          2
     1  Na   0.431756   0.506421
     2  Na  -0.815944  -0.068248
     3  Na  -0.101261  -0.011144
     4  Na   0.045333   0.187948
     5  Na   1.016959   0.260584
     6  Na  -0.926519   0.117245
     7  Na   0.349677   0.007194
 Sum of Mulliken charges =  -0.00000   1.00000

 Dipole moment (field-independent basis, Debye):
    X=              0.5435    Y=             -0.0235    Z=              0.0865  Tot=              0.5509
 Quadrupole moment (field-independent basis, Debye-Ang):
   XX=            -54.0742   YY=            -75.7670   ZZ=            -64.7862
   XY=             -0.7251   XZ=              0.1960   YZ=             -1.3142

 Normal termination of Gaussian 16 at Tue Dec  5 23:17:03 2023.
