 Gaussian 16, Revision B.01,
 Gaussian 16:  ES64L-G16RevB.01 20-Dec-2017

 -------------------------
 #P B3LYP/6-311+g(d) force
 -------------------------

 -----
 DPGEN
 -----
 Symbolic Z-matrix:
 Charge =  0 Multiplicity = 2

                         Standard orientation:
 ---------------------------------------------------------------------
 Center     Atomic      Atomic             Coordinates (Angstroms)
 Number     Number       Type             X           Y           Z
 ---------------------------------------------------------------------
      1         11           0       -2.519111   -1.427820   -0.641713
      2         11           0       -0.127095   -0.042124    2.013403
      3         11           0        3.072217   -0.447607    0.101478
      4         11           0       -2.472386    1.598399    0.303399
      5         11           0        1.068411    2.872978   -0.190857
      6         11           0        0.520528   -2.797445    0.110598
      7         11           0        0.457436    0.243618   -1.696308
 ---------------------------------------------------------------------

 SCF Done:  E(UB3LYP) =  -1136.13802363     A.U. after   19 cycles

 The electronic state is 2-A.
 Alpha  occ. eigenvalues --  -38.44065 -38.43647 -38.43645 -38.43620 -38.43459
 Alpha  occ. eigenvalues --  -38.43273 -38.43261  -2.19905  -2.19556  -2.19512
 Alpha  occ. eigenvalues --   -2.19457  -2.19334  -2.19250  -2.19133  -1.13600
 Alpha  occ. eigenvalues --   -1.13567  -1.13531  -1.13256  -1.13213  -1.13209
 Alpha  occ. eigenvalues --   -1.13202  -1.13179  -1.13149  -1.13137  -1.13108
 Alpha  occ. eigenvalues --   -1.13074  -1.13004  -1.12982  -1.12969  -1.12917
 Alpha  occ. eigenvalues --   -1.12877  -1.12867  -1.12808  -1.12792  -1.12762
 Alpha  occ. eigenvalues --   -0.18792  -0.13012  -0.12532  -0.10960
 Alpha virt. eigenvalues --   -0.05588  -0.04921  -0.04695  -0.03310  -0.03025
 Alpha virt. eigenvalues --   -0.02656  -0.01388  -0.01106  -0.00278  -0.00159
 Alpha virt. eigenvalues --    0.00017   0.00373   0.00865   0.00892   0.00946

  Beta  occ. eigenvalues --  -38.44062 -38.43640 -38.43616 -38.43554 -38.43443
  Beta  occ. eigenvalues --  -38.43256 -38.43209  -2.19902  -2.19502  -2.19453
  Beta  occ. eigenvalues --   -2.19387  -2.19306  -2.19134  -2.19126  -1.13593
  Beta  occ. eigenvalues --   -1.13553  -1.13528  -1.13223  -1.13187  -1.13171
  Beta  occ. eigenvalues --   -1.13136  -1.13108  -1.13097  -1.13073  -1.13061
  Beta  occ. eigenvalues --   -1.13044  -1.12978  -1.12964  -1.12941  -1.12844
  Beta  occ. eigenvalues --   -1.12812  -1.12792  -1.12782  -1.12765  -1.12751
  Beta  occ. eigenvalues --   -0.18059  -0.12772  -0.12270
  Beta virt. eigenvalues --   -0.07054  -0.05578  -0.04832  -0.04669  -0.02529
  Beta virt. eigenvalues --   -0.02246  -0.01616  -0.01308  -0.01032  -0.00289
  Beta virt. eigenvalues --   -0.00189   0.00126   0.00396   0.00858   0.00920

 Mulliken charges and spin densities:
               1          2
     1  Na   0.027967   0.047636
     2  Na  -0.328124   0.644745
     3  Na   0.083425  -0.105168
     4  Na   0.153106   0.021447
     5  Na   0.058756  -0.127872
     6  Na   0.144691   0.019839
     7  Na  -0.139821   0.499373
 Sum of Mulliken charges =  -0.00000   1.00000

 Dipole moment (field-independent basis, Debye):
    X=              0.3190    Y=              0.1349    Z=              0.1541  Tot=              0.3791
 Quadrupole moment (field-independent basis, Debye-Ang):
   XX=            -58.5793   YY=            -62.4073   ZZ=            -73.1604
   XY=             -0.2443   XZ=              1.3921   YZ=              0.9207

 Normal termination of Gaussian 16 at Wed Nov 29 17:06:39 2023.
