 Gaussian 16, Revision B.01,
 Gaussian 16:  ES64L-G16RevB.01 20-Dec-2017

 -------------------------
 #P B3LYP/6-311+g(d) force
 -------------------------

 -----
 DPGEN
 -----
 Symbolic Z-matrix:
 Charge =  0 Multiplicity = 2

                         Standard orientation:
 ---------------------------------------------------------------------
 Center     Atomic      Atomic             Coordinates (Angstroms)
 Number     Number       Type             X           Y           Z
 ---------------------------------------------------------------------
      1         11           0       -4.598216   -0.752609    0.074470
      2         11           0        1.218913    1.692632   -1.169676
      3         11           0       -2.141934    2.127643   -0.093219
      4         11           0        0.258825    0.222940    2.188811
      5         11           0       -1.467939   -1.394070   -0.762545
      6         11           0        1.793257   -2.001599   -0.336165
      7         11           0        4.937094    0.105064    0.098324
 ---------------------------------------------------------------------

 SCF Done:  E(UB3LYP) =  -1136.11342971     A.U. after   27 cycles

 The electronic state is 2-A.
 Alpha  occ. eigenvalues --  -38.46628 -38.44826 -38.44490 -38.43678 -38.43328
 Alpha  occ. eigenvalues --  -38.43273 -38.43239  -2.22406  -2.20605  -2.20273
 Alpha  occ. eigenvalues --   -2.19485  -2.19149  -2.19143  -2.19073  -1.16073
 Alpha  occ. eigenvalues --   -1.16046  -1.16016  -1.14255  -1.14242  -1.14207
 Alpha  occ. eigenvalues --   -1.13986  -1.13936  -1.13883  -1.13143  -1.13140
 Alpha  occ. eigenvalues --   -1.13120  -1.12855  -1.12840  -1.12833  -1.12823
 Alpha  occ. eigenvalues --   -1.12792  -1.12759  -1.12746  -1.12729  -1.12686
 Alpha  occ. eigenvalues --   -0.17616  -0.13775  -0.11113  -0.11023
 Alpha virt. eigenvalues --   -0.07786  -0.05145  -0.04610  -0.03144  -0.03064
 Alpha virt. eigenvalues --   -0.02266  -0.02137  -0.01872  -0.01418  -0.00855
 Alpha virt. eigenvalues --   -0.00355   0.00117   0.00324   0.00537   0.00655

  Beta  occ. eigenvalues --  -38.46580 -38.44725 -38.44499 -38.43640 -38.43324
  Beta  occ. eigenvalues --  -38.43261 -38.43228  -2.22317  -2.20416  -2.20290
  Beta  occ. eigenvalues --   -2.19414  -2.19140  -2.19127  -2.19059  -1.16018
  Beta  occ. eigenvalues --   -1.15981  -1.15950  -1.14126  -1.14112  -1.14084
  Beta  occ. eigenvalues --   -1.13994  -1.13946  -1.13895  -1.13098  -1.13093
  Beta  occ. eigenvalues --   -1.13068  -1.12852  -1.12837  -1.12827  -1.12796
  Beta  occ. eigenvalues --   -1.12781  -1.12739  -1.12732  -1.12717  -1.12645
  Beta  occ. eigenvalues --   -0.17145  -0.13017  -0.10852
  Beta virt. eigenvalues --   -0.07728  -0.07385  -0.04921  -0.03999  -0.02981
  Beta virt. eigenvalues --   -0.02891  -0.02027  -0.01906  -0.01357  -0.01039
  Beta virt. eigenvalues --   -0.00482  -0.00230   0.00205   0.00448   0.00615

 Mulliken charges and spin densities:
               1          2
     1  Na   0.434098   0.162784
     2  Na  -0.111800   0.015529
     3  Na   0.028845   0.137760
     4  Na   0.162458   0.099998
     5  Na  -0.443107  -0.016240
     6  Na  -0.146687   0.054419
     7  Na   0.076193   0.545750
 Sum of Mulliken charges =  -0.00000   1.00000

 Dipole moment (field-independent basis, Debye):
    X=              0.3854    Y=              0.5797    Z=              1.6329  Tot=              1.7750
 Quadrupole moment (field-independent basis, Debye-Ang):
   XX=            -64.7211   YY=            -79.7583   ZZ=            -59.6252
   XY=             -1.5940   XZ=             -0.7196   YZ=             -1.1241

 Normal termination of Gaussian 16 at Thu Dec  7 11:32:11 2023.
