 Gaussian 16, Revision B.01,
 Gaussian 16:  ES64L-G16RevB.01 20-Dec-2017

 -------------------------
 #P B3LYP/6-311+g(d) force
 -------------------------

 -----
 DPGEN
 -----
 Symbolic Z-matrix:
 Charge =  0 Multiplicity = 2

                         Standard orientation:
 ---------------------------------------------------------------------
 Center     Atomic      Atomic             Coordinates (Angstroms)
 Number     Number       Type             X           Y           Z
 ---------------------------------------------------------------------
      1         11           0        0.289654    0.659513    1.054833
      2         11           0        6.253388   -0.185410    1.018264
      3         11           0        3.840475    0.069249   -0.995315
      4         11           0        0.611618   -1.984408   -0.979638
      5         11           0       -3.268771   -0.643809    0.184377
      6         11           0       -1.523491    2.723405   -0.726858
      7         11           0       -6.202874   -0.638539    0.444336
 ---------------------------------------------------------------------

 SCF Done:  E(UB3LYP) =  -1136.10953367     A.U. after   21 cycles

 The electronic state is 2-A.
 Alpha  occ. eigenvalues --  -38.45517 -38.45327 -38.44991 -38.44109 -38.44007
 Alpha  occ. eigenvalues --  -38.43076 -38.43025  -2.21328  -2.21146  -2.20824
 Alpha  occ. eigenvalues --   -2.19901  -2.19809  -2.18931  -2.18837  -1.14975
 Alpha  occ. eigenvalues --   -1.14958  -1.14947  -1.14800  -1.14772  -1.14765
 Alpha  occ. eigenvalues --   -1.14507  -1.14478  -1.14466  -1.13602  -1.13551
 Alpha  occ. eigenvalues --   -1.13549  -1.13487  -1.13467  -1.13411  -1.12713
 Alpha  occ. eigenvalues --   -1.12612  -1.12594  -1.12478  -1.12476  -1.12403
 Alpha  occ. eigenvalues --   -0.16945  -0.13753  -0.11744  -0.11630
 Alpha virt. eigenvalues --   -0.06524  -0.06195  -0.04267  -0.03557  -0.02961
 Alpha virt. eigenvalues --   -0.02618  -0.01926  -0.01720  -0.01495  -0.00856
 Alpha virt. eigenvalues --   -0.00572  -0.00182  -0.00007   0.00271   0.00503

  Beta  occ. eigenvalues --  -38.45423 -38.45233 -38.44992 -38.44078 -38.44012
  Beta  occ. eigenvalues --  -38.43071 -38.43031  -2.21155  -2.20971  -2.20833
  Beta  occ. eigenvalues --   -2.19844  -2.19821  -2.18922  -2.18848  -1.14853
  Beta  occ. eigenvalues --   -1.14845  -1.14830  -1.14681  -1.14661  -1.14645
  Beta  occ. eigenvalues --   -1.14507  -1.14486  -1.14436  -1.13576  -1.13516
  Beta  occ. eigenvalues --   -1.13512  -1.13493  -1.13472  -1.13394  -1.12717
  Beta  occ. eigenvalues --   -1.12606  -1.12576  -1.12486  -1.12483  -1.12409
  Beta  occ. eigenvalues --   -0.16272  -0.13381  -0.11355
  Beta virt. eigenvalues --   -0.08155  -0.06202  -0.05779  -0.03879  -0.03285
  Beta virt. eigenvalues --   -0.02513  -0.02327  -0.01599  -0.01423  -0.01367
  Beta virt. eigenvalues --   -0.00732  -0.00409   0.00108   0.00196   0.00355

 Mulliken charges and spin densities:
               1          2
     1  Na  -0.201536   0.162640
     2  Na   0.067878   0.152327
     3  Na  -0.168942  -0.081707
     4  Na   0.651843   0.463936
     5  Na  -0.501261  -0.062082
     6  Na   0.444366   0.380941
     7  Na  -0.292348  -0.016055
 Sum of Mulliken charges =  -0.00000   1.00000

 Dipole moment (field-independent basis, Debye):
    X=              1.0588    Y=              0.7046    Z=             -0.3795  Tot=              1.3272
 Quadrupole moment (field-independent basis, Debye-Ang):
   XX=            -76.9668   YY=            -67.8821   ZZ=            -64.7990
   XY=             -5.4073   XZ=              5.6393   YZ=             -1.2234

 Normal termination of Gaussian 16 at Tue Nov 28 23:09:43 2023.
