 Gaussian 16, Revision B.01,
 Gaussian 16:  ES64L-G16RevB.01 20-Dec-2017

 -------------------------
 #P B3LYP/6-311+g(d) force
 -------------------------

 -----
 DPGEN
 -----
 Symbolic Z-matrix:
 Charge =  0 Multiplicity = 2

                         Standard orientation:
 ---------------------------------------------------------------------
 Center     Atomic      Atomic             Coordinates (Angstroms)
 Number     Number       Type             X           Y           Z
 ---------------------------------------------------------------------
      1         11           0        2.131151   -2.127803   -1.046398
      2         11           0       -0.608181   -1.708049    1.727595
      3         11           0        1.522121    2.692930   -0.581712
      4         11           0       -1.008684   -0.041539   -1.524115
      5         11           0       -1.497740    2.157447    0.917693
      6         11           0       -3.389285   -0.858973   -0.409973
      7         11           0        2.850619   -0.114014    0.916910
 ---------------------------------------------------------------------

 SCF Done:  E(UB3LYP) =  -1136.12188476     A.U. after   19 cycles

 The electronic state is 2-A.
 Alpha  occ. eigenvalues --  -38.44645 -38.44433 -38.44060 -38.44028 -38.43884
 Alpha  occ. eigenvalues --  -38.43673 -38.43275  -2.20529  -2.20294  -2.19907
 Alpha  occ. eigenvalues --   -2.19859  -2.19710  -2.19648  -2.19088  -1.14367
 Alpha  occ. eigenvalues --   -1.14142  -1.14135  -1.14072  -1.13937  -1.13926
 Alpha  occ. eigenvalues --   -1.13557  -1.13556  -1.13547  -1.13524  -1.13524
 Alpha  occ. eigenvalues --   -1.13475  -1.13384  -1.13362  -1.13318  -1.13302
 Alpha  occ. eigenvalues --   -1.13282  -1.13243  -1.12759  -1.12750  -1.12732
 Alpha  occ. eigenvalues --   -0.18150  -0.13694  -0.12074  -0.10628
 Alpha virt. eigenvalues --   -0.06095  -0.05606  -0.04482  -0.03711  -0.02953
 Alpha virt. eigenvalues --   -0.02380  -0.01741  -0.00950  -0.00686  -0.00160
 Alpha virt. eigenvalues --    0.00078   0.00196   0.00510   0.00649   0.00727

  Beta  occ. eigenvalues --  -38.44634 -38.44430 -38.44044 -38.44010 -38.43815
  Beta  occ. eigenvalues --  -38.43616 -38.43276  -2.20515  -2.20291  -2.19879
  Beta  occ. eigenvalues --   -2.19828  -2.19583  -2.19546  -2.19091  -1.14343
  Beta  occ. eigenvalues --   -1.14135  -1.14107  -1.14067  -1.13930  -1.13917
  Beta  occ. eigenvalues --   -1.13541  -1.13536  -1.13523  -1.13498  -1.13488
  Beta  occ. eigenvalues --   -1.13455  -1.13299  -1.13266  -1.13234  -1.13228
  Beta  occ. eigenvalues --   -1.13201  -1.13171  -1.12759  -1.12748  -1.12733
  Beta  occ. eigenvalues --   -0.17495  -0.13513  -0.11899
  Beta virt. eigenvalues --   -0.06864  -0.05922  -0.05472  -0.04215  -0.03127
  Beta virt. eigenvalues --   -0.02416  -0.01687  -0.01499  -0.00887  -0.00497
  Beta virt. eigenvalues --   -0.00046   0.00179   0.00334   0.00645   0.00755

 Mulliken charges and spin densities:
               1          2
     1  Na   0.101118  -0.008614
     2  Na  -0.527645   0.393993
     3  Na   0.079918  -0.107481
     4  Na  -0.682973   0.149453
     5  Na  -0.147438   0.194313
     6  Na   0.990121   0.178246
     7  Na   0.186899   0.200090
 Sum of Mulliken charges =  -0.00000   1.00000

 Dipole moment (field-independent basis, Debye):
    X=             -0.3501    Y=             -0.1978    Z=              0.2930  Tot=              0.4975
 Quadrupole moment (field-independent basis, Debye-Ang):
   XX=            -55.2382   YY=            -69.0301   ZZ=            -71.6950
   XY=              0.6774   XZ=             -1.3579   YZ=              1.5203

 Normal termination of Gaussian 16 at Tue Dec  5 14:17:51 2023.
