 Gaussian 16, Revision B.01,
 Gaussian 16:  ES64L-G16RevB.01 20-Dec-2017

 -------------------------
 #P B3LYP/6-311+g(d) force
 -------------------------

 -----
 DPGEN
 -----
 Symbolic Z-matrix:
 Charge =  0 Multiplicity = 2

                         Standard orientation:
 ---------------------------------------------------------------------
 Center     Atomic      Atomic             Coordinates (Angstroms)
 Number     Number       Type             X           Y           Z
 ---------------------------------------------------------------------
      1         11           0        1.825528    2.414421   -0.302147
      2         11           0        0.549862   -2.635802   -0.102650
      3         11           0       -0.265252    0.034567   -1.817125
      4         11           0        3.223746   -0.786388    0.180418
      5         11           0       -1.990241    2.217135    0.258405
      6         11           0       -3.231001   -1.237359   -0.083231
      7         11           0       -0.112641   -0.006574    1.866330
 ---------------------------------------------------------------------

 SCF Done:  E(UB3LYP) =  -1136.13596747     A.U. after   21 cycles

 The electronic state is 2-A.
 Alpha  occ. eigenvalues --  -38.44576 -38.44262 -38.43732 -38.43503 -38.43408
 Alpha  occ. eigenvalues --  -38.43370 -38.43087  -2.20354  -2.20084  -2.19572
 Alpha  occ. eigenvalues --   -2.19417  -2.19298  -2.19225  -2.18970  -1.14030
 Alpha  occ. eigenvalues --   -1.14006  -1.13996  -1.13753  -1.13746  -1.13732
 Alpha  occ. eigenvalues --   -1.13276  -1.13248  -1.13188  -1.13102  -1.13052
 Alpha  occ. eigenvalues --   -1.13025  -1.12987  -1.12949  -1.12923  -1.12890
 Alpha  occ. eigenvalues --   -1.12879  -1.12859  -1.12658  -1.12638  -1.12585
 Alpha  occ. eigenvalues --   -0.18494  -0.13163  -0.12125  -0.10630
 Alpha virt. eigenvalues --   -0.06110  -0.05403  -0.04256  -0.03238  -0.02741
 Alpha virt. eigenvalues --   -0.02482  -0.01948  -0.01239  -0.00445  -0.00228
 Alpha virt. eigenvalues --   -0.00040   0.00319   0.00716   0.00833   0.00883

  Beta  occ. eigenvalues --  -38.44575 -38.44262 -38.43722 -38.43422 -38.43402
  Beta  occ. eigenvalues --  -38.43291 -38.43079  -2.20355  -2.20085  -2.19559
  Beta  occ. eigenvalues --   -2.19269  -2.19217  -2.19154  -2.18959  -1.14019
  Beta  occ. eigenvalues --   -1.14004  -1.13999  -1.13756  -1.13737  -1.13728
  Beta  occ. eigenvalues --   -1.13259  -1.13216  -1.13183  -1.13004  -1.12948
  Beta  occ. eigenvalues --   -1.12920  -1.12902  -1.12886  -1.12872  -1.12859
  Beta  occ. eigenvalues --   -1.12837  -1.12793  -1.12650  -1.12602  -1.12577
  Beta  occ. eigenvalues --   -0.17760  -0.12955  -0.11867
  Beta virt. eigenvalues --   -0.06744  -0.06057  -0.05391  -0.04235  -0.02485
  Beta virt. eigenvalues --   -0.01971  -0.01860  -0.01429  -0.01175  -0.00486
  Beta virt. eigenvalues --   -0.00267   0.00098   0.00339   0.00778   0.00827

 Mulliken charges and spin densities:
               1          2
     1  Na   0.057869  -0.078733
     2  Na   0.153769  -0.126021
     3  Na  -0.211874   0.759192
     4  Na   0.033786  -0.032929
     5  Na   0.095690  -0.088596
     6  Na   0.102931  -0.123952
     7  Na  -0.232170   0.691039
 Sum of Mulliken charges =  -0.00000   1.00000

 Dipole moment (field-independent basis, Debye):
    X=             -0.3133    Y=             -0.0510    Z=              0.0653  Tot=              0.3241
 Quadrupole moment (field-independent basis, Debye-Ang):
   XX=            -51.6043   YY=            -65.6871   ZZ=            -75.0912
   XY=              0.6643   XZ=              0.0219   YZ=              0.0089

 Normal termination of Gaussian 16 at Thu Dec  7 14:25:16 2023.
