 Gaussian 16, Revision B.01,
 Gaussian 16:  ES64L-G16RevB.01 20-Dec-2017

 -------------------------
 #P B3LYP/6-311+g(d) force
 -------------------------

 -----
 DPGEN
 -----
 Symbolic Z-matrix:
 Charge =  0 Multiplicity = 2

                         Standard orientation:
 ---------------------------------------------------------------------
 Center     Atomic      Atomic             Coordinates (Angstroms)
 Number     Number       Type             X           Y           Z
 ---------------------------------------------------------------------
      1         11           0       -0.232302   -2.283777   -0.151568
      2         11           0       -0.472220    0.181021   -1.651410
      3         11           0       -3.797824   -0.674080   -0.338802
      4         11           0        2.500918   -0.243797    0.282944
      5         11           0       -2.305429    2.324006   -0.169424
      6         11           0       -1.110679    0.124313    2.173356
      7         11           0        5.417536    0.572315   -0.145096
 ---------------------------------------------------------------------

 SCF Done:  E(UB3LYP) =  -1136.10723433     A.U. after   29 cycles

 The electronic state is 2-A.
 Alpha  occ. eigenvalues --  -38.46688 -38.44865 -38.44235 -38.43985 -38.43674
 Alpha  occ. eigenvalues --  -38.42940 -38.42634  -2.22485  -2.20833  -2.20121
 Alpha  occ. eigenvalues --   -2.19777  -2.19548  -2.18815  -2.18570  -1.16161
 Alpha  occ. eigenvalues --   -1.16131  -1.16117  -1.14536  -1.14499  -1.14435
 Alpha  occ. eigenvalues --   -1.13788  -1.13758  -1.13717  -1.13467  -1.13423
 Alpha  occ. eigenvalues --   -1.13421  -1.13253  -1.13196  -1.13178  -1.12511
 Alpha  occ. eigenvalues --   -1.12490  -1.12444  -1.12290  -1.12204  -1.12192
 Alpha  occ. eigenvalues --   -0.18763  -0.13637  -0.11355  -0.11190
 Alpha virt. eigenvalues --   -0.08338  -0.04546  -0.03995  -0.03495  -0.03204
 Alpha virt. eigenvalues --   -0.02588  -0.02368  -0.01425  -0.01094  -0.00830
 Alpha virt. eigenvalues --   -0.00278   0.00089   0.00129   0.00570   0.00894

  Beta  occ. eigenvalues --  -38.46675 -38.44807 -38.44125 -38.43978 -38.43673
  Beta  occ. eigenvalues --  -38.42937 -38.42627  -2.22464  -2.20728  -2.19918
  Beta  occ. eigenvalues --   -2.19765  -2.19550  -2.18812  -2.18563  -1.16127
  Beta  occ. eigenvalues --   -1.16112  -1.16107  -1.14465  -1.14425  -1.14354
  Beta  occ. eigenvalues --   -1.13651  -1.13625  -1.13569  -1.13460  -1.13415
  Beta  occ. eigenvalues --   -1.13413  -1.13258  -1.13184  -1.13160  -1.12510
  Beta  occ. eigenvalues --   -1.12478  -1.12439  -1.12278  -1.12200  -1.12165
  Beta  occ. eigenvalues --   -0.18016  -0.13423  -0.11064
  Beta virt. eigenvalues --   -0.08209  -0.07239  -0.04413  -0.04007  -0.02836
  Beta virt. eigenvalues --   -0.02819  -0.01859  -0.01673  -0.01287  -0.01001
  Beta virt. eigenvalues --   -0.00628  -0.00281   0.00110   0.00339   0.00637

 Mulliken charges and spin densities:
               1          2
     1  Na   0.632063  -0.068898
     2  Na   0.176700   0.361752
     3  Na   0.107013   0.047805
     4  Na  -0.488059  -0.006741
     5  Na   0.219552   0.011983
     6  Na  -0.075087   0.569204
     7  Na  -0.572182   0.084897
 Sum of Mulliken charges =  -0.00000   1.00000

 Dipole moment (field-independent basis, Debye):
    X=             -2.3640    Y=             -0.6952    Z=             -0.1244  Tot=              2.4672
 Quadrupole moment (field-independent basis, Debye-Ang):
   XX=            -54.8898   YY=            -69.6984   ZZ=            -73.1055
   XY=              7.6486   XZ=             -1.0327   YZ=             -1.2887

 Normal termination of Gaussian 16 at Tue Dec  5 11:05:18 2023.
