 Gaussian 16, Revision B.01,
 Gaussian 16:  ES64L-G16RevB.01 20-Dec-2017

 -------------------------
 #P B3LYP/6-311+g(d) force
 -------------------------

 -----
 DPGEN
 -----
 Symbolic Z-matrix:
 Charge =  0 Multiplicity = 2

                         Standard orientation:
 ---------------------------------------------------------------------
 Center     Atomic      Atomic             Coordinates (Angstroms)
 Number     Number       Type             X           Y           Z
 ---------------------------------------------------------------------
      1         11           0       -1.511612    2.459340    0.220145
      2         11           0       -0.255299   -0.033243   -1.699359
      3         11           0       -2.885973   -1.141123    0.061749
      4         11           0        0.137450   -2.686996   -0.196808
      5         11           0        1.666011    2.192599   -0.482584
      6         11           0        2.900958   -0.985093    0.344196
      7         11           0       -0.051535    0.194514    1.752660
 ---------------------------------------------------------------------

 SCF Done:  E(UB3LYP) =  -1136.13739429     A.U. after   19 cycles

 The electronic state is 2-A.
 Alpha  occ. eigenvalues --  -38.43701 -38.43514 -38.43467 -38.43418 -38.43351
 Alpha  occ. eigenvalues --  -38.43183 -38.43141  -2.19553  -2.19421  -2.19331
 Alpha  occ. eigenvalues --   -2.19324  -2.19275  -2.19186  -2.19174  -1.13234
 Alpha  occ. eigenvalues --   -1.13224  -1.13194  -1.13168  -1.13103  -1.13058
 Alpha  occ. eigenvalues --   -1.13055  -1.13044  -1.13007  -1.13003  -1.12981
 Alpha  occ. eigenvalues --   -1.12964  -1.12936  -1.12924  -1.12865  -1.12864
 Alpha  occ. eigenvalues --   -1.12817  -1.12802  -1.12786  -1.12775  -1.12770
 Alpha  occ. eigenvalues --   -0.19307  -0.13007  -0.12846  -0.10864
 Alpha virt. eigenvalues --   -0.05248  -0.05014  -0.04726  -0.03132  -0.02996
 Alpha virt. eigenvalues --   -0.02410  -0.01370  -0.01124  -0.00147  -0.00023
 Alpha virt. eigenvalues --    0.00086   0.00361   0.00888   0.00921   0.00956

  Beta  occ. eigenvalues --  -38.43698 -38.43504 -38.43461 -38.43402 -38.43342
  Beta  occ. eigenvalues --  -38.43104 -38.43063  -2.19551  -2.19409  -2.19317
  Beta  occ. eigenvalues --   -2.19307  -2.19264  -2.19043  -2.19033  -1.13231
  Beta  occ. eigenvalues --   -1.13212  -1.13184  -1.13152  -1.13062  -1.13050
  Beta  occ. eigenvalues --   -1.13039  -1.13020  -1.12991  -1.12977  -1.12955
  Beta  occ. eigenvalues --   -1.12941  -1.12914  -1.12906  -1.12859  -1.12780
  Beta  occ. eigenvalues --   -1.12724  -1.12704  -1.12685  -1.12682  -1.12670
  Beta  occ. eigenvalues --   -0.18576  -0.12714  -0.12584
  Beta virt. eigenvalues --   -0.06916  -0.05240  -0.04983  -0.04712  -0.02292
  Beta virt. eigenvalues --   -0.02234  -0.01363  -0.01290  -0.01047  -0.00137
  Beta virt. eigenvalues --   -0.00064   0.00159   0.00378   0.00910   0.00920

 Mulliken charges and spin densities:
               1          2
     1  Na   0.178898  -0.077384
     2  Na  -0.179854   0.500680
     3  Na   0.016842  -0.116540
     4  Na   0.171979  -0.037169
     5  Na   0.197352   0.037751
     6  Na   0.001393  -0.028412
     7  Na  -0.386610   0.721076
 Sum of Mulliken charges =  -0.00000   1.00000

 Dipole moment (field-independent basis, Debye):
    X=             -0.1884    Y=              0.0351    Z=              0.0769  Tot=              0.2065
 Quadrupole moment (field-independent basis, Debye-Ang):
   XX=            -57.4381   YY=            -61.6861   ZZ=            -74.0275
   XY=              0.0632   XZ=             -0.4198   YZ=             -0.5697

 Normal termination of Gaussian 16 at Thu Dec  7 12:44:49 2023.
