 Gaussian 16, Revision B.01,
 Gaussian 16:  ES64L-G16RevB.01 20-Dec-2017

 -------------------------
 #P B3LYP/6-311+g(d) force
 -------------------------

 -----
 DPGEN
 -----
 Symbolic Z-matrix:
 Charge =  0 Multiplicity = 2

                         Standard orientation:
 ---------------------------------------------------------------------
 Center     Atomic      Atomic             Coordinates (Angstroms)
 Number     Number       Type             X           Y           Z
 ---------------------------------------------------------------------
      1         11           0       -0.075691    0.511070    2.570349
      2         11           0       -1.781376    1.097918   -1.950096
      3         11           0       -1.454777   -1.952495   -1.416931
      4         11           0        0.059521    3.035751    0.069404
      5         11           0       -2.217283   -1.602420    1.530627
      6         11           0        1.526939    0.117085   -0.503545
      7         11           0        3.942667   -1.206910   -0.299807
 ---------------------------------------------------------------------

 SCF Done:  E(UB3LYP) =  -1136.11278632     A.U. after   27 cycles

 The electronic state is 2-A.
 Alpha  occ. eigenvalues --  -38.45787 -38.44304 -38.44213 -38.44194 -38.43784
 Alpha  occ. eigenvalues --  -38.43223 -38.42897  -2.21648  -2.20168  -2.20086
 Alpha  occ. eigenvalues --   -2.20075  -2.19630  -2.19079  -2.18880  -1.15316
 Alpha  occ. eigenvalues --   -1.15276  -1.15256  -1.13899  -1.13858  -1.13842
 Alpha  occ. eigenvalues --   -1.13798  -1.13736  -1.13719  -1.13705  -1.13665
 Alpha  occ. eigenvalues --   -1.13650  -1.13450  -1.13240  -1.13239  -1.12759
 Alpha  occ. eigenvalues --   -1.12740  -1.12717  -1.12548  -1.12522  -1.12489
 Alpha  occ. eigenvalues --   -0.18335  -0.13038  -0.12905  -0.11878
 Alpha virt. eigenvalues --   -0.05634  -0.05143  -0.04757  -0.03731  -0.03184
 Alpha virt. eigenvalues --   -0.02970  -0.01288  -0.00838  -0.00718  -0.00107
 Alpha virt. eigenvalues --    0.00112   0.00245   0.00502   0.00610   0.00835

  Beta  occ. eigenvalues --  -38.45682 -38.44271 -38.44182 -38.44168 -38.43761
  Beta  occ. eigenvalues --  -38.43218 -38.42881  -2.21456  -2.20111  -2.20039
  Beta  occ. eigenvalues --   -2.20020  -2.19588  -2.19070  -2.18855  -1.15183
  Beta  occ. eigenvalues --   -1.15145  -1.15112  -1.13863  -1.13808  -1.13786
  Beta  occ. eigenvalues --   -1.13762  -1.13696  -1.13685  -1.13672  -1.13632
  Beta  occ. eigenvalues --   -1.13608  -1.13418  -1.13212  -1.13211  -1.12755
  Beta  occ. eigenvalues --   -1.12727  -1.12708  -1.12518  -1.12500  -1.12470
  Beta  occ. eigenvalues --   -0.17527  -0.12698  -0.11648
  Beta virt. eigenvalues --   -0.08943  -0.05318  -0.04697  -0.04096  -0.03229
  Beta virt. eigenvalues --   -0.02994  -0.02506  -0.01154  -0.00795  -0.00404
  Beta virt. eigenvalues --    0.00108   0.00295   0.00371   0.00645   0.00744

 Mulliken charges and spin densities:
               1          2
     1  Na   0.360542   0.624112
     2  Na   0.884688   0.038829
     3  Na   0.505287   0.354870
     4  Na   1.563348  -0.184145
     5  Na  -0.501014  -0.119779
     6  Na  -1.996888   0.074951
     7  Na  -0.815962   0.211163
 Sum of Mulliken charges =  -0.00000   1.00000

 Dipole moment (field-independent basis, Debye):
    X=             -0.8766    Y=              0.0962    Z=              0.5700  Tot=              1.0500
 Quadrupole moment (field-independent basis, Debye-Ang):
   XX=            -67.2667   YY=            -68.4035   ZZ=            -62.3022
   XY=             -0.3603   XZ=              0.8741   YZ=              2.9742

 Normal termination of Gaussian 16 at Fri Dec  8 18:17:59 2023.
