 Gaussian 16, Revision B.01,
 Gaussian 16:  ES64L-G16RevB.01 20-Dec-2017

 -------------------------
 #P B3LYP/6-311+g(d) force
 -------------------------

 -----
 DPGEN
 -----
 Symbolic Z-matrix:
 Charge =  0 Multiplicity = 2

                         Standard orientation:
 ---------------------------------------------------------------------
 Center     Atomic      Atomic             Coordinates (Angstroms)
 Number     Number       Type             X           Y           Z
 ---------------------------------------------------------------------
      1         11           0       -3.984923   -1.258415   -0.358771
      2         11           0        1.273539    2.052538    0.256360
      3         11           0       -0.917941    0.015702    2.121452
      4         11           0        0.038174   -0.912918   -1.407502
      5         11           0       -2.097229    2.038536   -0.583149
      6         11           0        3.777026    0.211819   -0.495154
      7         11           0        1.911354   -2.147261    0.466764
 ---------------------------------------------------------------------

 SCF Done:  E(UB3LYP) =  -1136.11713038     A.U. after   26 cycles

 The electronic state is 2-A.
 Alpha  occ. eigenvalues --  -38.45020 -38.44875 -38.44867 -38.43984 -38.43951
 Alpha  occ. eigenvalues --  -38.43574 -38.42460  -2.20889  -2.20731  -2.20612
 Alpha  occ. eigenvalues --   -2.19842  -2.19778  -2.19477  -2.18347  -1.14646
 Alpha  occ. eigenvalues --   -1.14553  -1.14487  -1.14401  -1.14392  -1.14358
 Alpha  occ. eigenvalues --   -1.14285  -1.14273  -1.14235  -1.13509  -1.13483
 Alpha  occ. eigenvalues --   -1.13474  -1.13459  -1.13427  -1.13388  -1.13192
 Alpha  occ. eigenvalues --   -1.13110  -1.13091  -1.12033  -1.12015  -1.11992
 Alpha  occ. eigenvalues --   -0.18285  -0.13967  -0.11296  -0.10720
 Alpha virt. eigenvalues --   -0.07348  -0.05466  -0.04113  -0.03265  -0.02994
 Alpha virt. eigenvalues --   -0.02369  -0.02317  -0.01447  -0.00701  -0.00407
 Alpha virt. eigenvalues --   -0.00064   0.00088   0.00412   0.00593   0.00718

  Beta  occ. eigenvalues --  -38.45011 -38.44848 -38.44848 -38.43942 -38.43888
  Beta  occ. eigenvalues --  -38.43558 -38.42453  -2.20874  -2.20681  -2.20577
  Beta  occ. eigenvalues --   -2.19762  -2.19666  -2.19450  -2.18339  -1.14614
  Beta  occ. eigenvalues --   -1.14548  -1.14476  -1.14369  -1.14354  -1.14323
  Beta  occ. eigenvalues --   -1.14259  -1.14245  -1.14213  -1.13462  -1.13437
  Beta  occ. eigenvalues --   -1.13385  -1.13371  -1.13347  -1.13323  -1.13177
  Beta  occ. eigenvalues --   -1.13096  -1.13044  -1.12033  -1.12002  -1.11965
  Beta  occ. eigenvalues --   -0.17669  -0.13630  -0.11085
  Beta virt. eigenvalues --   -0.07242  -0.06856  -0.05344  -0.03668  -0.03057
  Beta virt. eigenvalues --   -0.02747  -0.01793  -0.01590  -0.01322  -0.00455
  Beta virt. eigenvalues --   -0.00240   0.00012   0.00125   0.00533   0.00668

 Mulliken charges and spin densities:
               1          2
     1  Na  -0.004737   0.112488
     2  Na  -0.254526   0.078994
     3  Na  -0.118679   0.366855
     4  Na  -0.360914   0.085433
     5  Na   0.077105   0.132542
     6  Na   0.223896   0.080862
     7  Na   0.437855   0.142827
 Sum of Mulliken charges =  -0.00000   1.00000

 Dipole moment (field-independent basis, Debye):
    X=             -0.1519    Y=             -0.2248    Z=              0.1965  Tot=              0.3350
 Quadrupole moment (field-independent basis, Debye-Ang):
   XX=            -51.0782   YY=            -74.7278   ZZ=            -70.0395
   XY=             -0.7790   XZ=             -0.8974   YZ=             -1.9956

 Normal termination of Gaussian 16 at Tue Dec  5 09:50:15 2023.
