 Gaussian 16, Revision B.01,
 Gaussian 16:  ES64L-G16RevB.01 20-Dec-2017

 -------------------------
 #P B3LYP/6-311+g(d) force
 -------------------------

 -----
 DPGEN
 -----
 Symbolic Z-matrix:
 Charge =  0 Multiplicity = 2

                         Standard orientation:
 ---------------------------------------------------------------------
 Center     Atomic      Atomic             Coordinates (Angstroms)
 Number     Number       Type             X           Y           Z
 ---------------------------------------------------------------------
      1         11           0        2.234700    2.186676   -0.625178
      2         11           0        1.057143   -1.937651   -1.099512
      3         11           0       -0.902724    1.977549   -0.818940
      4         11           0       -4.005383    0.754444    0.538900
      5         11           0       -2.044480   -2.050119   -0.740196
      6         11           0        0.051169   -0.319680    2.091578
      7         11           0        3.609576   -0.611219    0.653348
 ---------------------------------------------------------------------

 SCF Done:  E(UB3LYP) =  -1136.12066328     A.U. after   23 cycles

 The electronic state is 2-A.
 Alpha  occ. eigenvalues --  -38.45491 -38.45238 -38.45024 -38.43609 -38.43360
 Alpha  occ. eigenvalues --  -38.43312 -38.43098  -2.21272  -2.21006  -2.20842
 Alpha  occ. eigenvalues --   -2.19452  -2.19203  -2.19150  -2.18971  -1.14954
 Alpha  occ. eigenvalues --   -1.14921  -1.14880  -1.14672  -1.14665  -1.14633
 Alpha  occ. eigenvalues --   -1.14513  -1.14495  -1.14479  -1.13162  -1.13109
 Alpha  occ. eigenvalues --   -1.13077  -1.12949  -1.12857  -1.12844  -1.12822
 Alpha  occ. eigenvalues --   -1.12809  -1.12744  -1.12651  -1.12615  -1.12606
 Alpha  occ. eigenvalues --   -0.17779  -0.13796  -0.11856  -0.10599
 Alpha virt. eigenvalues --   -0.07451  -0.05421  -0.04180  -0.03535  -0.02957
 Alpha virt. eigenvalues --   -0.02658  -0.02185  -0.01372  -0.00837  -0.00451
 Alpha virt. eigenvalues --    0.00018   0.00087   0.00253   0.00650   0.00693

  Beta  occ. eigenvalues --  -38.45430 -38.45221 -38.45009 -38.43584 -38.43342
  Beta  occ. eigenvalues --  -38.43289 -38.43067  -2.21157  -2.20974  -2.20814
  Beta  occ. eigenvalues --   -2.19409  -2.19175  -2.19111  -2.18919  -1.14872
  Beta  occ. eigenvalues --   -1.14846  -1.14792  -1.14648  -1.14644  -1.14612
  Beta  occ. eigenvalues --   -1.14492  -1.14480  -1.14452  -1.13122  -1.13078
  Beta  occ. eigenvalues --   -1.13040  -1.12918  -1.12834  -1.12820  -1.12799
  Beta  occ. eigenvalues --   -1.12777  -1.12706  -1.12614  -1.12572  -1.12560
  Beta  occ. eigenvalues --   -0.17203  -0.13621  -0.11376
  Beta virt. eigenvalues --   -0.07323  -0.06882  -0.05479  -0.03638  -0.03269
  Beta virt. eigenvalues --   -0.02661  -0.02060  -0.01441  -0.01344  -0.00492
  Beta virt. eigenvalues --   -0.00439   0.00068   0.00111   0.00444   0.00713

 Mulliken charges and spin densities:
               1          2
     1  Na  -0.288766  -0.020277
     2  Na  -0.349012   0.131371
     3  Na  -0.473916   0.123577
     4  Na   0.789073   0.111495
     5  Na  -0.019551   0.019083
     6  Na  -0.456881   0.340691
     7  Na   0.799053   0.294059
 Sum of Mulliken charges =  -0.00000   1.00000

 Dipole moment (field-independent basis, Debye):
    X=             -0.2936    Y=             -0.2029    Z=              0.6781  Tot=              0.7663
 Quadrupole moment (field-independent basis, Debye-Ang):
   XX=            -44.8741   YY=            -77.5040   ZZ=            -72.5895
   XY=             -1.0769   XZ=             -0.6476   YZ=              0.5704

 Normal termination of Gaussian 16 at Fri Dec  8 03:13:15 2023.
