 Gaussian 16, Revision B.01,
 Gaussian 16:  ES64L-G16RevB.01 20-Dec-2017

 -------------------------
 #P B3LYP/6-311+g(d) force
 -------------------------

 -----
 DPGEN
 -----
 Symbolic Z-matrix:
 Charge =  0 Multiplicity = 2

                         Standard orientation:
 ---------------------------------------------------------------------
 Center     Atomic      Atomic             Coordinates (Angstroms)
 Number     Number       Type             X           Y           Z
 ---------------------------------------------------------------------
      1         11           0        3.216930    0.632974   -0.189646
      2         11           0       -2.989267    1.053443   -0.566585
      3         11           0        0.124220   -0.056720   -1.573988
      4         11           0        0.132444    2.854471    0.180450
      5         11           0        2.044114   -2.179237   -0.047481
      6         11           0       -0.325355    0.063067    2.143979
      7         11           0       -2.203086   -2.367998    0.053272
 ---------------------------------------------------------------------

 SCF Done:  E(UB3LYP) =  -1136.13477942     A.U. after   19 cycles

 The electronic state is 2-A.
 Alpha  occ. eigenvalues --  -38.44297 -38.44292 -38.43686 -38.43680 -38.43678
 Alpha  occ. eigenvalues --  -38.43423 -38.42909  -2.20143  -2.20118  -2.19555
 Alpha  occ. eigenvalues --   -2.19546  -2.19475  -2.19383  -2.18755  -1.13850
 Alpha  occ. eigenvalues --   -1.13806  -1.13801  -1.13771  -1.13771  -1.13746
 Alpha  occ. eigenvalues --   -1.13258  -1.13216  -1.13208  -1.13180  -1.13173
 Alpha  occ. eigenvalues --   -1.13168  -1.13145  -1.13129  -1.13122  -1.13071
 Alpha  occ. eigenvalues --   -1.13021  -1.13001  -1.12436  -1.12425  -1.12384
 Alpha  occ. eigenvalues --   -0.18419  -0.13389  -0.11986  -0.10756
 Alpha virt. eigenvalues --   -0.05884  -0.05407  -0.04382  -0.03342  -0.02730
 Alpha virt. eigenvalues --   -0.02629  -0.01815  -0.01168  -0.00458  -0.00345
 Alpha virt. eigenvalues --   -0.00034   0.00327   0.00713   0.00843   0.00881

  Beta  occ. eigenvalues --  -38.44290 -38.44279 -38.43683 -38.43677 -38.43577
  Beta  occ. eigenvalues --  -38.43373 -38.42903  -2.20140  -2.20088  -2.19551
  Beta  occ. eigenvalues --   -2.19476  -2.19356  -2.19292  -2.18748  -1.13851
  Beta  occ. eigenvalues --   -1.13793  -1.13767  -1.13765  -1.13747  -1.13728
  Beta  occ. eigenvalues --   -1.13249  -1.13207  -1.13165  -1.13140  -1.13137
  Beta  occ. eigenvalues --   -1.13117  -1.13083  -1.13042  -1.13021  -1.13005
  Beta  occ. eigenvalues --   -1.12960  -1.12932  -1.12434  -1.12395  -1.12380
  Beta  occ. eigenvalues --   -0.17717  -0.13143  -0.11772
  Beta virt. eigenvalues --   -0.06845  -0.05791  -0.05407  -0.04344  -0.02614
  Beta virt. eigenvalues --   -0.01979  -0.01695  -0.01578  -0.01092  -0.00495
  Beta virt. eigenvalues --   -0.00364   0.00117   0.00371   0.00798   0.00845

 Mulliken charges and spin densities:
               1          2
     1  Na   0.189436  -0.003059
     2  Na   0.180736   0.039265
     3  Na  -0.217672   0.273637
     4  Na   0.127792  -0.009328
     5  Na   0.187048  -0.019091
     6  Na  -0.500382   0.755070
     7  Na   0.033042  -0.036495
 Sum of Mulliken charges =  -0.00000   1.00000

 Dipole moment (field-independent basis, Debye):
    X=             -0.0059    Y=             -0.0198    Z=              0.0508  Tot=              0.0548
 Quadrupole moment (field-independent basis, Debye-Ang):
   XX=            -54.3759   YY=            -64.9175   ZZ=            -74.4089
   XY=              0.5013   XZ=              0.9695   YZ=             -0.6477

 Normal termination of Gaussian 16 at Thu Dec  7 05:08:38 2023.
