 Gaussian 16, Revision B.01,
 Gaussian 16:  ES64L-G16RevB.01 20-Dec-2017

 -------------------------
 #P B3LYP/6-311+g(d) force
 -------------------------

 -----
 DPGEN
 -----
 Symbolic Z-matrix:
 Charge =  0 Multiplicity = 2

                         Standard orientation:
 ---------------------------------------------------------------------
 Center     Atomic      Atomic             Coordinates (Angstroms)
 Number     Number       Type             X           Y           Z
 ---------------------------------------------------------------------
      1         11           0        1.261238   -2.433094    0.181236
      2         11           0        0.073664   -0.013923   -1.610271
      3         11           0       -2.689411    1.448870   -0.202401
      4         11           0       -2.325198   -2.033171   -0.225549
      5         11           0        0.770180    2.904174    0.003007
      6         11           0        3.128278    0.008931   -0.231700
      7         11           0       -0.218751    0.118213    2.085677
 ---------------------------------------------------------------------

 SCF Done:  E(UB3LYP) =  -1136.13902342     A.U. after   19 cycles

 The electronic state is 2-A.
 Alpha  occ. eigenvalues --  -38.43975 -38.43910 -38.43592 -38.43580 -38.43415
 Alpha  occ. eigenvalues --  -38.43212 -38.43128  -2.19810  -2.19773  -2.19470
 Alpha  occ. eigenvalues --   -2.19430  -2.19241  -2.19128  -2.19122  -1.13493
 Alpha  occ. eigenvalues --   -1.13479  -1.13474  -1.13438  -1.13437  -1.13404
 Alpha  occ. eigenvalues --   -1.13140  -1.13110  -1.13099  -1.13096  -1.13076
 Alpha  occ. eigenvalues --   -1.13072  -1.12930  -1.12910  -1.12871  -1.12867
 Alpha  occ. eigenvalues --   -1.12789  -1.12779  -1.12752  -1.12742  -1.12725
 Alpha  occ. eigenvalues --   -0.18777  -0.13110  -0.12405  -0.10803
 Alpha virt. eigenvalues --   -0.05589  -0.05167  -0.04619  -0.03201  -0.02863
 Alpha virt. eigenvalues --   -0.02604  -0.01501  -0.01146  -0.00367  -0.00213
 Alpha virt. eigenvalues --   -0.00011   0.00360   0.00794   0.00883   0.00919

  Beta  occ. eigenvalues --  -38.43969 -38.43906 -38.43588 -38.43481 -38.43412
  Beta  occ. eigenvalues --  -38.43203 -38.43068  -2.19803  -2.19768  -2.19425
  Beta  occ. eigenvalues --   -2.19286  -2.19239  -2.19111  -2.19017  -1.13482
  Beta  occ. eigenvalues --   -1.13473  -1.13460  -1.13434  -1.13417  -1.13398
  Beta  occ. eigenvalues --   -1.13101  -1.13076  -1.13065  -1.13017  -1.12966
  Beta  occ. eigenvalues --   -1.12960  -1.12920  -1.12889  -1.12871  -1.12836
  Beta  occ. eigenvalues --   -1.12755  -1.12735  -1.12720  -1.12664  -1.12662
  Beta  occ. eigenvalues --   -0.18042  -0.12866  -0.12173
  Beta virt. eigenvalues --   -0.06859  -0.05572  -0.05152  -0.04585  -0.02407
  Beta virt. eigenvalues --   -0.02085  -0.01521  -0.01410  -0.01089  -0.00419
  Beta virt. eigenvalues --   -0.00255   0.00129   0.00384   0.00842   0.00892

 Mulliken charges and spin densities:
               1          2
     1  Na   0.296303   0.049896
     2  Na  -0.339152   0.422995
     3  Na   0.149403  -0.074597
     4  Na   0.161425  -0.027936
     5  Na   0.082375  -0.090010
     6  Na   0.179104  -0.034450
     7  Na  -0.529459   0.754102
 Sum of Mulliken charges =  -0.00000   1.00000

 Dipole moment (field-independent basis, Debye):
    X=             -0.1503    Y=              0.1866    Z=              0.1167  Tot=              0.2665
 Quadrupole moment (field-independent basis, Debye-Ang):
   XX=            -56.4351   YY=            -62.7830   ZZ=            -74.1735
   XY=              0.5066   XZ=              0.4365   YZ=             -0.2641

 Normal termination of Gaussian 16 at Fri Dec  8 05:16:19 2023.
