 Gaussian 16, Revision B.01,
 Gaussian 16:  ES64L-G16RevB.01 20-Dec-2017

 -------------------------
 #P B3LYP/6-311+g(d) force
 -------------------------

 -----
 DPGEN
 -----
 Symbolic Z-matrix:
 Charge =  0 Multiplicity = 2

                         Standard orientation:
 ---------------------------------------------------------------------
 Center     Atomic      Atomic             Coordinates (Angstroms)
 Number     Number       Type             X           Y           Z
 ---------------------------------------------------------------------
      1         11           0        0.007892   -0.023447    2.177351
      2         11           0        1.566151    2.333133   -0.197299
      3         11           0       -0.738470    0.464831   -1.941749
      4         11           0       -2.666895   -1.849861    0.326600
      5         11           0        0.912521   -1.952401   -0.935559
      6         11           0        3.764687   -0.535131    0.333805
      7         11           0       -2.845886    1.562875    0.236852
 ---------------------------------------------------------------------

 SCF Done:  E(UB3LYP) =  -1136.12500147     A.U. after   23 cycles

 The electronic state is 2-A.
 Alpha  occ. eigenvalues --  -38.45104 -38.44892 -38.44319 -38.43837 -38.43738
 Alpha  occ. eigenvalues --  -38.43281 -38.42950  -2.20875  -2.20711  -2.20148
 Alpha  occ. eigenvalues --   -2.19681  -2.19653  -2.19086  -2.18826  -1.14548
 Alpha  occ. eigenvalues --   -1.14535  -1.14511  -1.14382  -1.14346  -1.14327
 Alpha  occ. eigenvalues --   -1.13849  -1.13803  -1.13779  -1.13387  -1.13324
 Alpha  occ. eigenvalues --   -1.13319  -1.13308  -1.13297  -1.13275  -1.12775
 Alpha  occ. eigenvalues --   -1.12763  -1.12707  -1.12543  -1.12479  -1.12424
 Alpha  occ. eigenvalues --   -0.18291  -0.13474  -0.11466  -0.11180
 Alpha virt. eigenvalues --   -0.06762  -0.05309  -0.03970  -0.03219  -0.03135
 Alpha virt. eigenvalues --   -0.02785  -0.02262  -0.01146  -0.00480  -0.00217
 Alpha virt. eigenvalues --    0.00139   0.00241   0.00321   0.00650   0.00776

  Beta  occ. eigenvalues --  -38.45107 -38.44812 -38.44313 -38.43833 -38.43653
  Beta  occ. eigenvalues --  -38.43278 -38.42920  -2.20881  -2.20564  -2.20140
  Beta  occ. eigenvalues --   -2.19648  -2.19527  -2.19085  -2.18775  -1.14546
  Beta  occ. eigenvalues --   -1.14542  -1.14515  -1.14285  -1.14244  -1.14216
  Beta  occ. eigenvalues --   -1.13836  -1.13785  -1.13774  -1.13316  -1.13308
  Beta  occ. eigenvalues --   -1.13286  -1.13275  -1.13206  -1.13168  -1.12769
  Beta  occ. eigenvalues --   -1.12750  -1.12707  -1.12497  -1.12428  -1.12395
  Beta  occ. eigenvalues --   -0.17497  -0.13327  -0.10960
  Beta virt. eigenvalues --   -0.07514  -0.06552  -0.05314  -0.03450  -0.02966
  Beta virt. eigenvalues --   -0.02264  -0.02074  -0.02005  -0.01077  -0.00414
  Beta virt. eigenvalues --   -0.00092   0.00130   0.00273   0.00536   0.00724

 Mulliken charges and spin densities:
               1          2
     1  Na  -0.281960   0.653045
     2  Na  -0.194211  -0.119942
     3  Na   0.471154   0.480801
     4  Na  -0.043965   0.038120
     5  Na  -0.204092   0.012850
     6  Na   0.112874   0.011309
     7  Na   0.140200  -0.076183
 Sum of Mulliken charges =  -0.00000   1.00000

 Dipole moment (field-independent basis, Debye):
    X=              0.2309    Y=              0.0584    Z=              0.6793  Tot=              0.7198
 Quadrupole moment (field-independent basis, Debye-Ang):
   XX=            -49.2608   YY=            -74.5436   ZZ=            -70.1250
   XY=             -0.3612   XZ=              0.1974   YZ=             -0.0494

 Normal termination of Gaussian 16 at Fri Dec  8 03:30:03 2023.
