 Gaussian 16, Revision B.01,
 Gaussian 16:  ES64L-G16RevB.01 20-Dec-2017

 -------------------------
 #P B3LYP/6-311+g(d) force
 -------------------------

 -----
 DPGEN
 -----
 Symbolic Z-matrix:
 Charge =  0 Multiplicity = 2

                         Standard orientation:
 ---------------------------------------------------------------------
 Center     Atomic      Atomic             Coordinates (Angstroms)
 Number     Number       Type             X           Y           Z
 ---------------------------------------------------------------------
      1         11           0        0.323368    2.908493    0.203933
      2         11           0       -4.254106   -1.455180   -0.126404
      3         11           0        0.348456   -0.289812    2.056470
      4         11           0        0.570472   -0.147209   -1.660848
      5         11           0        3.352364    0.617267   -0.276710
      6         11           0        2.245229   -2.740495    0.009703
      7         11           0       -2.585784    1.106937   -0.206143
 ---------------------------------------------------------------------

 SCF Done:  E(UB3LYP) =  -1136.12199052     A.U. after   22 cycles

 The electronic state is 2-A.
 Alpha  occ. eigenvalues --  -38.45351 -38.44597 -38.44152 -38.44018 -38.43797
 Alpha  occ. eigenvalues --  -38.43321 -38.42849  -2.21186  -2.20488  -2.19939
 Alpha  occ. eigenvalues --   -2.19865  -2.19609  -2.19196  -2.18691  -1.14887
 Alpha  occ. eigenvalues --   -1.14843  -1.14794  -1.14169  -1.14149  -1.14099
 Alpha  occ. eigenvalues --   -1.13638  -1.13590  -1.13579  -1.13529  -1.13503
 Alpha  occ. eigenvalues --   -1.13464  -1.13288  -1.13262  -1.13248  -1.12880
 Alpha  occ. eigenvalues --   -1.12865  -1.12826  -1.12362  -1.12348  -1.12343
 Alpha  occ. eigenvalues --   -0.18087  -0.13579  -0.11607  -0.10717
 Alpha virt. eigenvalues --   -0.07055  -0.05370  -0.04153  -0.03373  -0.02808
 Alpha virt. eigenvalues --   -0.02380  -0.02279  -0.01431  -0.01034  -0.00338
 Alpha virt. eigenvalues --   -0.00149   0.00059   0.00417   0.00616   0.00679

  Beta  occ. eigenvalues --  -38.45327 -38.44551 -38.44156 -38.43911 -38.43792
  Beta  occ. eigenvalues --  -38.43318 -38.42847  -2.21146  -2.20406  -2.19946
  Beta  occ. eigenvalues --   -2.19668  -2.19603  -2.19191  -2.18690  -1.14848
  Beta  occ. eigenvalues --   -1.14800  -1.14769  -1.14109  -1.14077  -1.14043
  Beta  occ. eigenvalues --   -1.13644  -1.13593  -1.13584  -1.13396  -1.13371
  Beta  occ. eigenvalues --   -1.13320  -1.13286  -1.13249  -1.13232  -1.12875
  Beta  occ. eigenvalues --   -1.12857  -1.12821  -1.12364  -1.12346  -1.12323
  Beta  occ. eigenvalues --   -0.17363  -0.13406  -0.11423
  Beta virt. eigenvalues --   -0.06979  -0.06699  -0.05267  -0.04134  -0.02737
  Beta virt. eigenvalues --   -0.02361  -0.01798  -0.01597  -0.01333  -0.00991
  Beta virt. eigenvalues --   -0.00221  -0.00046   0.00127   0.00575   0.00647

 Mulliken charges and spin densities:
               1          2
     1  Na   0.089923   0.028963
     2  Na   0.122171  -0.043736
     3  Na  -0.287597   0.595944
     4  Na   0.083480   0.380143
     5  Na   0.338755   0.095444
     6  Na  -0.109812  -0.056708
     7  Na  -0.236921  -0.000050
 Sum of Mulliken charges =  -0.00000   1.00000

 Dipole moment (field-independent basis, Debye):
    X=              1.2517    Y=             -0.2768    Z=              0.0938  Tot=              1.2854
 Quadrupole moment (field-independent basis, Debye-Ang):
   XX=            -57.8173   YY=            -64.1474   ZZ=            -74.3466
   XY=              3.1671   XZ=              0.6215   YZ=              0.9023

 Normal termination of Gaussian 16 at Thu Dec  7 05:41:17 2023.
