 Gaussian 16, Revision B.01,
 Gaussian 16:  ES64L-G16RevB.01 20-Dec-2017

 -------------------------
 #P B3LYP/6-311+g(d) force
 -------------------------

 -----
 DPGEN
 -----
 Symbolic Z-matrix:
 Charge =  0 Multiplicity = 2

                         Standard orientation:
 ---------------------------------------------------------------------
 Center     Atomic      Atomic             Coordinates (Angstroms)
 Number     Number       Type             X           Y           Z
 ---------------------------------------------------------------------
      1         11           0       -1.051019    2.413987    0.112936
      2         11           0        1.276596   -2.245981   -0.513231
      3         11           0        0.434072    0.616952    2.034881
      4         11           0        4.189524   -0.594033    0.638873
      5         11           0        1.655278    1.231903   -1.689461
      6         11           0       -2.058553   -0.309807   -1.083145
      7         11           0       -4.445899   -1.113020    0.499147
 ---------------------------------------------------------------------

 SCF Done:  E(UB3LYP) =  -1136.11333631     A.U. after   24 cycles

 The electronic state is 2-A.
 Alpha  occ. eigenvalues --  -38.45181 -38.45035 -38.44315 -38.44207 -38.44017
 Alpha  occ. eigenvalues --  -38.43248 -38.43065  -2.20946  -2.20816  -2.20177
 Alpha  occ. eigenvalues --   -2.20046  -2.19815  -2.19162  -2.18980  -1.14622
 Alpha  occ. eigenvalues --   -1.14604  -1.14575  -1.14504  -1.14488  -1.14424
 Alpha  occ. eigenvalues --   -1.13846  -1.13832  -1.13790  -1.13720  -1.13693
 Alpha  occ. eigenvalues --   -1.13659  -1.13536  -1.13458  -1.13456  -1.12871
 Alpha  occ. eigenvalues --   -1.12828  -1.12797  -1.12666  -1.12621  -1.12590
 Alpha  occ. eigenvalues --   -0.17927  -0.13578  -0.11475  -0.10911
 Alpha virt. eigenvalues --   -0.07402  -0.05224  -0.04302  -0.03278  -0.02980
 Alpha virt. eigenvalues --   -0.02552  -0.02421  -0.01548  -0.00839  -0.00259
 Alpha virt. eigenvalues --   -0.00141   0.00094   0.00263   0.00606   0.00642

  Beta  occ. eigenvalues --  -38.45172 -38.45020 -38.44237 -38.44148 -38.44021
  Beta  occ. eigenvalues --  -38.43233 -38.43061  -2.20929  -2.20791  -2.20032
  Beta  occ. eigenvalues --   -2.19939  -2.19823  -2.19137  -2.18977  -1.14610
  Beta  occ. eigenvalues --   -1.14584  -1.14566  -1.14490  -1.14449  -1.14407
  Beta  occ. eigenvalues --   -1.13749  -1.13729  -1.13687  -1.13637  -1.13617
  Beta  occ. eigenvalues --   -1.13587  -1.13541  -1.13463  -1.13460  -1.12858
  Beta  occ. eigenvalues --   -1.12815  -1.12761  -1.12651  -1.12614  -1.12574
  Beta  occ. eigenvalues --   -0.17202  -0.13456  -0.11271
  Beta virt. eigenvalues --   -0.07312  -0.06970  -0.05030  -0.03990  -0.02966
  Beta virt. eigenvalues --   -0.02622  -0.02039  -0.01755  -0.01213  -0.00705
  Beta virt. eigenvalues --   -0.00257  -0.00062   0.00115   0.00423   0.00708

 Mulliken charges and spin densities:
               1          2
     1  Na   0.547476   0.157056
     2  Na   0.015640   0.119750
     3  Na  -0.443659   0.453518
     4  Na   0.207726   0.022099
     5  Na   0.000918   0.253331
     6  Na  -0.818773   0.000098
     7  Na   0.490670  -0.005852
 Sum of Mulliken charges =  -0.00000   1.00000

 Dipole moment (field-independent basis, Debye):
    X=              1.6243    Y=              0.1393    Z=              0.3337  Tot=              1.6641
 Quadrupole moment (field-independent basis, Debye-Ang):
   XX=            -54.2780   YY=            -71.0083   ZZ=            -71.6693
   XY=              0.0541   XZ=             -2.9752   YZ=             -2.5236

 Normal termination of Gaussian 16 at Mon Dec  4 03:38:11 2023.
