 Gaussian 16, Revision B.01,
 Gaussian 16:  ES64L-G16RevB.01 20-Dec-2017

 -------------------------
 #P B3LYP/6-311+g(d) force
 -------------------------

 -----
 DPGEN
 -----
 Symbolic Z-matrix:
 Charge =  0 Multiplicity = 2

                         Standard orientation:
 ---------------------------------------------------------------------
 Center     Atomic      Atomic             Coordinates (Angstroms)
 Number     Number       Type             X           Y           Z
 ---------------------------------------------------------------------
      1         11           0        0.453630    3.355869   -0.684969
      2         11           0       -3.025418   -0.159565    1.536773
      3         11           0        3.847359    1.180890   -0.413630
      4         11           0        3.154033   -1.206841    1.597207
      5         11           0        0.805681   -2.961633   -1.093350
      6         11           0       -2.477022   -3.312248   -0.724063
      7         11           0       -2.758263    3.103528   -0.217968
 ---------------------------------------------------------------------

 SCF Done:  E(UB3LYP) =  -1136.10759314     A.U. after   21 cycles

 The electronic state is 2-A.
 Alpha  occ. eigenvalues --  -38.45119 -38.44777 -38.44752 -38.44407 -38.44283
 Alpha  occ. eigenvalues --  -38.44275 -38.43800  -2.20889  -2.20573  -2.20527
 Alpha  occ. eigenvalues --   -2.20181  -2.20054  -2.20045  -2.19593  -1.14573
 Alpha  occ. eigenvalues --   -1.14553  -1.14542  -1.14227  -1.14217  -1.14204
 Alpha  occ. eigenvalues --   -1.14199  -1.14184  -1.14149  -1.13840  -1.13821
 Alpha  occ. eigenvalues --   -1.13796  -1.13738  -1.13733  -1.13718  -1.13702
 Alpha  occ. eigenvalues --   -1.13700  -1.13693  -1.13251  -1.13239  -1.13216
 Alpha  occ. eigenvalues --   -0.15508  -0.13552  -0.13170  -0.10401
 Alpha virt. eigenvalues --   -0.07343  -0.05245  -0.05023  -0.03362  -0.03208
 Alpha virt. eigenvalues --   -0.02157  -0.01900  -0.01818  -0.01368  -0.01200
 Alpha virt. eigenvalues --   -0.00712  -0.00106   0.00019   0.00313   0.00598

  Beta  occ. eigenvalues --  -38.45121 -38.44743 -38.44711 -38.44321 -38.44299
  Beta  occ. eigenvalues --  -38.44272 -38.43742  -2.20896  -2.20511  -2.20454
  Beta  occ. eigenvalues --   -2.20089  -2.20044  -2.20020  -2.19484  -1.14574
  Beta  occ. eigenvalues --   -1.14561  -1.14529  -1.14184  -1.14172  -1.14164
  Beta  occ. eigenvalues --   -1.14150  -1.14138  -1.14087  -1.13761  -1.13760
  Beta  occ. eigenvalues --   -1.13729  -1.13721  -1.13716  -1.13708  -1.13698
  Beta  occ. eigenvalues --   -1.13678  -1.13665  -1.13176  -1.13166  -1.13149
  Beta  occ. eigenvalues --   -0.15053  -0.13020  -0.12608
  Beta virt. eigenvalues --   -0.07316  -0.07177  -0.04799  -0.04695  -0.03082
  Beta virt. eigenvalues --   -0.02825  -0.01931  -0.01862  -0.01620  -0.01175
  Beta virt. eigenvalues --   -0.00834  -0.00572   0.00154   0.00214   0.00393

 Mulliken charges and spin densities:
               1          2
     1  Na  -0.139068   0.257651
     2  Na  -0.335814   0.479893
     3  Na   0.139247  -0.027223
     4  Na   0.087149   0.170574
     5  Na  -0.268820   0.224193
     6  Na   0.296146  -0.047213
     7  Na   0.221161  -0.057874
 Sum of Mulliken charges =  -0.00000   1.00000

 Dipole moment (field-independent basis, Debye):
    X=              0.8953    Y=             -0.5473    Z=              0.0362  Tot=              1.0499
 Quadrupole moment (field-independent basis, Debye-Ang):
   XX=            -60.8961   YY=            -71.0134   ZZ=            -69.6662
   XY=              1.2840   XZ=             -0.0262   YZ=             -2.7694

 Normal termination of Gaussian 16 at Sun Dec  3 22:53:55 2023.
