 Gaussian 16, Revision B.01,
 Gaussian 16:  ES64L-G16RevB.01 20-Dec-2017

 -------------------------
 #P B3LYP/6-311+g(d) force
 -------------------------

 -----
 DPGEN
 -----
 Symbolic Z-matrix:
 Charge =  0 Multiplicity = 2

                         Standard orientation:
 ---------------------------------------------------------------------
 Center     Atomic      Atomic             Coordinates (Angstroms)
 Number     Number       Type             X           Y           Z
 ---------------------------------------------------------------------
      1         11           0        3.223990   -1.179770   -0.396190
      2         11           0       -2.828968   -0.373733   -1.158111
      3         11           0        1.989758    2.027706    0.074648
      4         11           0       -0.946223   -2.525071    0.572433
      5         11           0       -1.548494    2.363949    0.212857
      6         11           0       -0.310691   -0.156722    2.144465
      7         11           0        0.420628   -0.156358   -1.450101
 ---------------------------------------------------------------------

 SCF Done:  E(UB3LYP) =  -1136.13006209     A.U. after   21 cycles

 The electronic state is 2-A.
 Alpha  occ. eigenvalues --  -38.44147 -38.44145 -38.44007 -38.43609 -38.43304
 Alpha  occ. eigenvalues --  -38.43181 -38.42922  -2.20088  -2.19966  -2.19897
 Alpha  occ. eigenvalues --   -2.19483  -2.19336  -2.19094  -2.18796  -1.13805
 Alpha  occ. eigenvalues --   -1.13707  -1.13695  -1.13664  -1.13616  -1.13597
 Alpha  occ. eigenvalues --   -1.13585  -1.13537  -1.13523  -1.13244  -1.13152
 Alpha  occ. eigenvalues --   -1.13082  -1.13013  -1.12963  -1.12960  -1.12805
 Alpha  occ. eigenvalues --   -1.12726  -1.12698  -1.12474  -1.12460  -1.12435
 Alpha  occ. eigenvalues --   -0.18928  -0.13356  -0.12078  -0.11496
 Alpha virt. eigenvalues --   -0.05622  -0.04974  -0.04077  -0.03432  -0.03116
 Alpha virt. eigenvalues --   -0.02909  -0.01672  -0.00925  -0.00298   0.00122
 Alpha virt. eigenvalues --    0.00143   0.00315   0.00797   0.00896   0.00938

  Beta  occ. eigenvalues --  -38.44141 -38.44043 -38.43964 -38.43607 -38.43262
  Beta  occ. eigenvalues --  -38.43163 -38.42917  -2.19960  -2.19896  -2.19821
  Beta  occ. eigenvalues --   -2.19482  -2.19260  -2.19066  -2.18791  -1.13673
  Beta  occ. eigenvalues --   -1.13653  -1.13613  -1.13592  -1.13568  -1.13565
  Beta  occ. eigenvalues --   -1.13523  -1.13486  -1.13471  -1.13235  -1.13141
  Beta  occ. eigenvalues --   -1.13078  -1.12959  -1.12918  -1.12898  -1.12767
  Beta  occ. eigenvalues --   -1.12689  -1.12683  -1.12472  -1.12443  -1.12421
  Beta  occ. eigenvalues --   -0.18214  -0.13067  -0.11793
  Beta virt. eigenvalues --   -0.07538  -0.05511  -0.04926  -0.03969  -0.02825
  Beta virt. eigenvalues --   -0.02260  -0.01967  -0.01499  -0.00875  -0.00143
  Beta virt. eigenvalues --    0.00140   0.00166   0.00367   0.00862   0.00929

 Mulliken charges and spin densities:
               1          2
     1  Na   0.130941  -0.007206
     2  Na   0.298369   0.098120
     3  Na  -0.033113   0.028631
     4  Na   0.113600   0.183666
     5  Na  -0.040669   0.117491
     6  Na  -0.188732   0.401451
     7  Na  -0.280396   0.177847
 Sum of Mulliken charges =  -0.00000   1.00000

 Dipole moment (field-independent basis, Debye):
    X=              0.3645    Y=             -0.0942    Z=              0.1123  Tot=              0.3929
 Quadrupole moment (field-independent basis, Debye-Ang):
   XX=            -56.3595   YY=            -67.3440   ZZ=            -70.7458
   XY=             -0.7495   XZ=              2.3458   YZ=              0.7346

 Normal termination of Gaussian 16 at Thu Dec  7 22:46:38 2023.
