 Gaussian 16, Revision B.01,
 Gaussian 16:  ES64L-G16RevB.01 20-Dec-2017

 -------------------------
 #P B3LYP/6-311+g(d) force
 -------------------------

 -----
 DPGEN
 -----
 Symbolic Z-matrix:
 Charge =  0 Multiplicity = 2

                         Standard orientation:
 ---------------------------------------------------------------------
 Center     Atomic      Atomic             Coordinates (Angstroms)
 Number     Number       Type             X           Y           Z
 ---------------------------------------------------------------------
      1         11           0       -2.051434   -1.165609   -1.267631
      2         11           0        1.827573   -1.292428    1.567773
      3         11           0       -1.450713   -0.702233    1.568803
      4         11           0       -3.919175    1.095695   -0.045757
      5         11           0        1.311126   -1.060466   -1.640668
      6         11           0        4.000839    1.009970   -0.313675
      7         11           0        0.281784    2.115072    0.131155
 ---------------------------------------------------------------------

 SCF Done:  E(UB3LYP) =  -1136.11503492     A.U. after   33 cycles

 The electronic state is 2-A.
 Alpha  occ. eigenvalues --  -38.45192 -38.44391 -38.44387 -38.43946 -38.43930
 Alpha  occ. eigenvalues --  -38.43709 -38.43690  -2.20961  -2.20207  -2.20160
 Alpha  occ. eigenvalues --   -2.19888  -2.19807  -2.19648  -2.19596  -1.14660
 Alpha  occ. eigenvalues --   -1.14648  -1.14541  -1.13913  -1.13879  -1.13845
 Alpha  occ. eigenvalues --   -1.13844  -1.13831  -1.13794  -1.13671  -1.13552
 Alpha  occ. eigenvalues --   -1.13495  -1.13484  -1.13470  -1.13418  -1.13324
 Alpha  occ. eigenvalues --   -1.13290  -1.13283  -1.13240  -1.13214  -1.13185
 Alpha  occ. eigenvalues --   -0.18490  -0.14298  -0.11328  -0.10898
 Alpha virt. eigenvalues --   -0.07390  -0.05151  -0.04762  -0.03259  -0.02899
 Alpha virt. eigenvalues --   -0.02380  -0.02310  -0.01563  -0.00894  -0.00170
 Alpha virt. eigenvalues --   -0.00006   0.00218   0.00326   0.00568   0.00722

  Beta  occ. eigenvalues --  -38.45152 -38.44407 -38.44405 -38.43905 -38.43885
  Beta  occ. eigenvalues --  -38.43659 -38.43641  -2.20890  -2.20240  -2.20194
  Beta  occ. eigenvalues --   -2.19812  -2.19726  -2.19562  -2.19505  -1.14610
  Beta  occ. eigenvalues --   -1.14584  -1.14493  -1.13929  -1.13899  -1.13865
  Beta  occ. eigenvalues --   -1.13862  -1.13852  -1.13816  -1.13616  -1.13494
  Beta  occ. eigenvalues --   -1.13438  -1.13425  -1.13411  -1.13366  -1.13259
  Beta  occ. eigenvalues --   -1.13224  -1.13215  -1.13175  -1.13152  -1.13120
  Beta  occ. eigenvalues --   -0.17784  -0.14286  -0.10563
  Beta virt. eigenvalues --   -0.07403  -0.07133  -0.05229  -0.04074  -0.02900
  Beta virt. eigenvalues --   -0.02803  -0.01780  -0.01611  -0.01426  -0.00442
  Beta virt. eigenvalues --   -0.00119   0.00008   0.00222   0.00446   0.00649

 Mulliken charges and spin densities:
               1          2
     1  Na  -0.237750   0.148094
     2  Na   0.002605   0.137680
     3  Na  -0.280090   0.388922
     4  Na   0.797044  -0.116194
     5  Na  -0.283149   0.383934
     6  Na   0.586442  -0.147581
     7  Na  -0.585101   0.205144
 Sum of Mulliken charges =  -0.00000   1.00000

 Dipole moment (field-independent basis, Debye):
    X=              0.0607    Y=              0.0081    Z=              0.1025  Tot=              0.1194
 Quadrupole moment (field-independent basis, Debye-Ang):
   XX=            -50.3237   YY=            -76.4424   ZZ=            -70.5601
   XY=             -2.6353   XZ=              1.0399   YZ=             -0.2249

 Normal termination of Gaussian 16 at Thu Dec  7 12:45:45 2023.
