 Gaussian 16, Revision B.01,
 Gaussian 16:  ES64L-G16RevB.01 20-Dec-2017

 -------------------------
 #P B3LYP/6-311+g(d) force
 -------------------------

 -----
 DPGEN
 -----
 Symbolic Z-matrix:
 Charge =  0 Multiplicity = 2

                         Standard orientation:
 ---------------------------------------------------------------------
 Center     Atomic      Atomic             Coordinates (Angstroms)
 Number     Number       Type             X           Y           Z
 ---------------------------------------------------------------------
      1         11           0        4.772467   -0.658131   -0.921512
      2         11           0       -0.384047    3.136517    0.907822
      3         11           0       -3.374575    2.129678   -0.628476
      4         11           0       -4.295399   -1.245011   -0.271606
      5         11           0       -1.628111   -3.258340    0.105469
      6         11           0        2.766532    1.770765   -0.162898
      7         11           0        2.143134   -1.875478    0.971202
 ---------------------------------------------------------------------

 SCF Done:  E(UB3LYP) =  -1136.11314981     A.U. after   22 cycles

 The electronic state is 2-A.
 Alpha  occ. eigenvalues --  -38.45624 -38.45166 -38.44533 -38.44372 -38.44087
 Alpha  occ. eigenvalues --  -38.43995 -38.43378  -2.21387  -2.20979  -2.20303
 Alpha  occ. eigenvalues --   -2.20220  -2.19877  -2.19757  -2.19167  -1.15080
 Alpha  occ. eigenvalues --   -1.15066  -1.14987  -1.14668  -1.14655  -1.14604
 Alpha  occ. eigenvalues --   -1.13984  -1.13973  -1.13933  -1.13881  -1.13860
 Alpha  occ. eigenvalues --   -1.13832  -1.13553  -1.13548  -1.13521  -1.13437
 Alpha  occ. eigenvalues --   -1.13423  -1.13378  -1.12834  -1.12829  -1.12804
 Alpha  occ. eigenvalues --   -0.16151  -0.14116  -0.12575  -0.10811
 Alpha virt. eigenvalues --   -0.07344  -0.05532  -0.04401  -0.03455  -0.03133
 Alpha virt. eigenvalues --   -0.02543  -0.02222  -0.01685  -0.01065  -0.01003
 Alpha virt. eigenvalues --   -0.00476  -0.00220   0.00033   0.00486   0.00553

  Beta  occ. eigenvalues --  -38.45591 -38.45134 -38.44520 -38.44314 -38.44075
  Beta  occ. eigenvalues --  -38.43984 -38.43354  -2.21328  -2.20927  -2.20281
  Beta  occ. eigenvalues --   -2.20111  -2.19855  -2.19737  -2.19122  -1.15039
  Beta  occ. eigenvalues --   -1.15028  -1.14923  -1.14636  -1.14620  -1.14528
  Beta  occ. eigenvalues --   -1.13972  -1.13960  -1.13906  -1.13801  -1.13785
  Beta  occ. eigenvalues --   -1.13766  -1.13540  -1.13537  -1.13498  -1.13424
  Beta  occ. eigenvalues --   -1.13408  -1.13360  -1.12804  -1.12799  -1.12768
  Beta  occ. eigenvalues --   -0.15527  -0.13818  -0.12204
  Beta virt. eigenvalues --   -0.07380  -0.07192  -0.04982  -0.04066  -0.03103
  Beta virt. eigenvalues --   -0.02855  -0.02270  -0.02057  -0.01546  -0.00814
  Beta virt. eigenvalues --   -0.00654  -0.00349   0.00080   0.00274   0.00538

 Mulliken charges and spin densities:
               1          2
     1  Na   0.672335   0.279699
     2  Na  -0.096645  -0.023821
     3  Na   0.018363   0.086722
     4  Na   0.020373   0.123033
     5  Na   0.022478   0.004797
     6  Na  -0.270162   0.302807
     7  Na  -0.366742   0.226763
 Sum of Mulliken charges =  -0.00000   1.00000

 Dipole moment (field-independent basis, Debye):
    X=              1.5323    Y=             -0.2659    Z=             -0.2540  Tot=              1.5758
 Quadrupole moment (field-independent basis, Debye-Ang):
   XX=            -58.5336   YY=            -69.6695   ZZ=            -70.4976
   XY=             -1.8047   XZ=             -0.4943   YZ=             -0.8815

 Normal termination of Gaussian 16 at Sun Dec  3 13:24:40 2023.
