 Gaussian 16, Revision B.01,
 Gaussian 16:  ES64L-G16RevB.01 20-Dec-2017

 -------------------------
 #P B3LYP/6-311+g(d) force
 -------------------------

 -----
 DPGEN
 -----
 Symbolic Z-matrix:
 Charge =  0 Multiplicity = 2

                         Standard orientation:
 ---------------------------------------------------------------------
 Center     Atomic      Atomic             Coordinates (Angstroms)
 Number     Number       Type             X           Y           Z
 ---------------------------------------------------------------------
      1         11           0       -0.101533    2.678396   -0.533062
      2         11           0       -0.252005   -0.058543    2.310992
      3         11           0       -2.654603    0.948476    0.087891
      4         11           0       -1.858173   -1.926108   -0.522196
      5         11           0        1.346208   -2.260212    0.161286
      6         11           0        2.750734    0.889908    0.369422
      7         11           0        0.769373   -0.271917   -1.874333
 ---------------------------------------------------------------------

 SCF Done:  E(UB3LYP) =  -1136.13267487     A.U. after   20 cycles

 The electronic state is 2-A.
 Alpha  occ. eigenvalues --  -38.44503 -38.43838 -38.43661 -38.43362 -38.43302
 Alpha  occ. eigenvalues --  -38.43258 -38.43162  -2.20383  -2.19843  -2.19537
 Alpha  occ. eigenvalues --   -2.19272  -2.19217  -2.19207  -2.19042  -1.14037
 Alpha  occ. eigenvalues --   -1.14014  -1.14001  -1.13595  -1.13485  -1.13471
 Alpha  occ. eigenvalues --   -1.13203  -1.13200  -1.13170  -1.13044  -1.12963
 Alpha  occ. eigenvalues --   -1.12925  -1.12917  -1.12879  -1.12869  -1.12849
 Alpha  occ. eigenvalues --   -1.12811  -1.12777  -1.12722  -1.12687  -1.12665
 Alpha  occ. eigenvalues --   -0.19246  -0.13035  -0.12501  -0.11840
 Alpha virt. eigenvalues --   -0.05144  -0.04718  -0.04380  -0.03729  -0.03359
 Alpha virt. eigenvalues --   -0.03270  -0.01040  -0.00711  -0.00207   0.00225
 Alpha virt. eigenvalues --    0.00281   0.00407   0.00913   0.00968   0.00999

  Beta  occ. eigenvalues --  -38.44402 -38.43773 -38.43654 -38.43360 -38.43292
  Beta  occ. eigenvalues --  -38.43248 -38.43153  -2.20197  -2.19724  -2.19528
  Beta  occ. eigenvalues --   -2.19270  -2.19201  -2.19196  -2.19028  -1.13915
  Beta  occ. eigenvalues --   -1.13880  -1.13869  -1.13521  -1.13401  -1.13386
  Beta  occ. eigenvalues --   -1.13195  -1.13174  -1.13158  -1.13044  -1.12964
  Beta  occ. eigenvalues --   -1.12910  -1.12898  -1.12862  -1.12836  -1.12815
  Beta  occ. eigenvalues --   -1.12803  -1.12771  -1.12704  -1.12667  -1.12659
  Beta  occ. eigenvalues --   -0.18447  -0.12829  -0.12246
  Beta virt. eigenvalues --   -0.07810  -0.05079  -0.04675  -0.04305  -0.02927
  Beta virt. eigenvalues --   -0.02497  -0.02257  -0.00964  -0.00662  -0.00022
  Beta virt. eigenvalues --    0.00209   0.00240   0.00438   0.00975   0.00986

 Mulliken charges and spin densities:
               1          2
     1  Na   0.035342  -0.040514
     2  Na  -0.668016   0.541461
     3  Na   0.117043   0.069052
     4  Na   0.134329  -0.031190
     5  Na   0.476614   0.098371
     6  Na   0.219683   0.047691
     7  Na  -0.314994   0.315128
 Sum of Mulliken charges =  -0.00000   1.00000

 Dipole moment (field-independent basis, Debye):
    X=              0.2378    Y=              0.0233    Z=              0.3547  Tot=              0.4276
 Quadrupole moment (field-independent basis, Debye-Ang):
   XX=            -62.6096   YY=            -67.3079   ZZ=            -67.3135
   XY=              0.5623   XZ=              1.6398   YZ=             -0.1832

 Normal termination of Gaussian 16 at Thu Dec  7 19:02:31 2023.
