 Gaussian 16, Revision B.01,
 Gaussian 16:  ES64L-G16RevB.01 20-Dec-2017

 -------------------------
 #P B3LYP/6-311+g(d) force
 -------------------------

 -----
 DPGEN
 -----
 Symbolic Z-matrix:
 Charge =  0 Multiplicity = 2

                         Standard orientation:
 ---------------------------------------------------------------------
 Center     Atomic      Atomic             Coordinates (Angstroms)
 Number     Number       Type             X           Y           Z
 ---------------------------------------------------------------------
      1         11           0       -1.280752   -0.745226    1.595413
      2         11           0       -0.220689    0.488012   -1.443915
      3         11           0       -3.737442   -0.036331   -0.876326
      4         11           0       -0.026857   -2.758460   -0.276660
      5         11           0        1.991432    0.032561    1.731845
      6         11           0       -0.684088    2.816083    0.455744
      7         11           0        3.958395    0.203361   -1.186101
 ---------------------------------------------------------------------

 SCF Done:  E(UB3LYP) =  -1136.11848485     A.U. after   23 cycles

 The electronic state is 2-A.
 Alpha  occ. eigenvalues --  -38.45281 -38.44647 -38.44034 -38.43947 -38.43307
 Alpha  occ. eigenvalues --  -38.43248 -38.43233  -2.21051  -2.20413  -2.19957
 Alpha  occ. eigenvalues --   -2.19781  -2.19276  -2.19082  -2.19079  -1.14736
 Alpha  occ. eigenvalues --   -1.14686  -1.14673  -1.14074  -1.14059  -1.14033
 Alpha  occ. eigenvalues --   -1.13693  -1.13638  -1.13550  -1.13472  -1.13430
 Alpha  occ. eigenvalues --   -1.13412  -1.13024  -1.12931  -1.12901  -1.12781
 Alpha  occ. eigenvalues --   -1.12760  -1.12729  -1.12715  -1.12684  -1.12683
 Alpha  occ. eigenvalues --   -0.18143  -0.13030  -0.11393  -0.11164
 Alpha virt. eigenvalues --   -0.07003  -0.04876  -0.04155  -0.03163  -0.02750
 Alpha virt. eigenvalues --   -0.02560  -0.02390  -0.01193  -0.00682  -0.00242
 Alpha virt. eigenvalues --    0.00017   0.00095   0.00265   0.00739   0.00825

  Beta  occ. eigenvalues --  -38.45258 -38.44595 -38.44015 -38.43915 -38.43264
  Beta  occ. eigenvalues --  -38.43235 -38.43229  -2.21007  -2.20315  -2.19922
  Beta  occ. eigenvalues --   -2.19727  -2.19201  -2.19077  -2.19055  -1.14703
  Beta  occ. eigenvalues --   -1.14657  -1.14644  -1.14007  -1.13991  -1.13969
  Beta  occ. eigenvalues --   -1.13652  -1.13618  -1.13523  -1.13425  -1.13378
  Beta  occ. eigenvalues --   -1.13370  -1.12986  -1.12871  -1.12832  -1.12769
  Beta  occ. eigenvalues --   -1.12751  -1.12701  -1.12691  -1.12680  -1.12666
  Beta  occ. eigenvalues --   -0.17491  -0.12594  -0.11253
  Beta virt. eigenvalues --   -0.07544  -0.06690  -0.04340  -0.04059  -0.03036
  Beta virt. eigenvalues --   -0.02281  -0.02190  -0.01686  -0.00863  -0.00609
  Beta virt. eigenvalues --   -0.00125   0.00119   0.00160   0.00346   0.00835

 Mulliken charges and spin densities:
               1          2
     1  Na   0.309954   0.086388
     2  Na  -0.442166  -0.048360
     3  Na   0.195423   0.104833
     4  Na  -0.094111   0.221869
     5  Na  -0.045007   0.039150
     6  Na  -0.008529   0.257079
     7  Na   0.084436   0.339042
 Sum of Mulliken charges =  -0.00000   1.00000

 Dipole moment (field-independent basis, Debye):
    X=             -0.6143    Y=             -0.0934    Z=             -0.1676  Tot=              0.6435
 Quadrupole moment (field-independent basis, Debye-Ang):
   XX=            -52.3273   YY=            -73.4250   ZZ=            -67.0650
   XY=             -0.2225   XZ=             -0.0519   YZ=              3.0901

 Normal termination of Gaussian 16 at Tue Dec  5 13:30:17 2023.
