 Gaussian 16, Revision B.01,
 Gaussian 16:  ES64L-G16RevB.01 20-Dec-2017

 -------------------------
 #P B3LYP/6-311+g(d) force
 -------------------------

 -----
 DPGEN
 -----
 Symbolic Z-matrix:
 Charge =  0 Multiplicity = 2

                         Standard orientation:
 ---------------------------------------------------------------------
 Center     Atomic      Atomic             Coordinates (Angstroms)
 Number     Number       Type             X           Y           Z
 ---------------------------------------------------------------------
      1         11           0        1.583821   -3.248398    0.659019
      2         11           0        3.774371   -0.272247   -0.873631
      3         11           0       -2.034937   -2.527446   -0.479144
      4         11           0       -3.764505    0.182440    0.544513
      5         11           0       -0.086385   -0.067637   -0.024892
      6         11           0        2.052551    3.007149    1.004013
      7         11           0       -1.524917    2.926140   -0.829878
 ---------------------------------------------------------------------

 SCF Done:  E(UB3LYP) =  -1136.11781783     A.U. after   25 cycles

 The electronic state is 2-A.
 Alpha  occ. eigenvalues --  -38.45372 -38.44453 -38.44413 -38.44019 -38.43752
 Alpha  occ. eigenvalues --  -38.43508 -38.43484  -2.21088  -2.20290  -2.20203
 Alpha  occ. eigenvalues --   -2.19798  -2.19645  -2.19318  -2.19295  -1.14788
 Alpha  occ. eigenvalues --   -1.14743  -1.14724  -1.14009  -1.13967  -1.13893
 Alpha  occ. eigenvalues --   -1.13891  -1.13859  -1.13814  -1.13477  -1.13442
 Alpha  occ. eigenvalues --   -1.13430  -1.13387  -1.13291  -1.13256  -1.12981
 Alpha  occ. eigenvalues --   -1.12966  -1.12959  -1.12939  -1.12922  -1.12916
 Alpha  occ. eigenvalues --   -0.16864  -0.13268  -0.12954  -0.09362
 Alpha virt. eigenvalues --   -0.06821  -0.05752  -0.05120  -0.02764  -0.02473
 Alpha virt. eigenvalues --   -0.02389  -0.02059  -0.01907  -0.01592  -0.00423
 Alpha virt. eigenvalues --    0.00036   0.00174   0.00289   0.00366   0.00533

  Beta  occ. eigenvalues --  -38.45385 -38.44441 -38.44387 -38.43991 -38.43756
  Beta  occ. eigenvalues --  -38.43431 -38.43422  -2.21116  -2.20272  -2.20155
  Beta  occ. eigenvalues --   -2.19748  -2.19651  -2.19220  -2.19135  -1.14810
  Beta  occ. eigenvalues --   -1.14763  -1.14722  -1.14005  -1.13960  -1.13858
  Beta  occ. eigenvalues --   -1.13837  -1.13827  -1.13776  -1.13444  -1.13410
  Beta  occ. eigenvalues --   -1.13391  -1.13383  -1.13305  -1.13262  -1.12915
  Beta  occ. eigenvalues --   -1.12894  -1.12874  -1.12849  -1.12812  -1.12809
  Beta  occ. eigenvalues --   -0.16615  -0.12562  -0.12452
  Beta virt. eigenvalues --   -0.06888  -0.06106  -0.05479  -0.04869  -0.02480
  Beta virt. eigenvalues --   -0.02160  -0.01962  -0.01851  -0.01645  -0.01281
  Beta virt. eigenvalues --   -0.00331   0.00300   0.00331   0.00460   0.00504

 Mulliken charges and spin densities:
               1          2
     1  Na   0.460562   0.091370
     2  Na   0.394491   0.549250
     3  Na   0.663261   0.197850
     4  Na   0.280688   0.316117
     5  Na  -3.480621  -0.234279
     6  Na   0.641574  -0.049508
     7  Na   1.040045   0.129200
 Sum of Mulliken charges =  -0.00000   1.00000

 Dipole moment (field-independent basis, Debye):
    X=             -0.5760    Y=              0.4940    Z=              0.4102  Tot=              0.8626
 Quadrupole moment (field-independent basis, Debye-Ang):
   XX=            -72.8748   YY=            -58.3654   ZZ=            -67.6874
   XY=             -1.1124   XZ=              4.7473   YZ=              2.0944

 Normal termination of Gaussian 16 at Sat Dec  9 06:53:23 2023.
