 Gaussian 16, Revision B.01,
 Gaussian 16:  ES64L-G16RevB.01 20-Dec-2017

 -------------------------
 #P B3LYP/6-311+g(d) force
 -------------------------

 -----
 DPGEN
 -----
 Symbolic Z-matrix:
 Charge =  0 Multiplicity = 2

                         Standard orientation:
 ---------------------------------------------------------------------
 Center     Atomic      Atomic             Coordinates (Angstroms)
 Number     Number       Type             X           Y           Z
 ---------------------------------------------------------------------
      1         11           0        0.961220    2.691111    0.048999
      2         11           0       -2.332872    1.777161    0.070233
      3         11           0        0.837428   -2.696634   -0.084386
      4         11           0       -0.082123   -0.298826    2.040718
      5         11           0        3.289601   -0.050601   -0.142648
      6         11           0       -2.537220   -1.568319   -0.233767
      7         11           0       -0.136034    0.146107   -1.699148
 ---------------------------------------------------------------------

 SCF Done:  E(UB3LYP) =  -1136.14008589     A.U. after   19 cycles

 The electronic state is 2-A.
 Alpha  occ. eigenvalues --  -38.44127 -38.43602 -38.43562 -38.43488 -38.43326
 Alpha  occ. eigenvalues --  -38.43295 -38.43219  -2.19921  -2.19480  -2.19466
 Alpha  occ. eigenvalues --   -2.19376  -2.19210  -2.19192  -2.19155  -1.13595
 Alpha  occ. eigenvalues --   -1.13573  -1.13570  -1.13188  -1.13155  -1.13137
 Alpha  occ. eigenvalues --   -1.13119  -1.13105  -1.13077  -1.13072  -1.13029
 Alpha  occ. eigenvalues --   -1.13006  -1.12909  -1.12904  -1.12865  -1.12852
 Alpha  occ. eigenvalues --   -1.12818  -1.12813  -1.12808  -1.12790  -1.12777
 Alpha  occ. eigenvalues --   -0.18855  -0.12941  -0.12581  -0.10846
 Alpha virt. eigenvalues --   -0.05629  -0.05029  -0.04654  -0.03122  -0.02987
 Alpha virt. eigenvalues --   -0.02614  -0.01514  -0.01039  -0.00300  -0.00214
 Alpha virt. eigenvalues --   -0.00021   0.00360   0.00818   0.00909   0.00920

  Beta  occ. eigenvalues --  -38.44127 -38.43594 -38.43482 -38.43467 -38.43319
  Beta  occ. eigenvalues --  -38.43291 -38.43151  -2.19923  -2.19469  -2.19368
  Beta  occ. eigenvalues --   -2.19292  -2.19184  -2.19151  -2.19086  -1.13583
  Beta  occ. eigenvalues --   -1.13576  -1.13573  -1.13175  -1.13127  -1.13106
  Beta  occ. eigenvalues --   -1.13066  -1.13024  -1.13008  -1.13005  -1.12971
  Beta  occ. eigenvalues --   -1.12957  -1.12876  -1.12869  -1.12829  -1.12808
  Beta  occ. eigenvalues --   -1.12797  -1.12789  -1.12779  -1.12733  -1.12723
  Beta  occ. eigenvalues --   -0.18104  -0.12717  -0.12331
  Beta virt. eigenvalues --   -0.06898  -0.05604  -0.05043  -0.04602  -0.02342
  Beta virt. eigenvalues --   -0.02175  -0.01549  -0.01426  -0.00972  -0.00350
  Beta virt. eigenvalues --   -0.00276   0.00121   0.00380   0.00863   0.00902

 Mulliken charges and spin densities:
               1          2
     1  Na   0.075766  -0.078553
     2  Na   0.256293  -0.006321
     3  Na   0.182050  -0.097326
     4  Na  -0.532154   0.763779
     5  Na  -0.018970  -0.098413
     6  Na   0.347974  -0.032273
     7  Na  -0.310959   0.549107
 Sum of Mulliken charges =  -0.00000   1.00000

 Dipole moment (field-independent basis, Debye):
    X=              0.1551    Y=             -0.0624    Z=              0.1206  Tot=              0.2061
 Quadrupole moment (field-independent basis, Debye-Ang):
   XX=            -56.3257   YY=            -63.4631   ZZ=            -73.7659
   XY=              0.1131   XZ=             -0.1488   YZ=              1.0505

 Normal termination of Gaussian 16 at Thu Dec  7 13:55:00 2023.
