 Gaussian 16, Revision B.01,
 Gaussian 16:  ES64L-G16RevB.01 20-Dec-2017

 -------------------------
 #P B3LYP/6-311+g(d) force
 -------------------------

 -----
 DPGEN
 -----
 Symbolic Z-matrix:
 Charge =  0 Multiplicity = 2

                         Standard orientation:
 ---------------------------------------------------------------------
 Center     Atomic      Atomic             Coordinates (Angstroms)
 Number     Number       Type             X           Y           Z
 ---------------------------------------------------------------------
      1         11           0        1.636029   -2.421715   -0.094902
      2         11           0        2.841603    0.822685   -0.171362
      3         11           0        0.028586   -0.305401   -1.505247
      4         11           0        0.327095    2.650187    0.096677
      5         11           0       -2.131219   -1.857812    0.091140
      6         11           0       -2.641785    1.211020   -0.365435
      7         11           0       -0.060309   -0.098964    1.949128
 ---------------------------------------------------------------------

 SCF Done:  E(UB3LYP) =  -1136.13456695     A.U. after   19 cycles

 The electronic state is 2-A.
 Alpha  occ. eigenvalues --  -38.43793 -38.43620 -38.43592 -38.43485 -38.43347
 Alpha  occ. eigenvalues --  -38.42977 -38.42956  -2.19689  -2.19548  -2.19503
 Alpha  occ. eigenvalues --   -2.19375  -2.19314  -2.19060  -2.18908  -1.13389
 Alpha  occ. eigenvalues --   -1.13346  -1.13333  -1.13310  -1.13223  -1.13214
 Alpha  occ. eigenvalues --   -1.13183  -1.13144  -1.13126  -1.13093  -1.13035
 Alpha  occ. eigenvalues --   -1.12989  -1.12986  -1.12937  -1.12919  -1.12728
 Alpha  occ. eigenvalues --   -1.12688  -1.12671  -1.12576  -1.12556  -1.12546
 Alpha  occ. eigenvalues --   -0.19530  -0.13374  -0.12665  -0.10913
 Alpha virt. eigenvalues --   -0.05372  -0.05129  -0.04465  -0.03228  -0.02865
 Alpha virt. eigenvalues --   -0.02455  -0.01383  -0.01049  -0.00074  -0.00031
 Alpha virt. eigenvalues --    0.00078   0.00364   0.00862   0.00934   0.00970

  Beta  occ. eigenvalues --  -38.43789 -38.43611 -38.43582 -38.43479 -38.43250
  Beta  occ. eigenvalues --  -38.42969 -38.42894  -2.19683  -2.19537  -2.19488
  Beta  occ. eigenvalues --   -2.19368  -2.19137  -2.18948  -2.18899  -1.13387
  Beta  occ. eigenvalues --   -1.13336  -1.13315  -1.13302  -1.13211  -1.13175
  Beta  occ. eigenvalues --   -1.13169  -1.13114  -1.13109  -1.13088  -1.13008
  Beta  occ. eigenvalues --   -1.12981  -1.12877  -1.12810  -1.12797  -1.12653
  Beta  occ. eigenvalues --   -1.12620  -1.12589  -1.12560  -1.12547  -1.12513
  Beta  occ. eigenvalues --   -0.18785  -0.13088  -0.12394
  Beta virt. eigenvalues --   -0.06936  -0.05356  -0.05110  -0.04464  -0.02393
  Beta virt. eigenvalues --   -0.02053  -0.01372  -0.01295  -0.00994  -0.00120
  Beta virt. eigenvalues --   -0.00028   0.00156   0.00388   0.00914   0.00931

 Mulliken charges and spin densities:
               1          2
     1  Na   0.333257  -0.050438
     2  Na   0.125956  -0.037672
     3  Na  -0.737069   0.322611
     4  Na   0.284409   0.031054
     5  Na   0.442786   0.012042
     6  Na   0.174999   0.026603
     7  Na  -0.624338   0.695800
 Sum of Mulliken charges =  -0.00000   1.00000

 Dipole moment (field-independent basis, Debye):
    X=              0.0642    Y=             -0.1760    Z=              0.2029  Tot=              0.2761
 Quadrupole moment (field-independent basis, Debye-Ang):
   XX=            -56.7723   YY=            -62.9931   ZZ=            -73.8511
   XY=             -0.2976   XZ=              0.2445   YZ=             -0.6361

 Normal termination of Gaussian 16 at Thu Dec  7 16:37:29 2023.
