 Gaussian 16, Revision B.01,
 Gaussian 16:  ES64L-G16RevB.01 20-Dec-2017

 -------------------------
 #P B3LYP/6-311+g(d) force
 -------------------------

 -----
 DPGEN
 -----
 Symbolic Z-matrix:
 Charge =  0 Multiplicity = 2

                         Standard orientation:
 ---------------------------------------------------------------------
 Center     Atomic      Atomic             Coordinates (Angstroms)
 Number     Number       Type             X           Y           Z
 ---------------------------------------------------------------------
      1         11           0       -1.394691    2.701228   -0.216357
      2         11           0       -2.929438   -0.272726    0.294039
      3         11           0       -0.654868   -2.636231   -0.581335
      4         11           0       -0.381525   -0.527969    1.630985
      5         11           0        2.598667   -1.538642    0.107003
      6         11           0        0.217266    0.321491   -1.574337
      7         11           0        2.544588    1.952848    0.340002
 ---------------------------------------------------------------------

 SCF Done:  E(UB3LYP) =  -1136.13269319     A.U. after   20 cycles

 The electronic state is 2-A.
 Alpha  occ. eigenvalues --  -38.44051 -38.43814 -38.43796 -38.43642 -38.43285
 Alpha  occ. eigenvalues --  -38.43209 -38.42831  -2.19856  -2.19727  -2.19673
 Alpha  occ. eigenvalues --   -2.19488  -2.19316  -2.19151  -2.18853  -1.13534
 Alpha  occ. eigenvalues --   -1.13532  -1.13517  -1.13496  -1.13364  -1.13348
 Alpha  occ. eigenvalues --   -1.13348  -1.13345  -1.13302  -1.13190  -1.13138
 Alpha  occ. eigenvalues --   -1.13114  -1.13038  -1.12943  -1.12923  -1.12834
 Alpha  occ. eigenvalues --   -1.12775  -1.12763  -1.12539  -1.12479  -1.12466
 Alpha  occ. eigenvalues --   -0.19113  -0.13261  -0.12653  -0.10490
 Alpha virt. eigenvalues --   -0.05569  -0.05298  -0.04695  -0.03133  -0.02853
 Alpha virt. eigenvalues --   -0.02029  -0.01451  -0.01214  -0.00421  -0.00235
 Alpha virt. eigenvalues --    0.00066   0.00349   0.00838   0.00859   0.00904

  Beta  occ. eigenvalues --  -38.44045 -38.43809 -38.43781 -38.43636 -38.43219
  Beta  occ. eigenvalues --  -38.43188 -38.42760  -2.19848  -2.19706  -2.19665
  Beta  occ. eigenvalues --   -2.19480  -2.19196  -2.19116  -2.18726  -1.13524
  Beta  occ. eigenvalues --   -1.13506  -1.13501  -1.13488  -1.13345  -1.13342
  Beta  occ. eigenvalues --   -1.13323  -1.13322  -1.13291  -1.13176  -1.13122
  Beta  occ. eigenvalues --   -1.13111  -1.12973  -1.12865  -1.12834  -1.12788
  Beta  occ. eigenvalues --   -1.12746  -1.12717  -1.12455  -1.12383  -1.12373
  Beta  occ. eigenvalues --   -0.18416  -0.12970  -0.12406
  Beta virt. eigenvalues --   -0.06610  -0.05523  -0.05241  -0.04653  -0.02373
  Beta virt. eigenvalues --   -0.02115  -0.01356  -0.01184  -0.01020  -0.00434
  Beta virt. eigenvalues --   -0.00247   0.00183   0.00398   0.00856   0.00894

 Mulliken charges and spin densities:
               1          2
     1  Na  -0.094708  -0.109526
     2  Na   0.472258   0.071378
     3  Na   0.185564   0.055643
     4  Na  -0.311557   0.593936
     5  Na   0.041142  -0.022947
     6  Na  -0.070853   0.436366
     7  Na  -0.221846  -0.024849
 Sum of Mulliken charges =  -0.00000   1.00000

 Dipole moment (field-independent basis, Debye):
    X=              0.2694    Y=              0.1973    Z=              0.0432  Tot=              0.3367
 Quadrupole moment (field-independent basis, Debye-Ang):
   XX=            -56.4872   YY=            -60.3834   ZZ=            -75.5674
   XY=             -0.2456   XZ=              1.3661   YZ=              1.8910

 Normal termination of Gaussian 16 at Wed Nov 29 02:14:27 2023.
