 Gaussian 16, Revision B.01,
 Gaussian 16:  ES64L-G16RevB.01 20-Dec-2017

 -------------------------
 #P B3LYP/6-311+g(d) force
 -------------------------

 -----
 DPGEN
 -----
 Symbolic Z-matrix:
 Charge =  0 Multiplicity = 2

                         Standard orientation:
 ---------------------------------------------------------------------
 Center     Atomic      Atomic             Coordinates (Angstroms)
 Number     Number       Type             X           Y           Z
 ---------------------------------------------------------------------
      1         11           0       -1.037705   -2.543321    0.320978
      2         11           0       -0.729352    2.754135    0.044642
      3         11           0       -3.114702    0.185134   -0.503601
      4         11           0        0.015408   -0.371072   -1.617611
      5         11           0        2.412508   -1.818411   -0.126503
      6         11           0       -0.174799    0.134035    2.076080
      7         11           0        2.628642    1.659501   -0.193985
 ---------------------------------------------------------------------

 SCF Done:  E(UB3LYP) =  -1136.13899087     A.U. after   19 cycles

 The electronic state is 2-A.
 Alpha  occ. eigenvalues --  -38.43854 -38.43723 -38.43653 -38.43611 -38.43294
 Alpha  occ. eigenvalues --  -38.43278 -38.43230  -2.19697  -2.19561  -2.19545
 Alpha  occ. eigenvalues --   -2.19472  -2.19238  -2.19204  -2.19132  -1.13380
 Alpha  occ. eigenvalues --   -1.13347  -1.13338  -1.13235  -1.13224  -1.13218
 Alpha  occ. eigenvalues --   -1.13204  -1.13190  -1.13183  -1.13172  -1.13125
 Alpha  occ. eigenvalues --   -1.13095  -1.13001  -1.12895  -1.12869  -1.12855
 Alpha  occ. eigenvalues --   -1.12812  -1.12808  -1.12807  -1.12793  -1.12757
 Alpha  occ. eigenvalues --   -0.18848  -0.12961  -0.12568  -0.10954
 Alpha virt. eigenvalues --   -0.05401  -0.05161  -0.04623  -0.03125  -0.03054
 Alpha virt. eigenvalues --   -0.02649  -0.01470  -0.01045  -0.00262  -0.00200
 Alpha virt. eigenvalues --   -0.00000   0.00354   0.00826   0.00904   0.00920

  Beta  occ. eigenvalues --  -38.43840 -38.43721 -38.43608 -38.43553 -38.43282
  Beta  occ. eigenvalues --  -38.43273 -38.43171  -2.19675  -2.19545  -2.19469
  Beta  occ. eigenvalues --   -2.19378  -2.19187  -2.19132  -2.19126  -1.13355
  Beta  occ. eigenvalues --   -1.13328  -1.13320  -1.13221  -1.13213  -1.13187
  Beta  occ. eigenvalues --   -1.13175  -1.13117  -1.13107  -1.13091  -1.13066
  Beta  occ. eigenvalues --   -1.13048  -1.12961  -1.12834  -1.12824  -1.12803
  Beta  occ. eigenvalues --   -1.12800  -1.12781  -1.12766  -1.12754  -1.12746
  Beta  occ. eigenvalues --   -0.18117  -0.12699  -0.12332
  Beta virt. eigenvalues --   -0.07006  -0.05351  -0.05165  -0.04571  -0.02388
  Beta virt. eigenvalues --   -0.02237  -0.01589  -0.01357  -0.00990  -0.00294
  Beta virt. eigenvalues --   -0.00231   0.00124   0.00386   0.00888   0.00901

 Mulliken charges and spin densities:
               1          2
     1  Na   0.353169   0.059777
     2  Na   0.093315  -0.042682
     3  Na   0.142343  -0.002003
     4  Na  -0.355315   0.453705
     5  Na   0.226099  -0.049348
     6  Na  -0.434104   0.662742
     7  Na  -0.025508  -0.082192
 Sum of Mulliken charges =  -0.00000   1.00000

 Dipole moment (field-independent basis, Debye):
    X=              0.0119    Y=              0.0208    Z=              0.1138  Tot=              0.1163
 Quadrupole moment (field-independent basis, Debye-Ang):
   XX=            -57.0575   YY=            -63.4263   ZZ=            -73.2963
   XY=             -0.1119   XZ=              0.6542   YZ=             -1.0920

 Normal termination of Gaussian 16 at Fri Dec  8 05:01:04 2023.
