 Gaussian 16, Revision B.01,
 Gaussian 16:  ES64L-G16RevB.01 20-Dec-2017

 -------------------------
 #P B3LYP/6-311+g(d) force
 -------------------------

 -----
 DPGEN
 -----
 Symbolic Z-matrix:
 Charge =  0 Multiplicity = 2

                         Standard orientation:
 ---------------------------------------------------------------------
 Center     Atomic      Atomic             Coordinates (Angstroms)
 Number     Number       Type             X           Y           Z
 ---------------------------------------------------------------------
      1         11           0       -0.881389    2.002186    0.455755
      2         11           0        2.046923   -1.472590   -0.844998
      3         11           0       -0.673587   -1.792595    0.842672
      4         11           0        1.103239    0.025194    1.899747
      5         11           0        1.958184    1.426415   -0.488083
      6         11           0       -0.328526    0.049131   -1.538436
      7         11           0       -3.224843   -0.237741   -0.326658
 ---------------------------------------------------------------------

 SCF Done:  E(UB3LYP) =  -1136.10211621     A.U. after   22 cycles

 The electronic state is 2-A.
 Alpha  occ. eigenvalues --  -38.44385 -38.44166 -38.43836 -38.43573 -38.43417
 Alpha  occ. eigenvalues --  -38.43044 -38.42779  -2.20505  -2.20086  -2.20057
 Alpha  occ. eigenvalues --   -2.19621  -2.19535  -2.19111  -2.18825  -1.14284
 Alpha  occ. eigenvalues --   -1.14194  -1.14073  -1.13900  -1.13841  -1.13770
 Alpha  occ. eigenvalues --   -1.13717  -1.13692  -1.13666  -1.13386  -1.13263
 Alpha  occ. eigenvalues --   -1.13225  -1.13188  -1.13168  -1.13059  -1.12822
 Alpha  occ. eigenvalues --   -1.12763  -1.12664  -1.12546  -1.12479  -1.12394
 Alpha  occ. eigenvalues --   -0.20849  -0.13864  -0.12374  -0.12104
 Alpha virt. eigenvalues --   -0.05704  -0.04096  -0.03850  -0.03617  -0.03049
 Alpha virt. eigenvalues --   -0.02975  -0.01507  -0.00465  -0.00245   0.00301
 Alpha virt. eigenvalues --    0.00551   0.00797   0.00907   0.01020   0.01047

  Beta  occ. eigenvalues --  -38.44292 -38.44165 -38.43767 -38.43542 -38.43397
  Beta  occ. eigenvalues --  -38.43015 -38.42764  -2.20335  -2.20058  -2.19963
  Beta  occ. eigenvalues --   -2.19571  -2.19504  -2.19063  -2.18803  -1.14160
  Beta  occ. eigenvalues --   -1.14087  -1.13949  -1.13825  -1.13779  -1.13716
  Beta  occ. eigenvalues --   -1.13704  -1.13686  -1.13605  -1.13353  -1.13223
  Beta  occ. eigenvalues --   -1.13174  -1.13155  -1.13103  -1.13029  -1.12782
  Beta  occ. eigenvalues --   -1.12695  -1.12639  -1.12535  -1.12424  -1.12386
  Beta  occ. eigenvalues --   -0.20034  -0.13600  -0.11825
  Beta virt. eigenvalues --   -0.08066  -0.05612  -0.04094  -0.03526  -0.03046
  Beta virt. eigenvalues --   -0.02208  -0.01942  -0.01398  -0.00423  -0.00029
  Beta virt. eigenvalues --    0.00333   0.00583   0.00789   0.00974   0.01054

 Mulliken charges and spin densities:
               1          2
     1  Na  -0.543259   0.115046
     2  Na   0.069523  -0.004776
     3  Na  -0.364066   0.230129
     4  Na   0.346580   0.345670
     5  Na   0.334854   0.003444
     6  Na  -0.334294   0.374935
     7  Na   0.490663  -0.064448
 Sum of Mulliken charges =  -0.00000   1.00000

 Dipole moment (field-independent basis, Debye):
    X=             -0.4172    Y=             -0.1148    Z=              0.1187  Tot=              0.4488
 Quadrupole moment (field-independent basis, Debye-Ang):
   XX=            -55.0321   YY=            -73.2770   ZZ=            -67.0040
   XY=             -0.3143   XZ=             -0.6992   YZ=              1.1162

 Normal termination of Gaussian 16 at Sat Dec  9 05:57:56 2023.
