 Gaussian 16, Revision B.01,
 Gaussian 16:  ES64L-G16RevB.01 20-Dec-2017

 -------------------------
 #P B3LYP/6-311+g(d) force
 -------------------------

 -----
 DPGEN
 -----
 Symbolic Z-matrix:
 Charge =  0 Multiplicity = 2

                         Standard orientation:
 ---------------------------------------------------------------------
 Center     Atomic      Atomic             Coordinates (Angstroms)
 Number     Number       Type             X           Y           Z
 ---------------------------------------------------------------------
      1         11           0       -4.355743   -0.662964    0.202744
      2         11           0       -1.834995   -2.750643   -0.308710
      3         11           0        0.465107    3.204939   -0.171789
      4         11           0        3.863518    0.734672   -0.795022
      5         11           0        1.005937   -1.798934   -0.754964
      6         11           0       -2.574581    2.468083    0.340195
      7         11           0        3.430756   -1.195153    1.487546
 ---------------------------------------------------------------------

 SCF Done:  E(UB3LYP) =  -1136.11164470     A.U. after   21 cycles

 The electronic state is 2-A.
 Alpha  occ. eigenvalues --  -38.45666 -38.45633 -38.44041 -38.43936 -38.43750
 Alpha  occ. eigenvalues --  -38.43461 -38.43232  -2.21493  -2.21476  -2.19921
 Alpha  occ. eigenvalues --   -2.19723  -2.19572  -2.19304  -2.19031  -1.15279
 Alpha  occ. eigenvalues --   -1.15151  -1.15137  -1.15117  -1.15106  -1.15029
 Alpha  occ. eigenvalues --   -1.13606  -1.13586  -1.13550  -1.13408  -1.13403
 Alpha  occ. eigenvalues --   -1.13376  -1.13219  -1.13218  -1.13202  -1.12985
 Alpha  occ. eigenvalues --   -1.12957  -1.12936  -1.12689  -1.12686  -1.12662
 Alpha  occ. eigenvalues --   -0.16700  -0.14280  -0.12569  -0.10557
 Alpha virt. eigenvalues --   -0.07080  -0.05657  -0.04376  -0.03483  -0.03057
 Alpha virt. eigenvalues --   -0.02429  -0.02101  -0.01413  -0.00995  -0.00544
 Alpha virt. eigenvalues --   -0.00471  -0.00239   0.00297   0.00423   0.00628

  Beta  occ. eigenvalues --  -38.45646 -38.45604 -38.43984 -38.43937 -38.43676
  Beta  occ. eigenvalues --  -38.43450 -38.43199  -2.21456  -2.21428  -2.19819
  Beta  occ. eigenvalues --   -2.19730  -2.19433  -2.19292  -2.18969  -1.15241
  Beta  occ. eigenvalues --   -1.15127  -1.15100  -1.15082  -1.15071  -1.14995
  Beta  occ. eigenvalues --   -1.13533  -1.13514  -1.13474  -1.13413  -1.13408
  Beta  occ. eigenvalues --   -1.13352  -1.13134  -1.13124  -1.13107  -1.12960
  Beta  occ. eigenvalues --   -1.12955  -1.12898  -1.12649  -1.12643  -1.12622
  Beta  occ. eigenvalues --   -0.16221  -0.13591  -0.12048
  Beta virt. eigenvalues --   -0.07250  -0.07074  -0.05397  -0.03948  -0.03012
  Beta virt. eigenvalues --   -0.02785  -0.02013  -0.01908  -0.01257  -0.00865
  Beta virt. eigenvalues --   -0.00429  -0.00151   0.00032   0.00385   0.00525

 Mulliken charges and spin densities:
               1          2
     1  Na   0.058846   0.351518
     2  Na   0.098360  -0.198339
     3  Na  -0.046409   0.054313
     4  Na   0.672806   0.261660
     5  Na  -1.341833   0.323446
     6  Na  -0.117949   0.082344
     7  Na   0.676178   0.125059
 Sum of Mulliken charges =  -0.00000   1.00000

 Dipole moment (field-independent basis, Debye):
    X=              2.6663    Y=             -0.5600    Z=              0.4102  Tot=              2.7552
 Quadrupole moment (field-independent basis, Debye-Ang):
   XX=            -60.3130   YY=            -73.8971   ZZ=            -66.4595
   XY=              1.7861   XZ=             -1.1415   YZ=             -3.9064

 Normal termination of Gaussian 16 at Sun Dec  3 15:03:34 2023.
