 Gaussian 16, Revision B.01,
 Gaussian 16:  ES64L-G16RevB.01 20-Dec-2017

 -------------------------
 #P B3LYP/6-311+g(d) force
 -------------------------

 -----
 DPGEN
 -----
 Symbolic Z-matrix:
 Charge =  0 Multiplicity = 2

                         Standard orientation:
 ---------------------------------------------------------------------
 Center     Atomic      Atomic             Coordinates (Angstroms)
 Number     Number       Type             X           Y           Z
 ---------------------------------------------------------------------
      1         11           0        3.180318   -0.440453    0.204609
      2         11           0        1.769796    2.693802    0.013035
      3         11           0       -1.880720    2.190463    0.216502
      4         11           0        0.171944    0.029368   -1.669513
      5         11           0        1.074449   -2.908311    0.092437
      6         11           0       -3.021954   -1.069399   -0.810064
      7         11           0       -1.293832   -0.495470    1.952993
 ---------------------------------------------------------------------

 SCF Done:  E(UB3LYP) =  -1136.13364382     A.U. after   19 cycles

 The electronic state is 2-A.
 Alpha  occ. eigenvalues --  -38.44350 -38.44168 -38.43926 -38.43682 -38.43570
 Alpha  occ. eigenvalues --  -38.43419 -38.43416  -2.20189  -2.20001  -2.19780
 Alpha  occ. eigenvalues --   -2.19562  -2.19391  -2.19336  -2.19229  -1.13855
 Alpha  occ. eigenvalues --   -1.13849  -1.13827  -1.13673  -1.13669  -1.13648
 Alpha  occ. eigenvalues --   -1.13490  -1.13450  -1.13397  -1.13215  -1.13198
 Alpha  occ. eigenvalues --   -1.13178  -1.13068  -1.13057  -1.13032  -1.13019
 Alpha  occ. eigenvalues --   -1.12970  -1.12967  -1.12900  -1.12886  -1.12871
 Alpha  occ. eigenvalues --   -0.18181  -0.13479  -0.12198  -0.10558
 Alpha virt. eigenvalues --   -0.05980  -0.05468  -0.04728  -0.03450  -0.02721
 Alpha virt. eigenvalues --   -0.02398  -0.01690  -0.01073  -0.00638  -0.00505
 Alpha virt. eigenvalues --   -0.00063   0.00350   0.00707   0.00789   0.00842

  Beta  occ. eigenvalues --  -38.44326 -38.44167 -38.43913 -38.43608 -38.43568
  Beta  occ. eigenvalues --  -38.43421 -38.43351  -2.20147  -2.20000  -2.19761
  Beta  occ. eigenvalues --   -2.19424  -2.19389  -2.19234  -2.19218  -1.13827
  Beta  occ. eigenvalues --   -1.13806  -1.13790  -1.13672  -1.13664  -1.13648
  Beta  occ. eigenvalues --   -1.13469  -1.13408  -1.13390  -1.13125  -1.13105
  Beta  occ. eigenvalues --   -1.13079  -1.13062  -1.13038  -1.13030  -1.12945
  Beta  occ. eigenvalues --   -1.12911  -1.12899  -1.12885  -1.12875  -1.12851
  Beta  occ. eigenvalues --   -0.17516  -0.13266  -0.12019
  Beta virt. eigenvalues --   -0.06688  -0.05902  -0.05354  -0.04620  -0.02809
  Beta virt. eigenvalues --   -0.02080  -0.01599  -0.01389  -0.00995  -0.00645
  Beta virt. eigenvalues --   -0.00523   0.00136   0.00416   0.00792   0.00833

 Mulliken charges and spin densities:
               1          2
     1  Na  -0.078837  -0.027763
     2  Na  -0.135817  -0.072511
     3  Na   0.046159   0.103166
     4  Na   0.324691   0.491108
     5  Na  -0.103167  -0.033143
     6  Na   0.155985  -0.014744
     7  Na  -0.209014   0.553887
 Sum of Mulliken charges =  -0.00000   1.00000

 Dipole moment (field-independent basis, Debye):
    X=             -0.1898    Y=             -0.1392    Z=              0.0402  Tot=              0.2388
 Quadrupole moment (field-independent basis, Debye-Ang):
   XX=            -56.1756   YY=            -63.9253   ZZ=            -74.6855
   XY=              0.9092   XZ=              2.6368   YZ=              0.7692

 Normal termination of Gaussian 16 at Thu Dec  7 22:58:09 2023.
