 Gaussian 16, Revision B.01,
 Gaussian 16:  ES64L-G16RevB.01 20-Dec-2017

 -------------------------
 #P B3LYP/6-311+g(d) force
 -------------------------

 -----
 DPGEN
 -----
 Symbolic Z-matrix:
 Charge =  0 Multiplicity = 2

                         Standard orientation:
 ---------------------------------------------------------------------
 Center     Atomic      Atomic             Coordinates (Angstroms)
 Number     Number       Type             X           Y           Z
 ---------------------------------------------------------------------
      1         11           0        3.060750    0.226552   -0.181407
      2         11           0        0.424917    3.128974   -0.208584
      3         11           0       -0.032538   -0.021996   -1.887586
      4         11           0       -2.416151   -1.879007    0.134261
      5         11           0       -2.753926    1.325020    0.153887
      6         11           0        0.688875    0.168262    2.106840
      7         11           0        1.028073   -2.947805   -0.117411
 ---------------------------------------------------------------------

 SCF Done:  E(UB3LYP) =  -1136.13793007     A.U. after   18 cycles

 The electronic state is 2-A.
 Alpha  occ. eigenvalues --  -38.44023 -38.43861 -38.43850 -38.43803 -38.43633
 Alpha  occ. eigenvalues --  -38.43584 -38.43537  -2.19851  -2.19718  -2.19648
 Alpha  occ. eigenvalues --   -2.19608  -2.19480  -2.19461  -2.19369  -1.13554
 Alpha  occ. eigenvalues --   -1.13524  -1.13475  -1.13370  -1.13346  -1.13340
 Alpha  occ. eigenvalues --   -1.13325  -1.13308  -1.13286  -1.13286  -1.13274
 Alpha  occ. eigenvalues --   -1.13245  -1.13178  -1.13151  -1.13133  -1.13112
 Alpha  occ. eigenvalues --   -1.13106  -1.13093  -1.13031  -1.13019  -1.12995
 Alpha  occ. eigenvalues --   -0.18175  -0.12808  -0.12456  -0.10804
 Alpha virt. eigenvalues --   -0.05696  -0.05068  -0.05020  -0.03265  -0.03020
 Alpha virt. eigenvalues --   -0.02733  -0.01327  -0.01262  -0.00525  -0.00454
 Alpha virt. eigenvalues --   -0.00055   0.00385   0.00814   0.00834   0.00861

  Beta  occ. eigenvalues --  -38.44017 -38.43846 -38.43800 -38.43774 -38.43631
  Beta  occ. eigenvalues --  -38.43535 -38.43509  -2.19845  -2.19644  -2.19606
  Beta  occ. eigenvalues --   -2.19555  -2.19459  -2.19367  -2.19341  -1.13538
  Beta  occ. eigenvalues --   -1.13496  -1.13476  -1.13314  -1.13300  -1.13288
  Beta  occ. eigenvalues --   -1.13280  -1.13264  -1.13259  -1.13247  -1.13233
  Beta  occ. eigenvalues --   -1.13216  -1.13174  -1.13111  -1.13107  -1.13062
  Beta  occ. eigenvalues --   -1.13031  -1.13016  -1.13004  -1.12997  -1.12992
  Beta  occ. eigenvalues --   -0.17447  -0.12590  -0.12261
  Beta virt. eigenvalues --   -0.06933  -0.05698  -0.05059  -0.04844  -0.02490
  Beta virt. eigenvalues --   -0.02277  -0.01716  -0.01247  -0.01182  -0.00588
  Beta virt. eigenvalues --   -0.00503   0.00103   0.00414   0.00816   0.00873

 Mulliken charges and spin densities:
               1          2
     1  Na   0.320047  -0.127015
     2  Na   0.118028  -0.098779
     3  Na  -0.080902   0.654270
     4  Na  -0.025740  -0.053996
     5  Na  -0.006669  -0.051055
     6  Na  -0.427882   0.762056
     7  Na   0.103117  -0.085481
 Sum of Mulliken charges =  -0.00000   1.00000

 Dipole moment (field-independent basis, Debye):
    X=              0.3326    Y=              0.0701    Z=              0.0292  Tot=              0.3412
 Quadrupole moment (field-independent basis, Debye-Ang):
   XX=            -60.8671   YY=            -60.3776   ZZ=            -73.5282
   XY=             -0.1758   XZ=             -1.5503   YZ=             -0.3968

 Normal termination of Gaussian 16 at Thu Dec  7 20:12:26 2023.
