 Gaussian 16, Revision B.01,
 Gaussian 16:  ES64L-G16RevB.01 20-Dec-2017

 -------------------------
 #P B3LYP/6-311+g(d) force
 -------------------------

 -----
 DPGEN
 -----
 Symbolic Z-matrix:
 Charge =  0 Multiplicity = 2

                         Standard orientation:
 ---------------------------------------------------------------------
 Center     Atomic      Atomic             Coordinates (Angstroms)
 Number     Number       Type             X           Y           Z
 ---------------------------------------------------------------------
      1         11           0        3.294938   -1.103113    0.554692
      2         11           0        0.662319    0.194813   -1.765812
      3         11           0        1.742684    2.931408   -0.559349
      4         11           0       -3.526167    1.736588    0.194865
      5         11           0        0.211336   -2.622994   -0.265908
      6         11           0        0.331683    0.651731    1.988848
      7         11           0       -2.716795   -1.788433   -0.147336
 ---------------------------------------------------------------------

 SCF Done:  E(UB3LYP) =  -1136.11990832     A.U. after   23 cycles

 The electronic state is 2-A.
 Alpha  occ. eigenvalues --  -38.44925 -38.44833 -38.44577 -38.43946 -38.43840
 Alpha  occ. eigenvalues --  -38.43770 -38.42906  -2.20718  -2.20561  -2.20378
 Alpha  occ. eigenvalues --   -2.19767  -2.19678  -2.19652  -2.18811  -1.14383
 Alpha  occ. eigenvalues --   -1.14364  -1.14354  -1.14236  -1.14216  -1.14200
 Alpha  occ. eigenvalues --   -1.14057  -1.14022  -1.13992  -1.13477  -1.13430
 Alpha  occ. eigenvalues --   -1.13409  -1.13394  -1.13350  -1.13312  -1.13291
 Alpha  occ. eigenvalues --   -1.13288  -1.13248  -1.12499  -1.12475  -1.12437
 Alpha  occ. eigenvalues --   -0.17761  -0.13044  -0.12034  -0.10749
 Alpha virt. eigenvalues --   -0.06822  -0.05569  -0.04253  -0.03148  -0.02834
 Alpha virt. eigenvalues --   -0.02618  -0.02262  -0.01385  -0.01009  -0.00291
 Alpha virt. eigenvalues --   -0.00175   0.00207   0.00440   0.00599   0.00794

  Beta  occ. eigenvalues --  -38.44897 -38.44831 -38.44515 -38.43946 -38.43817
  Beta  occ. eigenvalues --  -38.43701 -38.42897  -2.20668  -2.20556  -2.20264
  Beta  occ. eigenvalues --   -2.19768  -2.19614  -2.19551  -2.18799  -1.14334
  Beta  occ. eigenvalues --   -1.14330  -1.14322  -1.14230  -1.14214  -1.14197
  Beta  occ. eigenvalues --   -1.13979  -1.13946  -1.13902  -1.13480  -1.13424
  Beta  occ. eigenvalues --   -1.13392  -1.13347  -1.13271  -1.13266  -1.13249
  Beta  occ. eigenvalues --   -1.13225  -1.13177  -1.12488  -1.12469  -1.12408
  Beta  occ. eigenvalues --   -0.17116  -0.12801  -0.11743
  Beta virt. eigenvalues --   -0.07156  -0.06515  -0.05368  -0.04213  -0.02592
  Beta virt. eigenvalues --   -0.02323  -0.02099  -0.01579  -0.01257  -0.01005
  Beta virt. eigenvalues --   -0.00286  -0.00012   0.00279   0.00548   0.00668

 Mulliken charges and spin densities:
               1          2
     1  Na   0.138890   0.160472
     2  Na   0.382625   0.350167
     3  Na  -0.171108  -0.090151
     4  Na   0.005589   0.012827
     5  Na   0.184290   0.099345
     6  Na  -0.282743   0.535766
     7  Na  -0.257543  -0.068426
 Sum of Mulliken charges =  -0.00000   1.00000

 Dipole moment (field-independent basis, Debye):
    X=              0.4785    Y=              0.4415    Z=              0.2312  Tot=              0.6909
 Quadrupole moment (field-independent basis, Debye-Ang):
   XX=            -55.3039   YY=            -65.7364   ZZ=            -74.1822
   XY=             -1.5019   XZ=              1.0370   YZ=             -0.4536

 Normal termination of Gaussian 16 at Fri Dec  8 03:56:51 2023.
