 Gaussian 16, Revision B.01,
 Gaussian 16:  ES64L-G16RevB.01 20-Dec-2017

 -------------------------
 #P B3LYP/6-311+g(d) force
 -------------------------

 -----
 DPGEN
 -----
 Symbolic Z-matrix:
 Charge =  0 Multiplicity = 2

                         Standard orientation:
 ---------------------------------------------------------------------
 Center     Atomic      Atomic             Coordinates (Angstroms)
 Number     Number       Type             X           Y           Z
 ---------------------------------------------------------------------
      1         11           0        0.432873    1.549248   -1.628292
      2         11           0        2.417011   -0.812177    2.070383
      3         11           0        3.833381   -0.289468   -1.414325
      4         11           0       -0.202594   -1.939499   -0.006647
      5         11           0       -0.620273    2.077679    1.733178
      6         11           0       -3.459416   -1.786977   -0.363741
      7         11           0       -2.400983    1.201194   -0.390555
 ---------------------------------------------------------------------

 SCF Done:  E(UB3LYP) =  -1136.11771377     A.U. after   21 cycles

 The electronic state is 2-A.
 Alpha  occ. eigenvalues --  -38.45077 -38.44433 -38.44321 -38.44002 -38.43987
 Alpha  occ. eigenvalues --  -38.43650 -38.43200  -2.20833  -2.20225  -2.20171
 Alpha  occ. eigenvalues --   -2.19857  -2.19820  -2.19630  -2.19043  -1.14503
 Alpha  occ. eigenvalues --   -1.14485  -1.14452  -1.13897  -1.13883  -1.13872
 Alpha  occ. eigenvalues --   -1.13841  -1.13825  -1.13784  -1.13655  -1.13520
 Alpha  occ. eigenvalues --   -1.13511  -1.13484  -1.13469  -1.13429  -1.13314
 Alpha  occ. eigenvalues --   -1.13267  -1.13210  -1.12716  -1.12690  -1.12683
 Alpha  occ. eigenvalues --   -0.17786  -0.13555  -0.11775  -0.11396
 Alpha virt. eigenvalues --   -0.06655  -0.05310  -0.04612  -0.03415  -0.02944
 Alpha virt. eigenvalues --   -0.02586  -0.02333  -0.01045  -0.00859   0.00004
 Alpha virt. eigenvalues --    0.00077   0.00152   0.00226   0.00428   0.00592

  Beta  occ. eigenvalues --  -38.45038 -38.44378 -38.44281 -38.43992 -38.43948
  Beta  occ. eigenvalues --  -38.43647 -38.43204  -2.20760  -2.20124  -2.20096
  Beta  occ. eigenvalues --   -2.19805  -2.19783  -2.19625  -2.19051  -1.14454
  Beta  occ. eigenvalues --   -1.14423  -1.14407  -1.13832  -1.13823  -1.13801
  Beta  occ. eigenvalues --   -1.13775  -1.13771  -1.13726  -1.13614  -1.13506
  Beta  occ. eigenvalues --   -1.13488  -1.13437  -1.13421  -1.13412  -1.13300
  Beta  occ. eigenvalues --   -1.13258  -1.13201  -1.12721  -1.12694  -1.12687
  Beta  occ. eigenvalues --   -0.17257  -0.13178  -0.11660
  Beta virt. eigenvalues --   -0.07699  -0.06392  -0.04683  -0.04289  -0.03301
  Beta virt. eigenvalues --   -0.02291  -0.02213  -0.02062  -0.00884  -0.00494
  Beta virt. eigenvalues --    0.00112   0.00172   0.00222   0.00379   0.00650

 Mulliken charges and spin densities:
               1          2
     1  Na  -0.337338   0.163671
     2  Na   0.390773   0.213763
     3  Na   0.194992   0.133288
     4  Na  -0.781613   0.189561
     5  Na  -0.325941   0.149644
     6  Na   0.169129  -0.120667
     7  Na   0.689997   0.270740
 Sum of Mulliken charges =  -0.00000   1.00000

 Dipole moment (field-independent basis, Debye):
    X=              0.8609    Y=              0.2847    Z=              0.1434  Tot=              0.9180
 Quadrupole moment (field-independent basis, Debye-Ang):
   XX=            -55.2288   YY=            -75.2971   ZZ=            -66.5499
   XY=             -1.8789   XZ=             -0.6321   YZ=              0.8755

 Normal termination of Gaussian 16 at Sun Dec  3 14:33:28 2023.
