 Gaussian 16, Revision B.01,
 Gaussian 16:  ES64L-G16RevB.01 20-Dec-2017

 -------------------------
 #P B3LYP/6-311+g(d) force
 -------------------------

 -----
 DPGEN
 -----
 Symbolic Z-matrix:
 Charge =  0 Multiplicity = 2

                         Standard orientation:
 ---------------------------------------------------------------------
 Center     Atomic      Atomic             Coordinates (Angstroms)
 Number     Number       Type             X           Y           Z
 ---------------------------------------------------------------------
      1         11           0       -3.291478   -1.848199   -1.312885
      2         11           0       -2.872757    1.509844   -0.216035
      3         11           0       -1.395879   -1.880802    1.386899
      4         11           0        2.404701    2.463199   -0.751548
      5         11           0        1.961781   -3.454009    0.385038
      6         11           0        3.636711   -0.513812   -0.423747
      7         11           0       -0.443078    3.723780    0.932278
 ---------------------------------------------------------------------

 SCF Done:  E(UB3LYP) =  -1136.11606851     A.U. after   21 cycles

 The electronic state is 2-A.
 Alpha  occ. eigenvalues --  -38.45507 -38.45070 -38.44356 -38.44049 -38.43932
 Alpha  occ. eigenvalues --  -38.43759 -38.43550  -2.21275  -2.20854  -2.20181
 Alpha  occ. eigenvalues --   -2.19858  -2.19736  -2.19543  -2.19351  -1.14971
 Alpha  occ. eigenvalues --   -1.14952  -1.14886  -1.14551  -1.14532  -1.14462
 Alpha  occ. eigenvalues --   -1.13838  -1.13828  -1.13799  -1.13555  -1.13525
 Alpha  occ. eigenvalues --   -1.13491  -1.13408  -1.13395  -1.13361  -1.13206
 Alpha  occ. eigenvalues --   -1.13185  -1.13178  -1.13012  -1.13002  -1.12992
 Alpha  occ. eigenvalues --   -0.16076  -0.13821  -0.13109  -0.10487
 Alpha virt. eigenvalues --   -0.06896  -0.05757  -0.04163  -0.03538  -0.03088
 Alpha virt. eigenvalues --   -0.02382  -0.01730  -0.01601  -0.01347  -0.01182
 Alpha virt. eigenvalues --   -0.00242  -0.00158   0.00155   0.00508   0.00624

  Beta  occ. eigenvalues --  -38.45500 -38.45047 -38.44305 -38.44010 -38.43910
  Beta  occ. eigenvalues --  -38.43720 -38.43520  -2.21264  -2.20817  -2.20086
  Beta  occ. eigenvalues --   -2.19788  -2.19702  -2.19470  -2.19297  -1.14963
  Beta  occ. eigenvalues --   -1.14949  -1.14858  -1.14528  -1.14513  -1.14402
  Beta  occ. eigenvalues --   -1.13772  -1.13763  -1.13737  -1.13501  -1.13482
  Beta  occ. eigenvalues --   -1.13434  -1.13389  -1.13373  -1.13307  -1.13156
  Beta  occ. eigenvalues --   -1.13141  -1.13126  -1.12976  -1.12965  -1.12950
  Beta  occ. eigenvalues --   -0.15627  -0.13162  -0.12532
  Beta virt. eigenvalues --   -0.07229  -0.06928  -0.05362  -0.03886  -0.03209
  Beta virt. eigenvalues --   -0.02707  -0.02085  -0.01503  -0.01396  -0.01194
  Beta virt. eigenvalues --   -0.00931  -0.00051   0.00111   0.00360   0.00549

 Mulliken charges and spin densities:
               1          2
     1  Na   0.208323   0.245043
     2  Na  -0.175070   0.203565
     3  Na   0.025979   0.026083
     4  Na  -0.162079   0.123527
     5  Na   0.011772   0.209650
     6  Na   0.060390   0.070491
     7  Na   0.030685   0.121642
 Sum of Mulliken charges =  -0.00000   1.00000

 Dipole moment (field-independent basis, Debye):
    X=             -1.4159    Y=             -0.5776    Z=             -0.1715  Tot=              1.5388
 Quadrupole moment (field-independent basis, Debye-Ang):
   XX=            -67.3700   YY=            -66.7912   ZZ=            -67.4972
   XY=              0.8963   XZ=              1.1431   YZ=              1.8069

 Normal termination of Gaussian 16 at Mon Dec  4 04:34:43 2023.
