 Gaussian 16, Revision B.01,
 Gaussian 16:  ES64L-G16RevB.01 20-Dec-2017

 -------------------------
 #P B3LYP/6-311+g(d) force
 -------------------------

 -----
 DPGEN
 -----
 Symbolic Z-matrix:
 Charge =  0 Multiplicity = 2

                         Standard orientation:
 ---------------------------------------------------------------------
 Center     Atomic      Atomic             Coordinates (Angstroms)
 Number     Number       Type             X           Y           Z
 ---------------------------------------------------------------------
      1         11           0        4.344350    0.616402    1.106471
      2         11           0        0.333132   -2.781929   -0.080410
      3         11           0       -3.562879   -2.224754    0.082582
      4         11           0       -4.522698    0.616539    0.804312
      5         11           0       -1.895857    2.557386   -1.084291
      6         11           0        3.602376   -2.162515   -0.785905
      7         11           0        1.701576    3.378872   -0.042758
 ---------------------------------------------------------------------

 SCF Done:  E(UB3LYP) =  -1136.10392284     A.U. after   24 cycles

 The electronic state is 2-A.
 Alpha  occ. eigenvalues --  -38.45080 -38.44777 -38.44771 -38.44728 -38.44716
 Alpha  occ. eigenvalues --  -38.44425 -38.44008  -2.20873  -2.20544  -2.20535
 Alpha  occ. eigenvalues --   -2.20526  -2.20436  -2.20212  -2.19791  -1.14574
 Alpha  occ. eigenvalues --   -1.14536  -1.14518  -1.14223  -1.14215  -1.14203
 Alpha  occ. eigenvalues --   -1.14202  -1.14188  -1.14184  -1.14176  -1.14166
 Alpha  occ. eigenvalues --   -1.14134  -1.14132  -1.14116  -1.14070  -1.13868
 Alpha  occ. eigenvalues --   -1.13846  -1.13836  -1.13450  -1.13441  -1.13409
 Alpha  occ. eigenvalues --   -0.15535  -0.14185  -0.12614  -0.10683
 Alpha virt. eigenvalues --   -0.07716  -0.05224  -0.04723  -0.03500  -0.03338
 Alpha virt. eigenvalues --   -0.02638  -0.02171  -0.01592  -0.01330  -0.00942
 Alpha virt. eigenvalues --   -0.00713  -0.00214   0.00043   0.00254   0.00544

  Beta  occ. eigenvalues --  -38.45063 -38.44783 -38.44746 -38.44728 -38.44680
  Beta  occ. eigenvalues --  -38.44352 -38.43942  -2.20847  -2.20572  -2.20475
  Beta  occ. eigenvalues --   -2.20470  -2.20436  -2.20075  -2.19667  -1.14545
  Beta  occ. eigenvalues --   -1.14522  -1.14482  -1.14247  -1.14237  -1.14185
  Beta  occ. eigenvalues --   -1.14161  -1.14146  -1.14142  -1.14141  -1.14134
  Beta  occ. eigenvalues --   -1.14127  -1.14113  -1.14082  -1.14059  -1.13772
  Beta  occ. eigenvalues --   -1.13757  -1.13748  -1.13365  -1.13357  -1.13330
  Beta  occ. eigenvalues --   -0.14967  -0.13600  -0.11990
  Beta virt. eigenvalues --   -0.07814  -0.07547  -0.04647  -0.04372  -0.03221
  Beta virt. eigenvalues --   -0.03027  -0.02380  -0.02075  -0.01525  -0.00945
  Beta virt. eigenvalues --   -0.00720  -0.00511  -0.00045   0.00249   0.00297

 Mulliken charges and spin densities:
               1          2
     1  Na   0.069511   0.375121
     2  Na  -0.398549   0.296757
     3  Na   0.144539   0.094035
     4  Na   0.051255   0.160409
     5  Na  -0.185364   0.238449
     6  Na   0.287388  -0.053405
     7  Na   0.031219  -0.111365
 Sum of Mulliken charges =  -0.00000   1.00000

 Dipole moment (field-independent basis, Debye):
    X=             -0.6453    Y=             -0.1593    Z=              0.0733  Tot=              0.6687
 Quadrupole moment (field-independent basis, Debye-Ang):
   XX=            -59.7110   YY=            -69.6717   ZZ=            -70.5143
   XY=             -1.2167   XZ=             -1.0382   YZ=              2.6852

 Normal termination of Gaussian 16 at Sun Dec  3 21:29:20 2023.
