 Gaussian 16, Revision B.01,
 Gaussian 16:  ES64L-G16RevB.01 20-Dec-2017

 -------------------------
 #P B3LYP/6-311+g(d) force
 -------------------------

 -----
 DPGEN
 -----
 Symbolic Z-matrix:
 Charge =  0 Multiplicity = 2

                         Standard orientation:
 ---------------------------------------------------------------------
 Center     Atomic      Atomic             Coordinates (Angstroms)
 Number     Number       Type             X           Y           Z
 ---------------------------------------------------------------------
      1         11           0       -2.997601   -0.727084    1.027022
      2         11           0       -2.688652    2.809325    0.638036
      3         11           0        2.809299    0.518360   -0.698585
      4         11           0       -2.328131   -3.265213   -0.261492
      5         11           0        5.208044   -0.539556    1.185486
      6         11           0       -0.231088    2.502001   -0.881960
      7         11           0        0.228129   -1.297833   -1.008506
 ---------------------------------------------------------------------

 SCF Done:  E(UB3LYP) =  -1136.11946253     A.U. after   20 cycles

 The electronic state is 2-A.
 Alpha  occ. eigenvalues --  -38.44589 -38.44586 -38.44319 -38.44075 -38.44057
 Alpha  occ. eigenvalues --  -38.43501 -38.43286  -2.20448  -2.20404  -2.20182
 Alpha  occ. eigenvalues --   -2.19932  -2.19929  -2.19357  -2.19154  -1.14167
 Alpha  occ. eigenvalues --   -1.14111  -1.14090  -1.14039  -1.14030  -1.14025
 Alpha  occ. eigenvalues --   -1.13866  -1.13845  -1.13819  -1.13667  -1.13598
 Alpha  occ. eigenvalues --   -1.13586  -1.13569  -1.13562  -1.13553  -1.13014
 Alpha  occ. eigenvalues --   -1.12993  -1.12986  -1.12850  -1.12821  -1.12806
 Alpha  occ. eigenvalues --   -0.17074  -0.14140  -0.12918  -0.11248
 Alpha virt. eigenvalues --   -0.05883  -0.05598  -0.04358  -0.04108  -0.02636
 Alpha virt. eigenvalues --   -0.02125  -0.02036  -0.01551  -0.01034  -0.00724
 Alpha virt. eigenvalues --   -0.00223   0.00123   0.00235   0.00312   0.00706

  Beta  occ. eigenvalues --  -38.44561 -38.44474 -38.44279 -38.44064 -38.44056
  Beta  occ. eigenvalues --  -38.43489 -38.43281  -2.20396  -2.20195  -2.20108
  Beta  occ. eigenvalues --   -2.19928  -2.19912  -2.19334  -2.19156  -1.14129
  Beta  occ. eigenvalues --   -1.14075  -1.14056  -1.13900  -1.13887  -1.13884
  Beta  occ. eigenvalues --   -1.13820  -1.13798  -1.13760  -1.13653  -1.13587
  Beta  occ. eigenvalues --   -1.13576  -1.13562  -1.13549  -1.13546  -1.13002
  Beta  occ. eigenvalues --   -1.12977  -1.12963  -1.12854  -1.12830  -1.12738
  Beta  occ. eigenvalues --   -0.16566  -0.13398  -0.12704
  Beta virt. eigenvalues --   -0.07733  -0.05557  -0.05205  -0.03951  -0.03932
  Beta virt. eigenvalues --   -0.02383  -0.01862  -0.01595  -0.01304  -0.00934
  Beta virt. eigenvalues --   -0.00363   0.00068   0.00318   0.00383   0.00430

 Mulliken charges and spin densities:
               1          2
     1  Na  -0.448037   0.212138
     2  Na   0.373485   0.141041
     3  Na  -0.314242   0.054851
     4  Na   1.110184  -0.005838
     5  Na   0.451822   0.497921
     6  Na  -0.209654  -0.020347
     7  Na  -0.963557   0.120233
 Sum of Mulliken charges =  -0.00000   1.00000

 Dipole moment (field-independent basis, Debye):
    X=             -0.5820    Y=             -0.8355    Z=              0.1626  Tot=              1.0311
 Quadrupole moment (field-independent basis, Debye-Ang):
   XX=            -66.1790   YY=            -62.8314   ZZ=            -69.1402
   XY=              2.0257   XZ=              0.3930   YZ=             -0.2174

 Normal termination of Gaussian 16 at Wed Nov 29 01:54:12 2023.
