 Gaussian 16, Revision B.01,
 Gaussian 16:  ES64L-G16RevB.01 20-Dec-2017

 -------------------------
 #P B3LYP/6-311+g(d) force
 -------------------------

 -----
 DPGEN
 -----
 Symbolic Z-matrix:
 Charge =  0 Multiplicity = 2

                         Standard orientation:
 ---------------------------------------------------------------------
 Center     Atomic      Atomic             Coordinates (Angstroms)
 Number     Number       Type             X           Y           Z
 ---------------------------------------------------------------------
      1         11           0       -0.528304   -0.516376   -1.692749
      2         11           0       -1.123951    1.012647    1.616064
      3         11           0        2.665433   -2.144989   -0.574544
      4         11           0        0.092179    3.478642   -0.323954
      5         11           0       -3.525875   -1.000220   -0.661423
      6         11           0        2.357559    1.214859    0.021019
      7         11           0        0.062959   -2.044562    1.615588
 ---------------------------------------------------------------------

 SCF Done:  E(UB3LYP) =  -1136.13344057     A.U. after   19 cycles

 The electronic state is 2-A.
 Alpha  occ. eigenvalues --  -38.43983 -38.43954 -38.43844 -38.43790 -38.43638
 Alpha  occ. eigenvalues --  -38.43549 -38.43444  -2.19846  -2.19756  -2.19725
 Alpha  occ. eigenvalues --   -2.19643  -2.19526  -2.19381  -2.19274  -1.13548
 Alpha  occ. eigenvalues --   -1.13490  -1.13477  -1.13454  -1.13412  -1.13406
 Alpha  occ. eigenvalues --   -1.13383  -1.13366  -1.13336  -1.13322  -1.13308
 Alpha  occ. eigenvalues --   -1.13283  -1.13221  -1.13184  -1.13131  -1.13037
 Alpha  occ. eigenvalues --   -1.13029  -1.13014  -1.12935  -1.12934  -1.12916
 Alpha  occ. eigenvalues --   -0.18100  -0.12716  -0.12627  -0.11140
 Alpha virt. eigenvalues --   -0.05531  -0.05259  -0.04766  -0.03276  -0.02995
 Alpha virt. eigenvalues --   -0.02692  -0.01613  -0.01322  -0.00561  -0.00210
 Alpha virt. eigenvalues --    0.00153   0.00275   0.00654   0.00751   0.00812

  Beta  occ. eigenvalues --  -38.43935 -38.43918 -38.43789 -38.43784 -38.43584
  Beta  occ. eigenvalues --  -38.43550 -38.43441  -2.19729  -2.19722  -2.19635
  Beta  occ. eigenvalues --   -2.19625  -2.19428  -2.19384  -2.19270  -1.13460
  Beta  occ. eigenvalues --   -1.13433  -1.13400  -1.13389  -1.13377  -1.13361
  Beta  occ. eigenvalues --   -1.13338  -1.13319  -1.13304  -1.13300  -1.13280
  Beta  occ. eigenvalues --   -1.13243  -1.13152  -1.13107  -1.13076  -1.13033
  Beta  occ. eigenvalues --   -1.13027  -1.13003  -1.12935  -1.12919  -1.12914
  Beta  occ. eigenvalues --   -0.17413  -0.12522  -0.12388
  Beta virt. eigenvalues --   -0.07217  -0.05367  -0.05165  -0.04532  -0.02665
  Beta virt. eigenvalues --   -0.02578  -0.01765  -0.01462  -0.01296  -0.00253
  Beta virt. eigenvalues --   -0.00144   0.00241   0.00334   0.00758   0.00829

 Mulliken charges and spin densities:
               1          2
     1  Na  -0.374988   0.564230
     2  Na   0.238908   0.341715
     3  Na   0.554732   0.008808
     4  Na   0.234336  -0.109249
     5  Na  -0.025837  -0.072965
     6  Na  -0.394731   0.085442
     7  Na  -0.232420   0.182019
 Sum of Mulliken charges =  -0.00000   1.00000

 Dipole moment (field-independent basis, Debye):
    X=             -0.2178    Y=             -0.0329    Z=             -0.0866  Tot=              0.2367
 Quadrupole moment (field-independent basis, Debye-Ang):
   XX=            -60.4705   YY=            -62.4252   ZZ=            -71.6308
   XY=             -1.5094   XZ=             -1.1023   YZ=             -1.4095

 Normal termination of Gaussian 16 at Thu Dec  7 21:47:58 2023.
