 Gaussian 16, Revision B.01,
 Gaussian 16:  ES64L-G16RevB.01 20-Dec-2017

 -------------------------
 #P B3LYP/6-311+g(d) force
 -------------------------

 -----
 DPGEN
 -----
 Symbolic Z-matrix:
 Charge =  0 Multiplicity = 2

                         Standard orientation:
 ---------------------------------------------------------------------
 Center     Atomic      Atomic             Coordinates (Angstroms)
 Number     Number       Type             X           Y           Z
 ---------------------------------------------------------------------
      1         11           0        4.395481   -0.796783   -0.519293
      2         11           0       -1.696715   -0.503423    2.116603
      3         11           0        1.218284   -1.755382    0.620754
      4         11           0       -2.259300   -2.172744   -1.293281
      5         11           0       -0.923359    2.258755    0.079222
      6         11           0       -3.820674    1.042654   -0.777107
      7         11           0        3.086284    1.926923   -0.226899
 ---------------------------------------------------------------------

 SCF Done:  E(UB3LYP) =  -1136.11702985     A.U. after   24 cycles

 The electronic state is 2-A.
 Alpha  occ. eigenvalues --  -38.44723 -38.44664 -38.44609 -38.44460 -38.44244
 Alpha  occ. eigenvalues --  -38.43549 -38.43293  -2.20561  -2.20459  -2.20439
 Alpha  occ. eigenvalues --   -2.20241  -2.20075  -2.19347  -2.19110  -1.14310
 Alpha  occ. eigenvalues --   -1.14208  -1.14197  -1.14126  -1.14121  -1.14109
 Alpha  occ. eigenvalues --   -1.14078  -1.14056  -1.14054  -1.13923  -1.13893
 Alpha  occ. eigenvalues --   -1.13856  -1.13749  -1.13719  -1.13705  -1.13040
 Alpha  occ. eigenvalues --   -1.13037  -1.12956  -1.12786  -1.12775  -1.12747
 Alpha  occ. eigenvalues --   -0.17084  -0.14484  -0.11309  -0.11009
 Alpha virt. eigenvalues --   -0.06834  -0.06027  -0.04163  -0.03308  -0.03120
 Alpha virt. eigenvalues --   -0.02501  -0.02222  -0.01632  -0.00955  -0.00802
 Alpha virt. eigenvalues --   -0.00089   0.00043   0.00291   0.00399   0.00677

  Beta  occ. eigenvalues --  -38.44700 -38.44666 -38.44554 -38.44413 -38.44199
  Beta  occ. eigenvalues --  -38.43537 -38.43274  -2.20518  -2.20464  -2.20340
  Beta  occ. eigenvalues --   -2.20155  -2.19994  -2.19328  -2.19076  -1.14289
  Beta  occ. eigenvalues --   -1.14180  -1.14171  -1.14130  -1.14107  -1.14042
  Beta  occ. eigenvalues --   -1.14039  -1.14009  -1.13987  -1.13867  -1.13835
  Beta  occ. eigenvalues --   -1.13782  -1.13696  -1.13670  -1.13630  -1.13031
  Beta  occ. eigenvalues --   -1.13008  -1.12942  -1.12762  -1.12739  -1.12726
  Beta  occ. eigenvalues --   -0.16435  -0.14074  -0.11156
  Beta virt. eigenvalues --   -0.07338  -0.06560  -0.05883  -0.03657  -0.03153
  Beta virt. eigenvalues --   -0.02721  -0.02230  -0.01621  -0.01380  -0.00817
  Beta virt. eigenvalues --   -0.00430  -0.00069   0.00169   0.00434   0.00495

 Mulliken charges and spin densities:
               1          2
     1  Na   0.361867   0.112817
     2  Na   0.450242   0.279224
     3  Na  -0.817040   0.086984
     4  Na   0.121381   0.193953
     5  Na  -0.366384  -0.047801
     6  Na   0.323750   0.399303
     7  Na  -0.073817  -0.024479
 Sum of Mulliken charges =  -0.00000   1.00000

 Dipole moment (field-independent basis, Debye):
    X=              0.5841    Y=             -0.3557    Z=              0.0597  Tot=              0.6864
 Quadrupole moment (field-independent basis, Debye-Ang):
   XX=            -54.8350   YY=            -73.7234   ZZ=            -68.8802
   XY=             -1.2907   XZ=             -3.7621   YZ=              1.6541

 Normal termination of Gaussian 16 at Sun Dec  3 18:18:16 2023.
