 Gaussian 16, Revision B.01,
 Gaussian 16:  ES64L-G16RevB.01 20-Dec-2017

 -------------------------
 #P B3LYP/6-311+g(d) force
 -------------------------

 -----
 DPGEN
 -----
 Symbolic Z-matrix:
 Charge =  0 Multiplicity = 2

                         Standard orientation:
 ---------------------------------------------------------------------
 Center     Atomic      Atomic             Coordinates (Angstroms)
 Number     Number       Type             X           Y           Z
 ---------------------------------------------------------------------
      1         11           0       -0.750908    0.893383    0.179207
      2         11           0        0.768040   -1.731809    2.204814
      3         11           0        2.204541   -2.203316   -0.860400
      4         11           0        2.380536    1.242133   -1.185958
      5         11           0        0.886946    3.410764    0.662547
      6         11           0       -1.406998   -2.131029   -0.564257
      7         11           0       -4.082157    0.519875   -0.435954
 ---------------------------------------------------------------------

 SCF Done:  E(UB3LYP) =  -1136.12681755     A.U. after   20 cycles

 The electronic state is 2-A.
 Alpha  occ. eigenvalues --  -38.44403 -38.43982 -38.43949 -38.43839 -38.43805
 Alpha  occ. eigenvalues --  -38.43637 -38.42979  -2.20247  -2.19834  -2.19729
 Alpha  occ. eigenvalues --   -2.19702  -2.19667  -2.19481  -2.18959  -1.13980
 Alpha  occ. eigenvalues --   -1.13931  -1.13822  -1.13486  -1.13475  -1.13445
 Alpha  occ. eigenvalues --   -1.13419  -1.13399  -1.13394  -1.13384  -1.13351
 Alpha  occ. eigenvalues --   -1.13350  -1.13338  -1.13321  -1.13245  -1.13155
 Alpha  occ. eigenvalues --   -1.13136  -1.13104  -1.12677  -1.12633  -1.12562
 Alpha  occ. eigenvalues --   -0.17855  -0.13174  -0.12713  -0.10559
 Alpha virt. eigenvalues --   -0.06047  -0.05310  -0.04819  -0.03235  -0.02864
 Alpha virt. eigenvalues --   -0.02188  -0.01770  -0.01408  -0.00549  -0.00266
 Alpha virt. eigenvalues --   -0.00250   0.00239   0.00419   0.00677   0.00773

  Beta  occ. eigenvalues --  -38.44399 -38.43942 -38.43899 -38.43827 -38.43770
  Beta  occ. eigenvalues --  -38.43606 -38.42966  -2.20241  -2.19716  -2.19681
  Beta  occ. eigenvalues --   -2.19679  -2.19604  -2.19428  -2.18939  -1.13978
  Beta  occ. eigenvalues --   -1.13906  -1.13821  -1.13401  -1.13391  -1.13384
  Beta  occ. eigenvalues --   -1.13375  -1.13371  -1.13360  -1.13345  -1.13342
  Beta  occ. eigenvalues --   -1.13318  -1.13308  -1.13286  -1.13196  -1.13119
  Beta  occ. eigenvalues --   -1.13098  -1.13049  -1.12656  -1.12600  -1.12551
  Beta  occ. eigenvalues --   -0.17282  -0.13011  -0.12337
  Beta virt. eigenvalues --   -0.06911  -0.05747  -0.05111  -0.04511  -0.02817
  Beta virt. eigenvalues --   -0.02374  -0.01801  -0.01415  -0.01260  -0.00432
  Beta virt. eigenvalues --   -0.00097   0.00006   0.00334   0.00620   0.00716

 Mulliken charges and spin densities:
               1          2
     1  Na  -2.930140   0.318418
     2  Na   0.278895   0.223986
     3  Na   0.049993   0.251457
     4  Na   0.147446   0.087188
     5  Na   1.141550   0.009343
     6  Na   0.728934   0.140870
     7  Na   0.583322  -0.031262
 Sum of Mulliken charges =  -0.00000   1.00000

 Dipole moment (field-independent basis, Debye):
    X=             -0.1676    Y=              0.0564    Z=              0.3126  Tot=              0.3591
 Quadrupole moment (field-independent basis, Debye-Ang):
   XX=            -61.5958   YY=            -60.0446   ZZ=            -71.3707
   XY=             -0.2925   XZ=              0.9716   YZ=              2.5753

 Normal termination of Gaussian 16 at Wed Nov 29 03:23:56 2023.
