 Gaussian 16, Revision B.01,
 Gaussian 16:  ES64L-G16RevB.01 20-Dec-2017

 -------------------------
 #P B3LYP/6-311+g(d) force
 -------------------------

 -----
 DPGEN
 -----
 Symbolic Z-matrix:
 Charge =  0 Multiplicity = 2

                         Standard orientation:
 ---------------------------------------------------------------------
 Center     Atomic      Atomic             Coordinates (Angstroms)
 Number     Number       Type             X           Y           Z
 ---------------------------------------------------------------------
      1         11           0       -2.944809    0.105772    0.341242
      2         11           0       -0.838819    2.785180   -0.427092
      3         11           0       -1.004872   -2.823382   -0.458313
      4         11           0        2.281928    1.813834    0.330754
      5         11           0       -0.087332   -0.413278    2.032337
      6         11           0        2.696605   -1.613009   -0.206474
      7         11           0       -0.102701    0.144883   -1.612455
 ---------------------------------------------------------------------

 SCF Done:  E(UB3LYP) =  -1136.13843043     A.U. after   18 cycles

 The electronic state is 2-A.
 Alpha  occ. eigenvalues --  -38.43817 -38.43704 -38.43656 -38.43644 -38.43530
 Alpha  occ. eigenvalues --  -38.43283 -38.43136  -2.19627  -2.19546  -2.19540
 Alpha  occ. eigenvalues --   -2.19522  -2.19387  -2.19184  -2.19150  -1.13307
 Alpha  occ. eigenvalues --   -1.13291  -1.13270  -1.13256  -1.13239  -1.13211
 Alpha  occ. eigenvalues --   -1.13195  -1.13189  -1.13174  -1.13158  -1.13147
 Alpha  occ. eigenvalues --   -1.13133  -1.13073  -1.13055  -1.13025  -1.12997
 Alpha  occ. eigenvalues --   -1.12831  -1.12802  -1.12795  -1.12756  -1.12724
 Alpha  occ. eigenvalues --   -0.18781  -0.12850  -0.12650  -0.10908
 Alpha virt. eigenvalues --   -0.05435  -0.05004  -0.04776  -0.03211  -0.03038
 Alpha virt. eigenvalues --   -0.02594  -0.01315  -0.01189  -0.00280  -0.00233
 Alpha virt. eigenvalues --    0.00031   0.00367   0.00861   0.00881   0.00909

  Beta  occ. eigenvalues --  -38.43816 -38.43693 -38.43645 -38.43554 -38.43524
  Beta  occ. eigenvalues --  -38.43274 -38.43072  -2.19627  -2.19526  -2.19507
  Beta  occ. eigenvalues --   -2.19380  -2.19375  -2.19168  -2.19035  -1.13301
  Beta  occ. eigenvalues --   -1.13284  -1.13266  -1.13230  -1.13203  -1.13182
  Beta  occ. eigenvalues --   -1.13167  -1.13154  -1.13133  -1.13098  -1.13067
  Beta  occ. eigenvalues --   -1.13048  -1.13035  -1.13031  -1.13011  -1.12959
  Beta  occ. eigenvalues --   -1.12797  -1.12790  -1.12731  -1.12680  -1.12655
  Beta  occ. eigenvalues --   -0.18059  -0.12614  -0.12388
  Beta virt. eigenvalues --   -0.06987  -0.05433  -0.04927  -0.04738  -0.02419
  Beta virt. eigenvalues --   -0.02293  -0.01549  -0.01235  -0.01099  -0.00305
  Beta virt. eigenvalues --   -0.00246   0.00140   0.00394   0.00865   0.00902

 Mulliken charges and spin densities:
               1          2
     1  Na   0.218762   0.043941
     2  Na   0.260210   0.014006
     3  Na   0.041870  -0.069655
     4  Na   0.049999   0.025024
     5  Na  -0.376415   0.649479
     6  Na  -0.037812  -0.080722
     7  Na  -0.156613   0.417926
 Sum of Mulliken charges =  -0.00000   1.00000

 Dipole moment (field-independent basis, Debye):
    X=              0.0396    Y=             -0.2907    Z=              0.1956  Tot=              0.3526
 Quadrupole moment (field-independent basis, Debye-Ang):
   XX=            -59.1755   YY=            -60.8435   ZZ=            -73.5584
   XY=             -0.2499   XZ=             -0.0244   YZ=              1.3304

 Normal termination of Gaussian 16 at Thu Dec  7 09:10:00 2023.
