 Gaussian 16, Revision B.01,
 Gaussian 16:  ES64L-G16RevB.01 20-Dec-2017

 -------------------------
 #P B3LYP/6-311+g(d) force
 -------------------------

 -----
 DPGEN
 -----
 Symbolic Z-matrix:
 Charge =  0 Multiplicity = 2

                         Standard orientation:
 ---------------------------------------------------------------------
 Center     Atomic      Atomic             Coordinates (Angstroms)
 Number     Number       Type             X           Y           Z
 ---------------------------------------------------------------------
      1         11           0       -4.463577   -1.151155    0.153712
      2         11           0        4.173775   -0.879603    0.637583
      3         11           0       -1.836251   -2.787186    0.099180
      4         11           0        2.195450   -3.208331   -0.589147
      5         11           0        0.135981    3.027676   -0.208734
      6         11           0        3.168777    2.584941   -0.119748
      7         11           0       -3.374155    2.413658    0.027154
 ---------------------------------------------------------------------

 SCF Done:  E(UB3LYP) =  -1136.10758357     A.U. after   23 cycles

 The electronic state is 2-A.
 Alpha  occ. eigenvalues --  -38.45339 -38.44915 -38.44748 -38.44403 -38.44324
 Alpha  occ. eigenvalues --  -38.44312 -38.43736  -2.21108  -2.20707  -2.20554
 Alpha  occ. eigenvalues --   -2.20200  -2.20109  -2.20105  -2.19572  -1.14784
 Alpha  occ. eigenvalues --   -1.14772  -1.14751  -1.14415  -1.14368  -1.14354
 Alpha  occ. eigenvalues --   -1.14213  -1.14190  -1.14180  -1.13895  -1.13876
 Alpha  occ. eigenvalues --   -1.13870  -1.13765  -1.13760  -1.13758  -1.13746
 Alpha  occ. eigenvalues --   -1.13745  -1.13727  -1.13229  -1.13210  -1.13196
 Alpha  occ. eigenvalues --   -0.15629  -0.14218  -0.13388  -0.10896
 Alpha virt. eigenvalues --   -0.07761  -0.04739  -0.04312  -0.03659  -0.03553
 Alpha virt. eigenvalues --   -0.02623  -0.02217  -0.02124  -0.01165  -0.00577
 Alpha virt. eigenvalues --   -0.00528  -0.00224   0.00196   0.00267   0.00473

  Beta  occ. eigenvalues --  -38.45328 -38.44875 -38.44733 -38.44400 -38.44294
  Beta  occ. eigenvalues --  -38.44228 -38.43684  -2.21093  -2.20636  -2.20533
  Beta  occ. eigenvalues --   -2.20202  -2.20052  -2.19953  -2.19476  -1.14778
  Beta  occ. eigenvalues --   -1.14764  -1.14715  -1.14363  -1.14322  -1.14302
  Beta  occ. eigenvalues --   -1.14202  -1.14178  -1.14131  -1.13884  -1.13881
  Beta  occ. eigenvalues --   -1.13838  -1.13729  -1.13724  -1.13703  -1.13654
  Beta  occ. eigenvalues --   -1.13641  -1.13623  -1.13168  -1.13144  -1.13131
  Beta  occ. eigenvalues --   -0.15090  -0.13519  -0.12581
  Beta virt. eigenvalues --   -0.07919  -0.07738  -0.04397  -0.03736  -0.03453
  Beta virt. eigenvalues --   -0.03244  -0.02427  -0.01976  -0.01883  -0.00992
  Beta virt. eigenvalues --   -0.00393  -0.00161   0.00074   0.00211   0.00294

 Mulliken charges and spin densities:
               1          2
     1  Na   0.777400  -0.029640
     2  Na  -0.157473   0.087048
     3  Na  -0.616006   0.184480
     4  Na  -0.241641   0.164498
     5  Na  -0.072152   0.056108
     6  Na   0.162973   0.254395
     7  Na   0.146898   0.283112
 Sum of Mulliken charges =  -0.00000   1.00000

 Dipole moment (field-independent basis, Debye):
    X=             -0.0454    Y=             -0.6940    Z=              0.1278  Tot=              0.7071
 Quadrupole moment (field-independent basis, Debye-Ang):
   XX=            -53.8675   YY=            -73.0636   ZZ=            -73.0046
   XY=              0.1662   XZ=              1.6076   YZ=              0.9999

 Normal termination of Gaussian 16 at Sun Dec  3 13:14:01 2023.
