 Gaussian 16, Revision B.01,
 Gaussian 16:  ES64L-G16RevB.01 20-Dec-2017

 -------------------------
 #P B3LYP/6-311+g(d) force
 -------------------------

 -----
 DPGEN
 -----
 Symbolic Z-matrix:
 Charge =  0 Multiplicity = 2

                         Standard orientation:
 ---------------------------------------------------------------------
 Center     Atomic      Atomic             Coordinates (Angstroms)
 Number     Number       Type             X           Y           Z
 ---------------------------------------------------------------------
      1         11           0        0.236115    0.269961   -1.593569
      2         11           0        3.286760   -0.509137    0.166376
      3         11           0       -2.663618   -1.510950    0.049080
      4         11           0       -2.413296    1.914383   -0.052818
      5         11           0        1.214301    2.783639    0.071025
      6         11           0        0.425672   -2.792093   -0.267175
      7         11           0       -0.085934   -0.155804    1.627081
 ---------------------------------------------------------------------

 SCF Done:  E(UB3LYP) =  -1136.13766991     A.U. after   19 cycles

 The electronic state is 2-A.
 Alpha  occ. eigenvalues --  -38.44337 -38.43819 -38.43794 -38.43663 -38.43326
 Alpha  occ. eigenvalues --  -38.42857 -38.42759  -2.20134  -2.19661  -2.19637
 Alpha  occ. eigenvalues --   -2.19534  -2.19215  -2.18852  -2.18764  -1.13808
 Alpha  occ. eigenvalues --   -1.13784  -1.13779  -1.13347  -1.13338  -1.13330
 Alpha  occ. eigenvalues --   -1.13307  -1.13296  -1.13249  -1.13217  -1.13190
 Alpha  occ. eigenvalues --   -1.13175  -1.12916  -1.12885  -1.12832  -1.12585
 Alpha  occ. eigenvalues --   -1.12477  -1.12458  -1.12436  -1.12395  -1.12365
 Alpha  occ. eigenvalues --   -0.18871  -0.13008  -0.12723  -0.10125
 Alpha virt. eigenvalues --   -0.05838  -0.05255  -0.04828  -0.02878  -0.02743
 Alpha virt. eigenvalues --   -0.01894  -0.01745  -0.01280  -0.00521  -0.00395
 Alpha virt. eigenvalues --    0.00046   0.00346   0.00795   0.00832   0.00892

  Beta  occ. eigenvalues --  -38.44334 -38.43815 -38.43789 -38.43658 -38.43315
  Beta  occ. eigenvalues --  -38.42784 -38.42687  -2.20130  -2.19656  -2.19630
  Beta  occ. eigenvalues --   -2.19528  -2.19199  -2.18721  -2.18633  -1.13786
  Beta  occ. eigenvalues --   -1.13784  -1.13778  -1.13343  -1.13333  -1.13308
  Beta  occ. eigenvalues --   -1.13296  -1.13277  -1.13247  -1.13211  -1.13176
  Beta  occ. eigenvalues --   -1.13161  -1.12907  -1.12840  -1.12827  -1.12493
  Beta  occ. eigenvalues --   -1.12384  -1.12361  -1.12343  -1.12298  -1.12272
  Beta  occ. eigenvalues --   -0.18163  -0.12766  -0.12458
  Beta virt. eigenvalues --   -0.06259  -0.05821  -0.05239  -0.04810  -0.02129
  Beta virt. eigenvalues --   -0.01964  -0.01657  -0.01213  -0.00912  -0.00578
  Beta virt. eigenvalues --   -0.00436   0.00179   0.00382   0.00821   0.00835

 Mulliken charges and spin densities:
               1          2
     1  Na  -0.294246   0.630791
     2  Na   0.042987  -0.080531
     3  Na   0.237677  -0.018238
     4  Na   0.150249  -0.095970
     5  Na   0.056727  -0.143817
     6  Na   0.200553  -0.037076
     7  Na  -0.393948   0.744840
 Sum of Mulliken charges =  -0.00000   1.00000

 Dipole moment (field-independent basis, Debye):
    X=              0.2516    Y=              0.1784    Z=              0.0353  Tot=              0.3105
 Quadrupole moment (field-independent basis, Debye-Ang):
   XX=            -53.1215   YY=            -59.7153   ZZ=            -77.6233
   XY=             -0.1511   XZ=              0.8017   YZ=              0.9396

 Normal termination of Gaussian 16 at Thu Dec  7 01:58:43 2023.
