 Gaussian 16, Revision B.01,
 Gaussian 16:  ES64L-G16RevB.01 20-Dec-2017

 -------------------------
 #P B3LYP/6-311+g(d) force
 -------------------------

 -----
 DPGEN
 -----
 Symbolic Z-matrix:
 Charge =  0 Multiplicity = 2

                         Standard orientation:
 ---------------------------------------------------------------------
 Center     Atomic      Atomic             Coordinates (Angstroms)
 Number     Number       Type             X           Y           Z
 ---------------------------------------------------------------------
      1         11           0       -2.687709   -1.615567   -0.718890
      2         11           0       -2.215763    1.616557   -1.110663
      3         11           0        1.136899    2.470949    0.982912
      4         11           0        0.761367    0.108019   -1.697286
      5         11           0       -1.510715    0.056171    2.053432
      6         11           0        0.691006   -2.079225    0.954814
      7         11           0        3.824915   -0.556904   -0.464318
 ---------------------------------------------------------------------

 SCF Done:  E(UB3LYP) =  -1136.13002305     A.U. after   21 cycles

 The electronic state is 2-A.
 Alpha  occ. eigenvalues --  -38.44581 -38.44070 -38.43955 -38.43862 -38.43715
 Alpha  occ. eigenvalues --  -38.43496 -38.43134  -2.20362  -2.19962  -2.19800
 Alpha  occ. eigenvalues --   -2.19757  -2.19504  -2.19358  -2.18983  -1.14043
 Alpha  occ. eigenvalues --   -1.14008  -1.13997  -1.13656  -1.13607  -1.13567
 Alpha  occ. eigenvalues --   -1.13474  -1.13468  -1.13453  -1.13423  -1.13399
 Alpha  occ. eigenvalues --   -1.13388  -1.13179  -1.13152  -1.13129  -1.13042
 Alpha  occ. eigenvalues --   -1.13014  -1.12973  -1.12690  -1.12666  -1.12573
 Alpha  occ. eigenvalues --   -0.18247  -0.13308  -0.11663  -0.11367
 Alpha virt. eigenvalues --   -0.06179  -0.05013  -0.04315  -0.03241  -0.03025
 Alpha virt. eigenvalues --   -0.02935  -0.02048  -0.00927  -0.00574  -0.00101
 Alpha virt. eigenvalues --    0.00266   0.00285   0.00442   0.00664   0.00846

  Beta  occ. eigenvalues --  -38.44576 -38.43996 -38.43937 -38.43825 -38.43682
  Beta  occ. eigenvalues --  -38.43474 -38.43118  -2.20354  -2.19828  -2.19770
  Beta  occ. eigenvalues --   -2.19690  -2.19444  -2.19321  -2.18956  -1.14031
  Beta  occ. eigenvalues --   -1.14004  -1.13993  -1.13559  -1.13523  -1.13472
  Beta  occ. eigenvalues --   -1.13444  -1.13440  -1.13409  -1.13389  -1.13354
  Beta  occ. eigenvalues --   -1.13333  -1.13131  -1.13108  -1.13090  -1.13006
  Beta  occ. eigenvalues --   -1.12993  -1.12935  -1.12672  -1.12627  -1.12556
  Beta  occ. eigenvalues --   -0.17504  -0.13084  -0.11138
  Beta virt. eigenvalues --   -0.07716  -0.06009  -0.04846  -0.03947  -0.02990
  Beta virt. eigenvalues --   -0.02407  -0.02053  -0.01841  -0.00823  -0.00298
  Beta virt. eigenvalues --   -0.00017   0.00267   0.00326   0.00574   0.00750

 Mulliken charges and spin densities:
               1          2
     1  Na   0.204212   0.058927
     2  Na   0.226886   0.054240
     3  Na  -0.252532   0.087604
     4  Na  -0.447591   0.256876
     5  Na   0.073464   0.577014
     6  Na  -0.214697  -0.030556
     7  Na   0.410258  -0.004105
 Sum of Mulliken charges =  -0.00000   1.00000

 Dipole moment (field-independent basis, Debye):
    X=              0.4240    Y=             -0.0084    Z=             -0.0471  Tot=              0.4267
 Quadrupole moment (field-independent basis, Debye-Ang):
   XX=            -52.3478   YY=            -73.3163   ZZ=            -68.2746
   XY=              0.7950   XZ=              1.6573   YZ=              2.8482

 Normal termination of Gaussian 16 at Wed Nov 29 15:36:52 2023.
