 Gaussian 16, Revision B.01,
 Gaussian 16:  ES64L-G16RevB.01 20-Dec-2017

 -------------------------
 #P B3LYP/6-311+g(d) force
 -------------------------

 -----
 DPGEN
 -----
 Symbolic Z-matrix:
 Charge =  0 Multiplicity = 2

                         Standard orientation:
 ---------------------------------------------------------------------
 Center     Atomic      Atomic             Coordinates (Angstroms)
 Number     Number       Type             X           Y           Z
 ---------------------------------------------------------------------
      1         11           0        3.234534   -0.938998    0.367777
      2         11           0        2.069071    2.108229   -0.688294
      3         11           0       -2.138855    2.429409    0.358444
      4         11           0       -0.413661    0.320083   -1.605679
      5         11           0        0.013839   -2.647157   -0.572797
      6         11           0        0.331091    0.030215    2.034398
      7         11           0       -3.096019   -1.301780    0.106152
 ---------------------------------------------------------------------

 SCF Done:  E(UB3LYP) =  -1136.13297807     A.U. after   19 cycles

 The electronic state is 2-A.
 Alpha  occ. eigenvalues --  -38.44461 -38.44203 -38.43995 -38.43822 -38.43725
 Alpha  occ. eigenvalues --  -38.43197 -38.43015  -2.20258  -2.20016  -2.19851
 Alpha  occ. eigenvalues --   -2.19663  -2.19522  -2.19172  -2.18879  -1.13937
 Alpha  occ. eigenvalues --   -1.13914  -1.13897  -1.13692  -1.13675  -1.13663
 Alpha  occ. eigenvalues --   -1.13524  -1.13485  -1.13462  -1.13371  -1.13306
 Alpha  occ. eigenvalues --   -1.13282  -1.13204  -1.13183  -1.13158  -1.12868
 Alpha  occ. eigenvalues --   -1.12820  -1.12797  -1.12571  -1.12535  -1.12487
 Alpha  occ. eigenvalues --   -0.18297  -0.13171  -0.12000  -0.10814
 Alpha virt. eigenvalues --   -0.05985  -0.05530  -0.04192  -0.03362  -0.02839
 Alpha virt. eigenvalues --   -0.02552  -0.01853  -0.01294  -0.00487  -0.00174
 Alpha virt. eigenvalues --   -0.00033   0.00323   0.00695   0.00785   0.00847

  Beta  occ. eigenvalues --  -38.44462 -38.44198 -38.43911 -38.43799 -38.43720
  Beta  occ. eigenvalues --  -38.43134 -38.43002  -2.20262  -2.20009  -2.19698
  Beta  occ. eigenvalues --   -2.19623  -2.19515  -2.19059  -2.18858  -1.13932
  Beta  occ. eigenvalues --   -1.13918  -1.13895  -1.13677  -1.13664  -1.13657
  Beta  occ. eigenvalues --   -1.13421  -1.13382  -1.13347  -1.13332  -1.13269
  Beta  occ. eigenvalues --   -1.13260  -1.13196  -1.13171  -1.13151  -1.12796
  Beta  occ. eigenvalues --   -1.12738  -1.12711  -1.12546  -1.12509  -1.12471
  Beta  occ. eigenvalues --   -0.17591  -0.12959  -0.11734
  Beta virt. eigenvalues --   -0.06967  -0.05889  -0.05461  -0.04124  -0.02680
  Beta virt. eigenvalues --   -0.02133  -0.01739  -0.01554  -0.01198  -0.00480
  Beta virt. eigenvalues --   -0.00182   0.00095   0.00355   0.00775   0.00796

 Mulliken charges and spin densities:
               1          2
     1  Na   0.131988   0.075122
     2  Na   0.058326  -0.041282
     3  Na  -0.139424   0.004549
     4  Na   0.262276   0.293376
     5  Na   0.024099  -0.014682
     6  Na  -0.361035   0.703557
     7  Na   0.023770  -0.020641
 Sum of Mulliken charges =  -0.00000   1.00000

 Dipole moment (field-independent basis, Debye):
    X=             -0.1326    Y=              0.0003    Z=              0.3416  Tot=              0.3665
 Quadrupole moment (field-independent basis, Debye-Ang):
   XX=            -52.4852   YY=            -66.4258   ZZ=            -74.0461
   XY=             -0.1400   XZ=             -1.5983   YZ=              0.1613

 Normal termination of Gaussian 16 at Fri Dec  8 05:24:16 2023.
