 Gaussian 16, Revision B.01,
 Gaussian 16:  ES64L-G16RevB.01 20-Dec-2017

 -------------------------
 #P B3LYP/6-311+g(d) force
 -------------------------

 -----
 DPGEN
 -----
 Symbolic Z-matrix:
 Charge =  0 Multiplicity = 2

                         Standard orientation:
 ---------------------------------------------------------------------
 Center     Atomic      Atomic             Coordinates (Angstroms)
 Number     Number       Type             X           Y           Z
 ---------------------------------------------------------------------
      1         11           0       -3.200287   -0.119348   -0.182969
      2         11           0        0.263535   -0.532297    2.023971
      3         11           0       -1.457357    2.520822    0.094017
      4         11           0       -0.539394   -2.979277   -0.034674
      5         11           0        2.113635    2.459075   -0.014730
      6         11           0        2.954794   -1.150439   -0.396124
      7         11           0       -0.134926   -0.198536   -1.489491
 ---------------------------------------------------------------------

 SCF Done:  E(UB3LYP) =  -1136.13568799     A.U. after   20 cycles

 The electronic state is 2-A.
 Alpha  occ. eigenvalues --  -38.44273 -38.43981 -38.43828 -38.43749 -38.43432
 Alpha  occ. eigenvalues --  -38.43380 -38.43026  -2.20084  -2.19828  -2.19617
 Alpha  occ. eigenvalues --   -2.19607  -2.19292  -2.19269  -2.19023  -1.13766
 Alpha  occ. eigenvalues --   -1.13744  -1.13709  -1.13520  -1.13495  -1.13460
 Alpha  occ. eigenvalues --   -1.13314  -1.13292  -1.13287  -1.13279  -1.13262
 Alpha  occ. eigenvalues --   -1.13221  -1.12977  -1.12954  -1.12936  -1.12925
 Alpha  occ. eigenvalues --   -1.12888  -1.12887  -1.12710  -1.12662  -1.12643
 Alpha  occ. eigenvalues --   -0.18484  -0.12996  -0.12556  -0.10425
 Alpha virt. eigenvalues --   -0.05851  -0.05255  -0.04871  -0.03029  -0.02804
 Alpha virt. eigenvalues --   -0.02323  -0.01647  -0.01307  -0.00596  -0.00435
 Alpha virt. eigenvalues --   -0.00000   0.00334   0.00763   0.00832   0.00871

  Beta  occ. eigenvalues --  -38.44260 -38.43978 -38.43829 -38.43741 -38.43429
  Beta  occ. eigenvalues --  -38.43284 -38.42971  -2.20064  -2.19824  -2.19621
  Beta  occ. eigenvalues --   -2.19598  -2.19289  -2.19092  -2.18924  -1.13742
  Beta  occ. eigenvalues --   -1.13721  -1.13698  -1.13518  -1.13478  -1.13454
  Beta  occ. eigenvalues --   -1.13309  -1.13288  -1.13276  -1.13265  -1.13244
  Beta  occ. eigenvalues --   -1.13219  -1.12973  -1.12942  -1.12919  -1.12820
  Beta  occ. eigenvalues --   -1.12765  -1.12759  -1.12636  -1.12591  -1.12567
  Beta  occ. eigenvalues --   -0.17791  -0.12756  -0.12339
  Beta virt. eigenvalues --   -0.06538  -0.05818  -0.05225  -0.04807  -0.02291
  Beta virt. eigenvalues --   -0.02075  -0.01547  -0.01294  -0.01225  -0.00650
  Beta virt. eigenvalues --   -0.00460   0.00157   0.00382   0.00782   0.00873

 Mulliken charges and spin densities:
               1          2
     1  Na   0.325829  -0.001716
     2  Na  -0.498282   0.776735
     3  Na  -0.006946  -0.019718
     4  Na   0.350265  -0.074174
     5  Na  -0.033391  -0.035282
     6  Na   0.183033  -0.035349
     7  Na  -0.320509   0.389504
 Sum of Mulliken charges =  -0.00000   1.00000

 Dipole moment (field-independent basis, Debye):
    X=              0.1532    Y=             -0.2612    Z=              0.0813  Tot=              0.3136
 Quadrupole moment (field-independent basis, Debye-Ang):
   XX=            -55.8901   YY=            -60.5276   ZZ=            -76.2425
   XY=              0.5499   XZ=             -0.6818   YZ=              0.9668

 Normal termination of Gaussian 16 at Sun Dec  3 22:22:55 2023.
