 Gaussian 16, Revision B.01,
 Gaussian 16:  ES64L-G16RevB.01 20-Dec-2017

 -------------------------
 #P B3LYP/6-311+g(d) force
 -------------------------

 -----
 DPGEN
 -----
 Symbolic Z-matrix:
 Charge =  0 Multiplicity = 2

                         Standard orientation:
 ---------------------------------------------------------------------
 Center     Atomic      Atomic             Coordinates (Angstroms)
 Number     Number       Type             X           Y           Z
 ---------------------------------------------------------------------
      1         11           0       -3.371476    0.068063    0.178915
      2         11           0       -0.164600    0.043859    1.764716
      3         11           0       -1.497008    3.142938   -0.814820
      4         11           0        1.474834   -3.043927   -0.403698
      5         11           0       -2.175159   -2.599448   -0.492394
      6         11           0        3.793713   -0.461820   -0.188971
      7         11           0        1.939697    2.850334   -0.043749
 ---------------------------------------------------------------------

 SCF Done:  E(UB3LYP) =  -1136.11524096     A.U. after   26 cycles

 The electronic state is 2-A.
 Alpha  occ. eigenvalues --  -38.45148 -38.44806 -38.44791 -38.44746 -38.44154
 Alpha  occ. eigenvalues --  -38.43992 -38.43716  -2.20898  -2.20645  -2.20565
 Alpha  occ. eigenvalues --   -2.20547  -2.19968  -2.19776  -2.19510  -1.14581
 Alpha  occ. eigenvalues --   -1.14556  -1.14543  -1.14437  -1.14295  -1.14289
 Alpha  occ. eigenvalues --   -1.14234  -1.14222  -1.14214  -1.14204  -1.14188
 Alpha  occ. eigenvalues --   -1.14158  -1.13632  -1.13618  -1.13576  -1.13450
 Alpha  occ. eigenvalues --   -1.13438  -1.13408  -1.13173  -1.13152  -1.13146
 Alpha  occ. eigenvalues --   -0.16994  -0.13525  -0.13083  -0.09718
 Alpha virt. eigenvalues --   -0.07176  -0.06976  -0.03976  -0.03340  -0.03172
 Alpha virt. eigenvalues --   -0.02511  -0.02235  -0.01628  -0.01374  -0.01179
 Alpha virt. eigenvalues --    0.00149   0.00267   0.00407   0.00499   0.00570

  Beta  occ. eigenvalues --  -38.45153 -38.44802 -38.44794 -38.44739 -38.44066
  Beta  occ. eigenvalues --  -38.43964 -38.43660  -2.20909  -2.20642  -2.20556
  Beta  occ. eigenvalues --   -2.20553  -2.19805  -2.19724  -2.19406  -1.14587
  Beta  occ. eigenvalues --   -1.14565  -1.14541  -1.14435  -1.14290  -1.14267
  Beta  occ. eigenvalues --   -1.14240  -1.14222  -1.14213  -1.14197  -1.14174
  Beta  occ. eigenvalues --   -1.14141  -1.13520  -1.13513  -1.13456  -1.13413
  Beta  occ. eigenvalues --   -1.13400  -1.13370  -1.13101  -1.13077  -1.13076
  Beta  occ. eigenvalues --   -0.16461  -0.13489  -0.12516
  Beta virt. eigenvalues --   -0.06974  -0.06837  -0.06265  -0.03812  -0.02755
  Beta virt. eigenvalues --   -0.02628  -0.02336  -0.02078  -0.01586  -0.01042
  Beta virt. eigenvalues --   -0.00828   0.00342   0.00401   0.00484   0.00644

 Mulliken charges and spin densities:
               1          2
     1  Na   0.105602   0.283881
     2  Na   0.175347   0.297293
     3  Na  -0.118927   0.249466
     4  Na  -0.196410   0.290402
     5  Na   0.011913  -0.099771
     6  Na   0.137641  -0.104636
     7  Na  -0.115167   0.083365
 Sum of Mulliken charges =  -0.00000   1.00000

 Dipole moment (field-independent basis, Debye):
    X=              0.3749    Y=             -0.1630    Z=              0.1426  Tot=              0.4329
 Quadrupole moment (field-independent basis, Debye-Ang):
   XX=            -52.0716   YY=            -71.3166   ZZ=            -76.8454
   XY=              5.2166   XZ=             -0.3113   YZ=              0.6417

 Normal termination of Gaussian 16 at Mon Dec  4 04:53:11 2023.
