 Gaussian 16, Revision B.01,
 Gaussian 16:  ES64L-G16RevB.01 20-Dec-2017

 -------------------------
 #P B3LYP/6-311+g(d) force
 -------------------------

 -----
 DPGEN
 -----
 Symbolic Z-matrix:
 Charge =  0 Multiplicity = 2

                         Standard orientation:
 ---------------------------------------------------------------------
 Center     Atomic      Atomic             Coordinates (Angstroms)
 Number     Number       Type             X           Y           Z
 ---------------------------------------------------------------------
      1         11           0        2.247257   -2.361443    0.328879
      2         11           0        0.092226    0.122174   -1.436095
      3         11           0       -3.143574    0.505558   -0.430238
      4         11           0       -1.383583   -2.552585   -0.522703
      5         11           0        3.145285    1.324027   -0.361540
      6         11           0       -0.289703    3.085972    0.191175
      7         11           0       -0.667909   -0.123703    2.230523
 ---------------------------------------------------------------------

 SCF Done:  E(UB3LYP) =  -1136.13497679     A.U. after   18 cycles

 The electronic state is 2-A.
 Alpha  occ. eigenvalues --  -38.44120 -38.44065 -38.43965 -38.43824 -38.43784
 Alpha  occ. eigenvalues --  -38.43529 -38.43106  -2.19896  -2.19894  -2.19739
 Alpha  occ. eigenvalues --   -2.19667  -2.19582  -2.19387  -2.19077  -1.13581
 Alpha  occ. eigenvalues --   -1.13574  -1.13554  -1.13553  -1.13528  -1.13527
 Alpha  occ. eigenvalues --   -1.13415  -1.13397  -1.13380  -1.13322  -1.13299
 Alpha  occ. eigenvalues --   -1.13279  -1.13266  -1.13250  -1.13206  -1.13109
 Alpha  occ. eigenvalues --   -1.13042  -1.13001  -1.12768  -1.12719  -1.12700
 Alpha  occ. eigenvalues --   -0.18098  -0.12736  -0.12350  -0.10657
 Alpha virt. eigenvalues --   -0.05708  -0.05436  -0.04884  -0.02989  -0.02876
 Alpha virt. eigenvalues --   -0.02601  -0.01609  -0.01262  -0.00719  -0.00515
 Alpha virt. eigenvalues --   -0.00047   0.00319   0.00746   0.00801   0.00832

  Beta  occ. eigenvalues --  -38.44117 -38.44055 -38.43962 -38.43781 -38.43720
  Beta  occ. eigenvalues --  -38.43516 -38.43060  -2.19892  -2.19879  -2.19735
  Beta  occ. eigenvalues --   -2.19578  -2.19473  -2.19367  -2.18996  -1.13570
  Beta  occ. eigenvalues --   -1.13555  -1.13551  -1.13540  -1.13527  -1.13508
  Beta  occ. eigenvalues --   -1.13402  -1.13395  -1.13378  -1.13263  -1.13240
  Beta  occ. eigenvalues --   -1.13205  -1.13190  -1.13168  -1.13136  -1.13088
  Beta  occ. eigenvalues --   -1.13018  -1.12980  -1.12708  -1.12662  -1.12635
  Beta  occ. eigenvalues --   -0.17404  -0.12516  -0.12161
  Beta virt. eigenvalues --   -0.06737  -0.05663  -0.05360  -0.04794  -0.02342
  Beta virt. eigenvalues --   -0.02183  -0.01583  -0.01460  -0.01173  -0.00720
  Beta virt. eigenvalues --   -0.00555   0.00133   0.00372   0.00796   0.00836

 Mulliken charges and spin densities:
               1          2
     1  Na  -0.088843   0.038965
     2  Na   0.154936   0.132109
     3  Na   0.262449   0.009041
     4  Na   0.234719   0.062003
     5  Na   0.019356  -0.019196
     6  Na  -0.057094  -0.005233
     7  Na  -0.525522   0.782312
 Sum of Mulliken charges =  -0.00000   1.00000

 Dipole moment (field-independent basis, Debye):
    X=             -0.0175    Y=              0.1189    Z=              0.1605  Tot=              0.2005
 Quadrupole moment (field-independent basis, Debye-Ang):
   XX=            -56.2900   YY=            -61.4041   ZZ=            -75.0953
   XY=             -0.5954   XZ=              1.5798   YZ=              0.1915

 Normal termination of Gaussian 16 at Thu Dec  7 20:37:22 2023.
