 Gaussian 16, Revision B.01,
 Gaussian 16:  ES64L-G16RevB.01 20-Dec-2017

 -------------------------
 #P B3LYP/6-311+g(d) force
 -------------------------

 -----
 DPGEN
 -----
 Symbolic Z-matrix:
 Charge =  0 Multiplicity = 2

                         Standard orientation:
 ---------------------------------------------------------------------
 Center     Atomic      Atomic             Coordinates (Angstroms)
 Number     Number       Type             X           Y           Z
 ---------------------------------------------------------------------
      1         11           0        2.026652   -1.399113    1.640359
      2         11           0        0.927900    0.273435   -1.304595
      3         11           0       -2.301791    1.628408    0.359088
      4         11           0       -1.226386   -1.919705    0.317367
      5         11           0       -4.484174   -0.899851   -0.474408
      6         11           0        1.219045    3.417582    0.366812
      7         11           0        3.838753   -1.100755   -0.904624
 ---------------------------------------------------------------------

 SCF Done:  E(UB3LYP) =  -1136.12052997     A.U. after   22 cycles

 The electronic state is 2-A.
 Alpha  occ. eigenvalues --  -38.44672 -38.44526 -38.44470 -38.43798 -38.43686
 Alpha  occ. eigenvalues --  -38.43632 -38.43443  -2.20548  -2.20382  -2.20265
 Alpha  occ. eigenvalues --   -2.19620  -2.19545  -2.19513  -2.19203  -1.14253
 Alpha  occ. eigenvalues --   -1.14230  -1.14160  -1.14058  -1.14036  -1.14025
 Alpha  occ. eigenvalues --   -1.13973  -1.13955  -1.13855  -1.13278  -1.13273
 Alpha  occ. eigenvalues --   -1.13253  -1.13244  -1.13220  -1.13170  -1.13148
 Alpha  occ. eigenvalues --   -1.13128  -1.13125  -1.12881  -1.12870  -1.12832
 Alpha  occ. eigenvalues --   -0.17541  -0.14131  -0.11780  -0.10340
 Alpha virt. eigenvalues --   -0.06904  -0.05554  -0.04239  -0.03613  -0.02973
 Alpha virt. eigenvalues --   -0.02375  -0.01693  -0.01432  -0.00978  -0.00723
 Alpha virt. eigenvalues --   -0.00205  -0.00121   0.00361   0.00582   0.00669

  Beta  occ. eigenvalues --  -38.44657 -38.44501 -38.44463 -38.43751 -38.43646
  Beta  occ. eigenvalues --  -38.43562 -38.43450  -2.20527  -2.20342  -2.20255
  Beta  occ. eigenvalues --   -2.19531  -2.19477  -2.19382  -2.19216  -1.14228
  Beta  occ. eigenvalues --   -1.14198  -1.14145  -1.14019  -1.14013  -1.13970
  Beta  occ. eigenvalues --   -1.13966  -1.13946  -1.13836  -1.13215  -1.13213
  Beta  occ. eigenvalues --   -1.13207  -1.13190  -1.13169  -1.13077  -1.13067
  Beta  occ. eigenvalues --   -1.13055  -1.13038  -1.12890  -1.12879  -1.12839
  Beta  occ. eigenvalues --   -0.16946  -0.13598  -0.11591
  Beta virt. eigenvalues --   -0.06762  -0.06641  -0.05484  -0.03791  -0.03314
  Beta virt. eigenvalues --   -0.02656  -0.02081  -0.01476  -0.01196  -0.00556
  Beta virt. eigenvalues --   -0.00385  -0.00023   0.00007   0.00512   0.00692

 Mulliken charges and spin densities:
               1          2
     1  Na   0.217349   0.064022
     2  Na   0.487940   0.273667
     3  Na  -0.152034   0.150133
     4  Na  -0.605147   0.019890
     5  Na   0.374196   0.293292
     6  Na  -0.193661  -0.087365
     7  Na  -0.128643   0.286360
 Sum of Mulliken charges =  -0.00000   1.00000

 Dipole moment (field-independent basis, Debye):
    X=              0.0543    Y=             -0.2559    Z=              0.7077  Tot=              0.7544
 Quadrupole moment (field-independent basis, Debye-Ang):
   XX=            -63.7990   YY=            -70.9457   ZZ=            -66.1201
   XY=              1.1176   XZ=              4.4351   YZ=              3.0233

 Normal termination of Gaussian 16 at Wed Nov 29 02:21:40 2023.
