 Gaussian 16, Revision B.01,
 Gaussian 16:  ES64L-G16RevB.01 20-Dec-2017

 -------------------------
 #P B3LYP/6-311+g(d) force
 -------------------------

 -----
 DPGEN
 -----
 Symbolic Z-matrix:
 Charge =  0 Multiplicity = 2

                         Standard orientation:
 ---------------------------------------------------------------------
 Center     Atomic      Atomic             Coordinates (Angstroms)
 Number     Number       Type             X           Y           Z
 ---------------------------------------------------------------------
      1         11           0        2.940775   -0.383137    0.180682
      2         11           0        2.971054    3.221586   -0.082687
      3         11           0       -3.950840    0.605421    0.343517
      4         11           0        5.426307   -2.650333   -0.231529
      5         11           0       -6.544683   -1.258714   -0.376336
      6         11           0       -0.324642    1.715833   -0.253377
      7         11           0       -0.517972   -1.250655    0.419729
 ---------------------------------------------------------------------

 SCF Done:  E(UB3LYP) =  -1136.11140085     A.U. after   21 cycles

 The electronic state is 2-A.
 Alpha  occ. eigenvalues --  -38.45907 -38.45280 -38.44539 -38.44273 -38.44136
 Alpha  occ. eigenvalues --  -38.43640 -38.43159  -2.21753  -2.21087  -2.20331
 Alpha  occ. eigenvalues --   -2.20131  -2.19929  -2.19382  -2.18996  -1.15432
 Alpha  occ. eigenvalues --   -1.15401  -1.15348  -1.14727  -1.14722  -1.14693
 Alpha  occ. eigenvalues --   -1.13975  -1.13973  -1.13970  -1.13841  -1.13810
 Alpha  occ. eigenvalues --   -1.13741  -1.13621  -1.13609  -1.13556  -1.13057
 Alpha  occ. eigenvalues --   -1.13055  -1.13036  -1.12704  -1.12691  -1.12583
 Alpha  occ. eigenvalues --   -0.17067  -0.14036  -0.12019  -0.11486
 Alpha virt. eigenvalues --   -0.07030  -0.05307  -0.04498  -0.04061  -0.03104
 Alpha virt. eigenvalues --   -0.02592  -0.01920  -0.01710  -0.01195  -0.00998
 Alpha virt. eigenvalues --   -0.00609  -0.00422  -0.00077   0.00357   0.00482

  Beta  occ. eigenvalues --  -38.45837 -38.45175 -38.44476 -38.44265 -38.44144
  Beta  occ. eigenvalues --  -38.43668 -38.43146  -2.21624  -2.20892  -2.20213
  Beta  occ. eigenvalues --   -2.20122  -2.19948  -2.19435  -2.18974  -1.15347
  Beta  occ. eigenvalues --   -1.15314  -1.15253  -1.14595  -1.14586  -1.14565
  Beta  occ. eigenvalues --   -1.13895  -1.13893  -1.13892  -1.13822  -1.13809
  Beta  occ. eigenvalues --   -1.13712  -1.13638  -1.13626  -1.13533  -1.13093
  Beta  occ. eigenvalues --   -1.13091  -1.13069  -1.12679  -1.12662  -1.12584
  Beta  occ. eigenvalues --   -0.16355  -0.13339  -0.11316
  Beta virt. eigenvalues --   -0.08569  -0.06744  -0.04734  -0.04163  -0.03791
  Beta virt. eigenvalues --   -0.02597  -0.02398  -0.01613  -0.01534  -0.01125
  Beta virt. eigenvalues --   -0.00553  -0.00338  -0.00302   0.00097   0.00432

 Mulliken charges and spin densities:
               1          2
     1  Na  -0.457539   0.029693
     2  Na   1.569068   0.320399
     3  Na  -0.694079   0.118549
     4  Na   0.035286  -0.107159
     5  Na   0.572095   0.229847
     6  Na  -1.041929   0.166794
     7  Na   0.017099   0.241877
 Sum of Mulliken charges =  -0.00000   1.00000

 Dipole moment (field-independent basis, Debye):
    X=             -0.8669    Y=              0.5682    Z=             -0.0317  Tot=              1.0370
 Quadrupole moment (field-independent basis, Debye-Ang):
   XX=            -66.5856   YY=            -61.1367   ZZ=            -73.8562
   XY=              7.5891   XZ=              0.4914   YZ=              0.3674

 Normal termination of Gaussian 16 at Wed Nov 29 00:09:57 2023.
