 Gaussian 16, Revision B.01,
 Gaussian 16:  ES64L-G16RevB.01 20-Dec-2017

 -------------------------
 #P B3LYP/6-311+g(d) force
 -------------------------

 -----
 DPGEN
 -----
 Symbolic Z-matrix:
 Charge =  0 Multiplicity = 2

                         Standard orientation:
 ---------------------------------------------------------------------
 Center     Atomic      Atomic             Coordinates (Angstroms)
 Number     Number       Type             X           Y           Z
 ---------------------------------------------------------------------
      1         11           0       -0.063489   -2.703407   -0.521605
      2         11           0        2.949269   -2.713461    0.671381
      3         11           0        4.372180    0.658474    0.114290
      4         11           0        1.890463    3.379672   -0.394587
      5         11           0       -1.305644    2.092828    0.058762
      6         11           0       -4.742392    0.559399    0.893872
      7         11           0       -3.100387   -1.273505   -0.822113
 ---------------------------------------------------------------------

 SCF Done:  E(UB3LYP) =  -1136.11370064     A.U. after   20 cycles

 The electronic state is 2-A.
 Alpha  occ. eigenvalues --  -38.45169 -38.44911 -38.44810 -38.44492 -38.44346
 Alpha  occ. eigenvalues --  -38.43681 -38.43489  -2.20937  -2.20674  -2.20668
 Alpha  occ. eigenvalues --   -2.20347  -2.20123  -2.19455  -2.19315  -1.14633
 Alpha  occ. eigenvalues --   -1.14620  -1.14529  -1.14409  -1.14345  -1.14336
 Alpha  occ. eigenvalues --   -1.14321  -1.14321  -1.14285  -1.13993  -1.13975
 Alpha  occ. eigenvalues --   -1.13944  -1.13805  -1.13801  -1.13766  -1.13130
 Alpha  occ. eigenvalues --   -1.13119  -1.13099  -1.12973  -1.12965  -1.12959
 Alpha  occ. eigenvalues --   -0.16366  -0.14073  -0.12813  -0.10946
 Alpha virt. eigenvalues --   -0.07271  -0.05518  -0.04226  -0.03650  -0.03096
 Alpha virt. eigenvalues --   -0.02436  -0.02308  -0.01397  -0.01220  -0.00877
 Alpha virt. eigenvalues --   -0.00513  -0.00079   0.00054   0.00486   0.00636

  Beta  occ. eigenvalues --  -38.45130 -38.44864 -38.44786 -38.44423 -38.44359
  Beta  occ. eigenvalues --  -38.43677 -38.43448  -2.20869  -2.20639  -2.20582
  Beta  occ. eigenvalues --   -2.20217  -2.20149  -2.19450  -2.19239  -1.14589
  Beta  occ. eigenvalues --   -1.14573  -1.14466  -1.14347  -1.14308  -1.14290
  Beta  occ. eigenvalues --   -1.14286  -1.14263  -1.14225  -1.13902  -1.13885
  Beta  occ. eigenvalues --   -1.13863  -1.13826  -1.13821  -1.13766  -1.13129
  Beta  occ. eigenvalues --   -1.13115  -1.13083  -1.12922  -1.12913  -1.12908
  Beta  occ. eigenvalues --   -0.15721  -0.13594  -0.12426
  Beta virt. eigenvalues --   -0.07577  -0.07070  -0.05005  -0.03944  -0.03359
  Beta virt. eigenvalues --   -0.02708  -0.02226  -0.02074  -0.01251  -0.00967
  Beta virt. eigenvalues --   -0.00655  -0.00231   0.00103   0.00311   0.00569

 Mulliken charges and spin densities:
               1          2
     1  Na  -0.370180  -0.008087
     2  Na   0.624751   0.167956
     3  Na  -0.397021   0.295590
     4  Na   0.347133  -0.430163
     5  Na  -1.232912   0.418722
     6  Na   1.227399   0.513777
     7  Na  -0.199171   0.042206
 Sum of Mulliken charges =  -0.00000   1.00000

 Dipole moment (field-independent basis, Debye):
    X=             -0.7691    Y=              0.2347    Z=              0.2908  Tot=              0.8551
 Quadrupole moment (field-independent basis, Debye-Ang):
   XX=            -58.4218   YY=            -69.2060   ZZ=            -70.8452
   XY=              0.5038   XZ=             -0.6227   YZ=             -0.0854

 Normal termination of Gaussian 16 at Sun Dec  3 14:25:01 2023.
