 Gaussian 16, Revision B.01,
 Gaussian 16:  ES64L-G16RevB.01 20-Dec-2017

 -------------------------
 #P B3LYP/6-311+g(d) force
 -------------------------

 -----
 DPGEN
 -----
 Symbolic Z-matrix:
 Charge =  0 Multiplicity = 2

                         Standard orientation:
 ---------------------------------------------------------------------
 Center     Atomic      Atomic             Coordinates (Angstroms)
 Number     Number       Type             X           Y           Z
 ---------------------------------------------------------------------
      1         11           0        2.933698   -0.454391   -1.025155
      2         11           0        0.183044   -2.123809   -1.116778
      3         11           0        3.329939    2.580235   -0.043618
      4         11           0        0.621624    1.033794    0.854842
      5         11           0        0.610063   -2.140606    1.881110
      6         11           0       -3.069727   -0.724817   -0.557819
      7         11           0       -4.608642    1.829595    0.007417
 ---------------------------------------------------------------------

 SCF Done:  E(UB3LYP) =  -1136.11728923     A.U. after   20 cycles

 The electronic state is 2-A.
 Alpha  occ. eigenvalues --  -38.44235 -38.44228 -38.44224 -38.44140 -38.43869
 Alpha  occ. eigenvalues --  -38.43802 -38.43532  -2.20130  -2.20117  -2.20053
 Alpha  occ. eigenvalues --   -2.20018  -2.19696  -2.19643  -2.19465  -1.13844
 Alpha  occ. eigenvalues --   -1.13823  -1.13793  -1.13775  -1.13749  -1.13734
 Alpha  occ. eigenvalues --   -1.13732  -1.13723  -1.13698  -1.13674  -1.13670
 Alpha  occ. eigenvalues --   -1.13666  -1.13366  -1.13349  -1.13316  -1.13306
 Alpha  occ. eigenvalues --   -1.13290  -1.13282  -1.13126  -1.13116  -1.13091
 Alpha  occ. eigenvalues --   -0.18079  -0.13689  -0.12247  -0.10815
 Alpha virt. eigenvalues --   -0.06773  -0.05772  -0.04166  -0.03311  -0.02617
 Alpha virt. eigenvalues --   -0.02438  -0.02010  -0.01713  -0.01243  -0.00543
 Alpha virt. eigenvalues --   -0.00079   0.00157   0.00243   0.00560   0.00786

  Beta  occ. eigenvalues --  -38.44236 -38.44181 -38.44176 -38.44086 -38.43863
  Beta  occ. eigenvalues --  -38.43801 -38.43496  -2.20043  -2.20033  -2.20019
  Beta  occ. eigenvalues --   -2.19956  -2.19685  -2.19643  -2.19400  -1.13786
  Beta  occ. eigenvalues --   -1.13742  -1.13741  -1.13729  -1.13709  -1.13683
  Beta  occ. eigenvalues --   -1.13681  -1.13675  -1.13664  -1.13647  -1.13632
  Beta  occ. eigenvalues --   -1.13596  -1.13357  -1.13338  -1.13315  -1.13300
  Beta  occ. eigenvalues --   -1.13285  -1.13281  -1.13081  -1.13071  -1.13025
  Beta  occ. eigenvalues --   -0.17361  -0.13597  -0.12121
  Beta virt. eigenvalues --   -0.06805  -0.06524  -0.05561  -0.03909  -0.02879
  Beta virt. eigenvalues --   -0.02253  -0.02074  -0.01895  -0.01316  -0.00963
  Beta virt. eigenvalues --   -0.00224   0.00069   0.00247   0.00422   0.00594

 Mulliken charges and spin densities:
               1          2
     1  Na   0.027243   0.099948
     2  Na   0.199246   0.409270
     3  Na   0.669637   0.028925
     4  Na  -1.345191   0.375373
     5  Na   0.529891   0.158476
     6  Na  -0.405620  -0.024988
     7  Na   0.324794  -0.047004
 Sum of Mulliken charges =  -0.00000   1.00000

 Dipole moment (field-independent basis, Debye):
    X=              0.5608    Y=              0.2701    Z=              0.6455  Tot=              0.8967
 Quadrupole moment (field-independent basis, Debye-Ang):
   XX=            -62.0349   YY=            -60.8683   ZZ=            -73.4678
   XY=             -1.3717   XZ=             -0.1332   YZ=             -1.0246

 Normal termination of Gaussian 16 at Sun Dec  3 21:40:24 2023.
