 Gaussian 16, Revision B.01,
 Gaussian 16:  ES64L-G16RevB.01 20-Dec-2017

 -------------------------
 #P B3LYP/6-311+g(d) force
 -------------------------

 -----
 DPGEN
 -----
 Symbolic Z-matrix:
 Charge =  0 Multiplicity = 2

                         Standard orientation:
 ---------------------------------------------------------------------
 Center     Atomic      Atomic             Coordinates (Angstroms)
 Number     Number       Type             X           Y           Z
 ---------------------------------------------------------------------
      1         11           0        2.149165    1.994993    0.039856
      2         11           0        3.544905   -1.004883   -0.634918
      3         11           0        0.749181   -0.830686    1.864209
      4         11           0       -1.504366    2.394486    0.790665
      5         11           0       -3.413533   -0.018453   -0.675963
      6         11           0       -1.373476   -2.497626    0.458177
      7         11           0       -0.151876   -0.037831   -1.842027
 ---------------------------------------------------------------------

 SCF Done:  E(UB3LYP) =  -1136.12830794     A.U. after   21 cycles

 The electronic state is 2-A.
 Alpha  occ. eigenvalues --  -38.44910 -38.44562 -38.44520 -38.43759 -38.43550
 Alpha  occ. eigenvalues --  -38.43164 -38.42971  -2.20701  -2.20415  -2.20356
 Alpha  occ. eigenvalues --   -2.19595  -2.19442  -2.18975  -2.18842  -1.14366
 Alpha  occ. eigenvalues --   -1.14355  -1.14334  -1.14104  -1.14065  -1.14056
 Alpha  occ. eigenvalues --   -1.14022  -1.13993  -1.13987  -1.13279  -1.13274
 Alpha  occ. eigenvalues --   -1.13220  -1.13152  -1.13073  -1.13058  -1.12646
 Alpha  occ. eigenvalues --   -1.12629  -1.12622  -1.12531  -1.12490  -1.12472
 Alpha  occ. eigenvalues --   -0.18130  -0.13704  -0.11627  -0.10947
 Alpha virt. eigenvalues --   -0.06577  -0.05244  -0.04363  -0.03369  -0.02945
 Alpha virt. eigenvalues --   -0.02476  -0.02277  -0.01125  -0.00564  -0.00142
 Alpha virt. eigenvalues --    0.00020   0.00237   0.00459   0.00701   0.00811

  Beta  occ. eigenvalues --  -38.44889 -38.44511 -38.44507 -38.43753 -38.43474
  Beta  occ. eigenvalues --  -38.43148 -38.42962  -2.20663  -2.20333  -2.20320
  Beta  occ. eigenvalues --   -2.19588  -2.19305  -2.18947  -2.18831  -1.14340
  Beta  occ. eigenvalues --   -1.14320  -1.14310  -1.14038  -1.14011  -1.14000
  Beta  occ. eigenvalues --   -1.13999  -1.13982  -1.13941  -1.13275  -1.13260
  Beta  occ. eigenvalues --   -1.13201  -1.13062  -1.12975  -1.12958  -1.12626
  Beta  occ. eigenvalues --   -1.12610  -1.12593  -1.12514  -1.12480  -1.12450
  Beta  occ. eigenvalues --   -0.17465  -0.13440  -0.11318
  Beta virt. eigenvalues --   -0.07272  -0.06383  -0.05220  -0.03918  -0.03004
  Beta virt. eigenvalues --   -0.02308  -0.02039  -0.01613  -0.01038  -0.00480
  Beta virt. eigenvalues --    0.00000   0.00013   0.00288   0.00590   0.00785

 Mulliken charges and spin densities:
               1          2
     1  Na   0.027295   0.109568
     2  Na   0.135109   0.038563
     3  Na   0.159256   0.422354
     4  Na  -0.447562   0.021364
     5  Na   0.547117   0.149662
     6  Na  -0.297142  -0.050138
     7  Na  -0.124073   0.308627
 Sum of Mulliken charges =  -0.00000   1.00000

 Dipole moment (field-independent basis, Debye):
    X=              0.4544    Y=             -0.1657    Z=             -0.4379  Tot=              0.6524
 Quadrupole moment (field-independent basis, Debye-Ang):
   XX=            -50.6943   YY=            -72.3603   ZZ=            -71.6791
   XY=             -0.7823   XZ=             -0.5190   YZ=              2.2845

 Normal termination of Gaussian 16 at Tue Dec  5 18:40:38 2023.
