 Gaussian 16, Revision B.01,
 Gaussian 16:  ES64L-G16RevB.01 20-Dec-2017

 -------------------------
 #P B3LYP/6-311+g(d) force
 -------------------------

 -----
 DPGEN
 -----
 Symbolic Z-matrix:
 Charge =  0 Multiplicity = 2

                         Standard orientation:
 ---------------------------------------------------------------------
 Center     Atomic      Atomic             Coordinates (Angstroms)
 Number     Number       Type             X           Y           Z
 ---------------------------------------------------------------------
      1         11           0        0.197263   -0.547387   -1.711594
      2         11           0        3.898879   -1.847173   -0.348047
      3         11           0        2.770463    1.952582   -0.548571
      4         11           0       -0.356447    2.157901    0.381027
      5         11           0        1.482915   -0.846665    1.734698
      6         11           0       -2.669904   -0.264645    1.281222
      7         11           0       -5.323169   -0.604614   -0.788735
 ---------------------------------------------------------------------

 SCF Done:  E(UB3LYP) =  -1136.11343472     A.U. after   27 cycles

 The electronic state is 2-A.
 Alpha  occ. eigenvalues --  -38.46873 -38.44520 -38.44286 -38.44085 -38.43640
 Alpha  occ. eigenvalues --  -38.43450 -38.43125  -2.22642  -2.20341  -2.20077
 Alpha  occ. eigenvalues --   -2.19944  -2.19458  -2.19250  -2.19006  -1.16331
 Alpha  occ. eigenvalues --   -1.16290  -1.16261  -1.14028  -1.14004  -1.13966
 Alpha  occ. eigenvalues --   -1.13721  -1.13719  -1.13698  -1.13624  -1.13601
 Alpha  occ. eigenvalues --   -1.13547  -1.13150  -1.13131  -1.13094  -1.12920
 Alpha  occ. eigenvalues --   -1.12910  -1.12886  -1.12689  -1.12677  -1.12643
 Alpha  occ. eigenvalues --   -0.17826  -0.13748  -0.11403  -0.10854
 Alpha virt. eigenvalues --   -0.07571  -0.05372  -0.04555  -0.03103  -0.02931
 Alpha virt. eigenvalues --   -0.02400  -0.02350  -0.01732  -0.01475  -0.00569
 Alpha virt. eigenvalues --   -0.00374   0.00082   0.00183   0.00405   0.00547

  Beta  occ. eigenvalues --  -38.46852 -38.44517 -38.44204 -38.44018 -38.43630
  Beta  occ. eigenvalues --  -38.43440 -38.43129  -2.22607  -2.20336  -2.19924
  Beta  occ. eigenvalues --   -2.19820  -2.19445  -2.19234  -2.19016  -1.16295
  Beta  occ. eigenvalues --   -1.16264  -1.16240  -1.14028  -1.13988  -1.13969
  Beta  occ. eigenvalues --   -1.13616  -1.13614  -1.13599  -1.13549  -1.13520
  Beta  occ. eigenvalues --   -1.13439  -1.13149  -1.13130  -1.13032  -1.12907
  Beta  occ. eigenvalues --   -1.12891  -1.12878  -1.12698  -1.12689  -1.12625
  Beta  occ. eigenvalues --   -0.17286  -0.13117  -0.11259
  Beta virt. eigenvalues --   -0.07531  -0.07204  -0.05008  -0.04120  -0.02968
  Beta virt. eigenvalues --   -0.02852  -0.01946  -0.01904  -0.01423  -0.01081
  Beta virt. eigenvalues --   -0.00357  -0.00249   0.00172   0.00341   0.00464

 Mulliken charges and spin densities:
               1          2
     1  Na  -0.332715   0.007458
     2  Na   0.427504   0.166527
     3  Na   0.214508   0.205210
     4  Na   0.098131  -0.140781
     5  Na  -0.468869   0.239265
     6  Na   0.035565   0.144765
     7  Na   0.025877   0.377556
 Sum of Mulliken charges =  -0.00000   1.00000

 Dipole moment (field-independent basis, Debye):
    X=              0.7933    Y=              0.3218    Z=             -0.9179  Tot=              1.2552
 Quadrupole moment (field-independent basis, Debye-Ang):
   XX=            -63.4020   YY=            -73.3175   ZZ=            -66.7565
   XY=              1.7521   XZ=              0.8332   YZ=              4.7842

 Normal termination of Gaussian 16 at Thu Dec  7 23:18:59 2023.
