 Gaussian 16, Revision B.01,
 Gaussian 16:  ES64L-G16RevB.01 20-Dec-2017

 -------------------------
 #P B3LYP/6-311+g(d) force
 -------------------------

 -----
 DPGEN
 -----
 Symbolic Z-matrix:
 Charge =  0 Multiplicity = 2

                         Standard orientation:
 ---------------------------------------------------------------------
 Center     Atomic      Atomic             Coordinates (Angstroms)
 Number     Number       Type             X           Y           Z
 ---------------------------------------------------------------------
      1         11           0        0.286626    0.097653    2.079658
      2         11           0        2.725806   -0.243633   -0.231481
      3         11           0       -0.061829   -0.267105   -1.554303
      4         11           0       -2.829549   -1.307664   -0.319515
      5         11           0        0.989345    2.602724   -0.476816
      6         11           0       -1.889886    1.861117    0.331620
      7         11           0        0.779487   -2.743092    0.170838
 ---------------------------------------------------------------------

 SCF Done:  E(UB3LYP) =  -1136.13437573     A.U. after   18 cycles

 The electronic state is 2-A.
 Alpha  occ. eigenvalues --  -38.43778 -38.43571 -38.43553 -38.43416 -38.43322
 Alpha  occ. eigenvalues --  -38.43200 -38.43057  -2.19715  -2.19454  -2.19414
 Alpha  occ. eigenvalues --   -2.19368  -2.19258  -2.19146  -2.19129  -1.13388
 Alpha  occ. eigenvalues --   -1.13358  -1.13332  -1.13203  -1.13132  -1.13114
 Alpha  occ. eigenvalues --   -1.13096  -1.13084  -1.13073  -1.13048  -1.13018
 Alpha  occ. eigenvalues --   -1.13002  -1.12967  -1.12924  -1.12893  -1.12838
 Alpha  occ. eigenvalues --   -1.12797  -1.12758  -1.12753  -1.12738  -1.12726
 Alpha  occ. eigenvalues --   -0.19457  -0.13106  -0.12718  -0.11257
 Alpha virt. eigenvalues --   -0.05175  -0.04864  -0.04609  -0.03325  -0.02997
 Alpha virt. eigenvalues --   -0.02782  -0.01174  -0.01046  -0.00100   0.00067
 Alpha virt. eigenvalues --    0.00167   0.00366   0.00931   0.00947   0.00978

  Beta  occ. eigenvalues --  -38.43679 -38.43568 -38.43547 -38.43405 -38.43313
  Beta  occ. eigenvalues --  -38.43188 -38.42994  -2.19532  -2.19446  -2.19410
  Beta  occ. eigenvalues --   -2.19353  -2.19244  -2.19112  -2.19032  -1.13275
  Beta  occ. eigenvalues --   -1.13231  -1.13209  -1.13183  -1.13118  -1.13093
  Beta  occ. eigenvalues --   -1.13078  -1.13067  -1.13062  -1.13045  -1.12994
  Beta  occ. eigenvalues --   -1.12987  -1.12953  -1.12900  -1.12867  -1.12801
  Beta  occ. eigenvalues --   -1.12743  -1.12724  -1.12719  -1.12678  -1.12653
  Beta  occ. eigenvalues --   -0.18696  -0.12839  -0.12448
  Beta virt. eigenvalues --   -0.07244  -0.05160  -0.04825  -0.04589  -0.02457
  Beta virt. eigenvalues --   -0.02256  -0.01676  -0.01095  -0.00978  -0.00033
  Beta virt. eigenvalues --    0.00080   0.00162   0.00389   0.00931   0.00964

 Mulliken charges and spin densities:
               1          2
     1  Na  -0.580831   0.571705
     2  Na   0.410300   0.035691
     3  Na  -0.617034   0.294561
     4  Na   0.071659  -0.057587
     5  Na   0.192218   0.031446
     6  Na   0.323915   0.116732
     7  Na   0.199772   0.007453
 Sum of Mulliken charges =  -0.00000   1.00000

 Dipole moment (field-independent basis, Debye):
    X=             -0.0158    Y=             -0.2357    Z=              0.2977  Tot=              0.3800
 Quadrupole moment (field-independent basis, Debye-Ang):
   XX=            -60.8283   YY=            -61.7382   ZZ=            -71.9566
   XY=              0.5983   XZ=             -0.6790   YZ=             -0.8455

 Normal termination of Gaussian 16 at Fri Dec  8 05:22:10 2023.
