 Gaussian 16, Revision B.01,
 Gaussian 16:  ES64L-G16RevB.01 20-Dec-2017

 -------------------------
 #P B3LYP/6-311+g(d) force
 -------------------------

 -----
 DPGEN
 -----
 Symbolic Z-matrix:
 Charge =  0 Multiplicity = 2

                         Standard orientation:
 ---------------------------------------------------------------------
 Center     Atomic      Atomic             Coordinates (Angstroms)
 Number     Number       Type             X           Y           Z
 ---------------------------------------------------------------------
      1         11           0       -0.189952    0.365913    2.118164
      2         11           0        0.068258   -0.276393   -1.535240
      3         11           0        3.120729   -0.656107   -0.247064
      4         11           0       -1.970623    2.105997   -0.498739
      5         11           0        1.598678    2.377305    0.041017
      6         11           0       -3.059632   -1.196857   -0.050700
      7         11           0        0.432543   -2.719858    0.172562
 ---------------------------------------------------------------------

 SCF Done:  E(UB3LYP) =  -1136.13742243     A.U. after   18 cycles

 The electronic state is 2-A.
 Alpha  occ. eigenvalues --  -38.44175 -38.43984 -38.43599 -38.43541 -38.43262
 Alpha  occ. eigenvalues --  -38.43223 -38.43139  -2.19979  -2.19835  -2.19486
 Alpha  occ. eigenvalues --   -2.19402  -2.19166  -2.19141  -2.19093  -1.13652
 Alpha  occ. eigenvalues --   -1.13636  -1.13624  -1.13516  -1.13489  -1.13480
 Alpha  occ. eigenvalues --   -1.13155  -1.13116  -1.13108  -1.13104  -1.13053
 Alpha  occ. eigenvalues --   -1.13024  -1.12991  -1.12840  -1.12796  -1.12783
 Alpha  occ. eigenvalues --   -1.12764  -1.12754  -1.12737  -1.12726  -1.12722
 Alpha  occ. eigenvalues --   -0.18773  -0.13126  -0.12377  -0.10800
 Alpha virt. eigenvalues --   -0.05773  -0.05149  -0.04428  -0.03160  -0.02916
 Alpha virt. eigenvalues --   -0.02567  -0.01697  -0.01065  -0.00290  -0.00211
 Alpha virt. eigenvalues --   -0.00017   0.00340   0.00778   0.00886   0.00906

  Beta  occ. eigenvalues --  -38.44174 -38.43980 -38.43528 -38.43499 -38.43256
  Beta  occ. eigenvalues --  -38.43217 -38.43084  -2.19980  -2.19829  -2.19381
  Beta  occ. eigenvalues --   -2.19300  -2.19137  -2.19087  -2.19063  -1.13640
  Beta  occ. eigenvalues --   -1.13638  -1.13622  -1.13506  -1.13482  -1.13472
  Beta  occ. eigenvalues --   -1.13087  -1.13042  -1.13025  -1.13010  -1.12975
  Beta  occ. eigenvalues --   -1.12973  -1.12953  -1.12794  -1.12772  -1.12749
  Beta  occ. eigenvalues --   -1.12740  -1.12727  -1.12722  -1.12684  -1.12677
  Beta  occ. eigenvalues --   -0.18048  -0.12890  -0.12143
  Beta virt. eigenvalues --   -0.06849  -0.05738  -0.05140  -0.04380  -0.02417
  Beta virt. eigenvalues --   -0.02117  -0.01623  -0.01483  -0.01002  -0.00313
  Beta virt. eigenvalues --   -0.00249   0.00129   0.00372   0.00845   0.00885

 Mulliken charges and spin densities:
               1          2
     1  Na  -0.608281   0.739977
     2  Na  -0.413787   0.288947
     3  Na   0.212409  -0.008974
     4  Na   0.200264  -0.003446
     5  Na   0.306979   0.007906
     6  Na   0.106482  -0.036472
     7  Na   0.195934   0.012061
 Sum of Mulliken charges =  -0.00000   1.00000

 Dipole moment (field-independent basis, Debye):
    X=             -0.1586    Y=             -0.0795    Z=              0.1775  Tot=              0.2509
 Quadrupole moment (field-independent basis, Debye-Ang):
   XX=            -54.3360   YY=            -64.6603   ZZ=            -74.0643
   XY=              0.5160   XZ=              0.1752   YZ=             -1.4034

 Normal termination of Gaussian 16 at Thu Dec  7 07:01:19 2023.
