 Gaussian 16, Revision B.01,
 Gaussian 16:  ES64L-G16RevB.01 20-Dec-2017

 -------------------------
 #P B3LYP/6-311+g(d) force
 -------------------------

 -----
 DPGEN
 -----
 Symbolic Z-matrix:
 Charge =  0 Multiplicity = 2

                         Standard orientation:
 ---------------------------------------------------------------------
 Center     Atomic      Atomic             Coordinates (Angstroms)
 Number     Number       Type             X           Y           Z
 ---------------------------------------------------------------------
      1         11           0        0.356024   -1.271937   -0.496086
      2         11           0        3.603481   -3.392257    0.211925
      3         11           0        3.166740    0.247847    0.605053
      4         11           0        2.836213    3.529398    0.197361
      5         11           0       -0.239108    1.589901   -0.795343
      6         11           0       -3.510626   -0.779138   -0.566797
      7         11           0       -6.212724    0.076186    0.843887
 ---------------------------------------------------------------------

 SCF Done:  E(UB3LYP) =  -1136.11887738     A.U. after   22 cycles

 The electronic state is 2-A.
 Alpha  occ. eigenvalues --  -38.44817 -38.44758 -38.44344 -38.44130 -38.43885
 Alpha  occ. eigenvalues --  -38.43841 -38.43781  -2.20671  -2.20571  -2.20231
 Alpha  occ. eigenvalues --   -2.19985  -2.19680  -2.19647  -2.19545  -1.14470
 Alpha  occ. eigenvalues --   -1.14340  -1.14226  -1.14215  -1.14201  -1.14200
 Alpha  occ. eigenvalues --   -1.13934  -1.13901  -1.13799  -1.13688  -1.13677
 Alpha  occ. eigenvalues --   -1.13570  -1.13367  -1.13365  -1.13324  -1.13313
 Alpha  occ. eigenvalues --   -1.13304  -1.13261  -1.13215  -1.13213  -1.13158
 Alpha  occ. eigenvalues --   -0.16985  -0.14039  -0.12060  -0.11745
 Alpha virt. eigenvalues --   -0.05732  -0.05519  -0.04460  -0.04013  -0.02785
 Alpha virt. eigenvalues --   -0.02399  -0.02082  -0.01701  -0.01163  -0.00926
 Alpha virt. eigenvalues --   -0.00436  -0.00052   0.00043   0.00437   0.00690

  Beta  occ. eigenvalues --  -38.44778 -38.44669 -38.44299 -38.44105 -38.43891
  Beta  occ. eigenvalues --  -38.43810 -38.43763  -2.20603  -2.20406  -2.20155
  Beta  occ. eigenvalues --   -2.19939  -2.19700  -2.19591  -2.19512  -1.14407
  Beta  occ. eigenvalues --   -1.14298  -1.14172  -1.14106  -1.14088  -1.14087
  Beta  occ. eigenvalues --   -1.13890  -1.13854  -1.13719  -1.13656  -1.13644
  Beta  occ. eigenvalues --   -1.13529  -1.13388  -1.13384  -1.13279  -1.13267
  Beta  occ. eigenvalues --   -1.13265  -1.13229  -1.13193  -1.13188  -1.13138
  Beta  occ. eigenvalues --   -0.16330  -0.13129  -0.11818
  Beta virt. eigenvalues --   -0.08363  -0.05505  -0.05126  -0.04114  -0.03804
  Beta virt. eigenvalues --   -0.02377  -0.02162  -0.01709  -0.01497  -0.01010
  Beta virt. eigenvalues --   -0.00595  -0.00140   0.00111   0.00164   0.00508

 Mulliken charges and spin densities:
               1          2
     1  Na  -0.922798   0.124450
     2  Na   0.635107   0.173319
     3  Na  -0.730598   0.407863
     4  Na   0.825078   0.103758
     5  Na  -0.108464  -0.057074
     6  Na  -0.474916  -0.102249
     7  Na   0.776593   0.349932
 Sum of Mulliken charges =  -0.00000   1.00000

 Dipole moment (field-independent basis, Debye):
    X=             -0.3106    Y=              0.5696    Z=              0.0965  Tot=              0.6559
 Quadrupole moment (field-independent basis, Debye-Ang):
   XX=            -59.5122   YY=            -62.1644   ZZ=            -71.6016
   XY=             -2.4255   XZ=             -1.7316   YZ=              0.6990

 Normal termination of Gaussian 16 at Tue Nov 28 22:59:29 2023.
