 Gaussian 16, Revision B.01,
 Gaussian 16:  ES64L-G16RevB.01 20-Dec-2017

 -------------------------
 #P B3LYP/6-311+g(d) force
 -------------------------

 -----
 DPGEN
 -----
 Symbolic Z-matrix:
 Charge =  0 Multiplicity = 2

                         Standard orientation:
 ---------------------------------------------------------------------
 Center     Atomic      Atomic             Coordinates (Angstroms)
 Number     Number       Type             X           Y           Z
 ---------------------------------------------------------------------
      1         11           0        2.376199   -2.013132   -0.998290
      2         11           0       -0.746592   -0.853406   -1.448198
      3         11           0        0.387987    2.530668   -0.883622
      4         11           0        3.792314    0.600580    0.746256
      5         11           0        0.135853   -0.543005    2.116258
      6         11           0       -3.446360   -1.749113    0.332713
      7         11           0       -2.499400    2.027408    0.134884
 ---------------------------------------------------------------------

 SCF Done:  E(UB3LYP) =  -1136.12056608     A.U. after   22 cycles

 The electronic state is 2-A.
 Alpha  occ. eigenvalues --  -38.45354 -38.45146 -38.44233 -38.44110 -38.43895
 Alpha  occ. eigenvalues --  -38.43471 -38.42774  -2.21123  -2.20908  -2.20010
 Alpha  occ. eigenvalues --   -2.19928  -2.19728  -2.19373  -2.18611  -1.14802
 Alpha  occ. eigenvalues --   -1.14781  -1.14720  -1.14574  -1.14566  -1.14542
 Alpha  occ. eigenvalues --   -1.13692  -1.13674  -1.13649  -1.13608  -1.13583
 Alpha  occ. eigenvalues --   -1.13554  -1.13413  -1.13400  -1.13356  -1.13067
 Alpha  occ. eigenvalues --   -1.13008  -1.13001  -1.12288  -1.12272  -1.12244
 Alpha  occ. eigenvalues --   -0.17629  -0.13452  -0.11519  -0.10886
 Alpha virt. eigenvalues --   -0.07012  -0.05621  -0.04173  -0.03431  -0.02805
 Alpha virt. eigenvalues --   -0.02521  -0.02473  -0.01438  -0.00746  -0.00474
 Alpha virt. eigenvalues --    0.00025   0.00146   0.00272   0.00559   0.00635

  Beta  occ. eigenvalues --  -38.45284 -38.45129 -38.44241 -38.44074 -38.43897
  Beta  occ. eigenvalues --  -38.43414 -38.42765  -2.20993  -2.20877  -2.20026
  Beta  occ. eigenvalues --   -2.19864  -2.19731  -2.19272  -2.18596  -1.14711
  Beta  occ. eigenvalues --   -1.14691  -1.14622  -1.14548  -1.14544  -1.14521
  Beta  occ. eigenvalues --   -1.13699  -1.13685  -1.13656  -1.13554  -1.13538
  Beta  occ. eigenvalues --   -1.13501  -1.13417  -1.13393  -1.13359  -1.13003
  Beta  occ. eigenvalues --   -1.12931  -1.12914  -1.12277  -1.12255  -1.12231
  Beta  occ. eigenvalues --   -0.16953  -0.13306  -0.11329
  Beta virt. eigenvalues --   -0.07150  -0.06645  -0.05505  -0.03905  -0.03083
  Beta virt. eigenvalues --   -0.02366  -0.02048  -0.01718  -0.01285  -0.00614
  Beta virt. eigenvalues --   -0.00365   0.00074   0.00188   0.00432   0.00657

 Mulliken charges and spin densities:
               1          2
     1  Na   0.054014   0.007588
     2  Na  -0.212174   0.356301
     3  Na  -0.223326  -0.068773
     4  Na   0.091261   0.203358
     5  Na  -0.305776   0.487671
     6  Na   0.317073   0.012114
     7  Na   0.278928   0.001740
 Sum of Mulliken charges =  -0.00000   1.00000

 Dipole moment (field-independent basis, Debye):
    X=              0.3028    Y=             -0.1742    Z=              0.6499  Tot=              0.7378
 Quadrupole moment (field-independent basis, Debye-Ang):
   XX=            -49.2178   YY=            -73.3373   ZZ=            -72.4567
   XY=              1.3864   XZ=             -1.4462   YZ=              1.1996

 Normal termination of Gaussian 16 at Thu Dec  7 05:10:36 2023.
