 Gaussian 16, Revision B.01,
 Gaussian 16:  ES64L-G16RevB.01 20-Dec-2017

 -------------------------
 #P B3LYP/6-311+g(d) force
 -------------------------

 -----
 DPGEN
 -----
 Symbolic Z-matrix:
 Charge =  0 Multiplicity = 2

                         Standard orientation:
 ---------------------------------------------------------------------
 Center     Atomic      Atomic             Coordinates (Angstroms)
 Number     Number       Type             X           Y           Z
 ---------------------------------------------------------------------
      1         11           0        3.668131    0.409189    0.186135
      2         11           0        2.139185   -2.350148   -0.376125
      3         11           0       -3.386618   -1.639986   -0.225186
      4         11           0        1.127198    2.364898   -0.543774
      5         11           0       -0.283125   -0.267118    2.106586
      6         11           0       -0.575140   -0.368755   -1.190894
      7         11           0       -2.689631    1.851921    0.043259
 ---------------------------------------------------------------------

 SCF Done:  E(UB3LYP) =  -1136.11949481     A.U. after   25 cycles

 The electronic state is 2-A.
 Alpha  occ. eigenvalues --  -38.45245 -38.44692 -38.44659 -38.43831 -38.43769
 Alpha  occ. eigenvalues --  -38.43478 -38.42799  -2.21061  -2.20511  -2.20469
 Alpha  occ. eigenvalues --   -2.19809  -2.19587  -2.19342  -2.18645  -1.14727
 Alpha  occ. eigenvalues --   -1.14723  -1.14711  -1.14200  -1.14177  -1.14150
 Alpha  occ. eigenvalues --   -1.14145  -1.14111  -1.14098  -1.13525  -1.13459
 Alpha  occ. eigenvalues --   -1.13448  -1.13261  -1.13247  -1.13228  -1.13013
 Alpha  occ. eigenvalues --   -1.12954  -1.12945  -1.12350  -1.12306  -1.12269
 Alpha  occ. eigenvalues --   -0.18258  -0.14063  -0.11387  -0.10280
 Alpha virt. eigenvalues --   -0.07075  -0.06102  -0.03751  -0.03401  -0.02685
 Alpha virt. eigenvalues --   -0.02253  -0.02057  -0.01797  -0.00918  -0.00200
 Alpha virt. eigenvalues --   -0.00102   0.00070   0.00541   0.00619   0.00677

  Beta  occ. eigenvalues --  -38.45243 -38.44686 -38.44641 -38.43807 -38.43770
  Beta  occ. eigenvalues --  -38.43359 -38.42793  -2.21059  -2.20503  -2.20438
  Beta  occ. eigenvalues --   -2.19768  -2.19590  -2.19122  -2.18637  -1.14730
  Beta  occ. eigenvalues --   -1.14713  -1.14707  -1.14193  -1.14159  -1.14134
  Beta  occ. eigenvalues --   -1.14123  -1.14083  -1.14077  -1.13467  -1.13429
  Beta  occ. eigenvalues --   -1.13422  -1.13262  -1.13251  -1.13218  -1.12865
  Beta  occ. eigenvalues --   -1.12804  -1.12788  -1.12344  -1.12295  -1.12255
  Beta  occ. eigenvalues --   -0.17603  -0.13819  -0.11209
  Beta virt. eigenvalues --   -0.06955  -0.06374  -0.06038  -0.03689  -0.02820
  Beta virt. eigenvalues --   -0.02493  -0.01818  -0.01441  -0.01195  -0.00861
  Beta virt. eigenvalues --   -0.00112   0.00039   0.00164   0.00623   0.00643

 Mulliken charges and spin densities:
               1          2
     1  Na  -0.081858  -0.026686
     2  Na   0.499802   0.161615
     3  Na   0.252968   0.188982
     4  Na   0.212833   0.050908
     5  Na  -0.447800   0.621216
     6  Na  -0.756806  -0.046386
     7  Na   0.320859   0.050351
 Sum of Mulliken charges =  -0.00000   1.00000

 Dipole moment (field-independent basis, Debye):
    X=             -0.3754    Y=              0.0162    Z=              0.4851  Tot=              0.6136
 Quadrupole moment (field-independent basis, Debye-Ang):
   XX=            -46.8379   YY=            -69.8276   ZZ=            -76.1727
   XY=             -0.4478   XZ=             -0.0419   YZ=              0.9880

 Normal termination of Gaussian 16 at Tue Dec  5 12:49:32 2023.
