 Gaussian 16, Revision B.01,
 Gaussian 16:  ES64L-G16RevB.01 20-Dec-2017

 -------------------------
 #P B3LYP/6-311+g(d) force
 -------------------------

 -----
 DPGEN
 -----
 Symbolic Z-matrix:
 Charge =  0 Multiplicity = 2

                         Standard orientation:
 ---------------------------------------------------------------------
 Center     Atomic      Atomic             Coordinates (Angstroms)
 Number     Number       Type             X           Y           Z
 ---------------------------------------------------------------------
      1         11           0       -0.090069    3.009744   -0.163180
      2         11           0        0.708268    0.624311    2.209382
      3         11           0       -0.171953    0.044549   -1.232595
      4         11           0        3.289454    0.551426   -0.674440
      5         11           0       -3.834143    0.072374   -0.697431
      6         11           0       -1.414357   -1.642840    1.056155
      7         11           0        1.512801   -2.659564   -0.497891
 ---------------------------------------------------------------------

 SCF Done:  E(UB3LYP) =  -1136.12676075     A.U. after   19 cycles

 The electronic state is 2-A.
 Alpha  occ. eigenvalues --  -38.44779 -38.44476 -38.43945 -38.43492 -38.43241
 Alpha  occ. eigenvalues --  -38.43219 -38.43146  -2.20565  -2.20251  -2.19831
 Alpha  occ. eigenvalues --   -2.19314  -2.19256  -2.19071  -2.19057  -1.14250
 Alpha  occ. eigenvalues --   -1.14215  -1.14184  -1.13921  -1.13902  -1.13880
 Alpha  occ. eigenvalues --   -1.13513  -1.13454  -1.13438  -1.13072  -1.13022
 Alpha  occ. eigenvalues --   -1.12974  -1.12926  -1.12893  -1.12867  -1.12759
 Alpha  occ. eigenvalues --   -1.12737  -1.12726  -1.12707  -1.12690  -1.12655
 Alpha  occ. eigenvalues --   -0.18325  -0.12828  -0.11974  -0.11159
 Alpha virt. eigenvalues --   -0.06462  -0.04709  -0.04183  -0.03286  -0.02811
 Alpha virt. eigenvalues --   -0.02665  -0.02168  -0.01008  -0.00556  -0.00183
 Alpha virt. eigenvalues --    0.00093   0.00256   0.00528   0.00766   0.00884

  Beta  occ. eigenvalues --  -38.44760 -38.44456 -38.43845 -38.43491 -38.43217
  Beta  occ. eigenvalues --  -38.43212 -38.43115  -2.20532  -2.20215  -2.19649
  Beta  occ. eigenvalues --   -2.19313  -2.19206  -2.19055  -2.19020  -1.14217
  Beta  occ. eigenvalues --   -1.14195  -1.14160  -1.13893  -1.13878  -1.13856
  Beta  occ. eigenvalues --   -1.13388  -1.13332  -1.13304  -1.13062  -1.12980
  Beta  occ. eigenvalues --   -1.12956  -1.12927  -1.12868  -1.12833  -1.12732
  Beta  occ. eigenvalues --   -1.12719  -1.12702  -1.12690  -1.12653  -1.12620
  Beta  occ. eigenvalues --   -0.17620  -0.12525  -0.11787
  Beta virt. eigenvalues --   -0.07308  -0.06246  -0.04632  -0.03936  -0.02864
  Beta virt. eigenvalues --   -0.02197  -0.01969  -0.01677  -0.00977  -0.00399
  Beta virt. eigenvalues --   -0.00037   0.00118   0.00306   0.00587   0.00803

 Mulliken charges and spin densities:
               1          2
     1  Na  -0.113806   0.113930
     2  Na  -0.115947   0.316917
     3  Na  -0.364653  -0.081962
     4  Na   0.163717   0.094393
     5  Na   0.015119   0.085775
     6  Na   0.391533   0.359112
     7  Na   0.024038   0.111834
 Sum of Mulliken charges =  -0.00000   1.00000

 Dipole moment (field-independent basis, Debye):
    X=              0.2953    Y=              0.4016    Z=              0.0624  Tot=              0.5024
 Quadrupole moment (field-independent basis, Debye-Ang):
   XX=            -53.4757   YY=            -67.0431   ZZ=            -71.1348
   XY=             -0.3376   XZ=              0.5938   YZ=             -1.0169

 Normal termination of Gaussian 16 at Tue Dec  5 17:20:59 2023.
