 Gaussian 16, Revision B.01,
 Gaussian 16:  ES64L-G16RevB.01 20-Dec-2017

 -------------------------
 #P B3LYP/6-311+g(d) force
 -------------------------

 -----
 DPGEN
 -----
 Symbolic Z-matrix:
 Charge =  0 Multiplicity = 2

                         Standard orientation:
 ---------------------------------------------------------------------
 Center     Atomic      Atomic             Coordinates (Angstroms)
 Number     Number       Type             X           Y           Z
 ---------------------------------------------------------------------
      1         11           0       -2.885475   -0.666740    0.109505
      2         11           0        3.197684   -1.076377    0.056818
      3         11           0        0.495519   -0.292644   -1.444834
      4         11           0       -0.454149   -3.095282   -0.281770
      5         11           0        2.036189    2.585144    0.073521
      6         11           0       -2.038314    2.437507   -0.649186
      7         11           0       -0.351453    0.108392    2.135947
 ---------------------------------------------------------------------

 SCF Done:  E(UB3LYP) =  -1136.13227967     A.U. after   19 cycles

 The electronic state is 2-A.
 Alpha  occ. eigenvalues --  -38.44610 -38.44309 -38.43690 -38.43673 -38.43648
 Alpha  occ. eigenvalues --  -38.43616 -38.43148  -2.20401  -2.20075  -2.19548
 Alpha  occ. eigenvalues --   -2.19509  -2.19496  -2.19449  -2.19106  -1.14099
 Alpha  occ. eigenvalues --   -1.14061  -1.14022  -1.13756  -1.13737  -1.13710
 Alpha  occ. eigenvalues --   -1.13262  -1.13237  -1.13209  -1.13161  -1.13160
 Alpha  occ. eigenvalues --   -1.13155  -1.13135  -1.13127  -1.13122  -1.13117
 Alpha  occ. eigenvalues --   -1.13097  -1.13073  -1.12796  -1.12744  -1.12733
 Alpha  occ. eigenvalues --   -0.18133  -0.13020  -0.12287  -0.10444
 Alpha virt. eigenvalues --   -0.06002  -0.05361  -0.04860  -0.03172  -0.02768
 Alpha virt. eigenvalues --   -0.02362  -0.01638  -0.01406  -0.00654  -0.00602
 Alpha virt. eigenvalues --   -0.00016   0.00330   0.00732   0.00764   0.00861

  Beta  occ. eigenvalues --  -38.44611 -38.44308 -38.43670 -38.43666 -38.43611
  Beta  occ. eigenvalues --  -38.43546 -38.43104  -2.20404  -2.20077  -2.19540
  Beta  occ. eigenvalues --   -2.19463  -2.19442  -2.19320  -2.19028  -1.14095
  Beta  occ. eigenvalues --   -1.14057  -1.14025  -1.13745  -1.13737  -1.13712
  Beta  occ. eigenvalues --   -1.13247  -1.13214  -1.13186  -1.13144  -1.13124
  Beta  occ. eigenvalues --   -1.13111  -1.13108  -1.13084  -1.13068  -1.13039
  Beta  occ. eigenvalues --   -1.12999  -1.12986  -1.12736  -1.12688  -1.12675
  Beta  occ. eigenvalues --   -0.17453  -0.12820  -0.12051
  Beta virt. eigenvalues --   -0.06594  -0.05997  -0.05250  -0.04766  -0.02447
  Beta virt. eigenvalues --   -0.02093  -0.01559  -0.01353  -0.01326  -0.00666
  Beta virt. eigenvalues --   -0.00620   0.00148   0.00380   0.00737   0.00849

 Mulliken charges and spin densities:
               1          2
     1  Na   0.394820   0.142158
     2  Na   0.032981  -0.079305
     3  Na   0.008679   0.294272
     4  Na   0.105760  -0.057280
     5  Na  -0.041941  -0.029755
     6  Na  -0.088151   0.056646
     7  Na  -0.412147   0.673263
 Sum of Mulliken charges =  -0.00000   1.00000

 Dipole moment (field-independent basis, Debye):
    X=              0.6684    Y=             -0.0198    Z=              0.1764  Tot=              0.6916
 Quadrupole moment (field-independent basis, Debye-Ang):
   XX=            -56.6797   YY=            -60.0882   ZZ=            -76.0913
   XY=              0.2939   XZ=              1.8242   YZ=             -0.9491

 Normal termination of Gaussian 16 at Thu Dec  7 14:46:24 2023.
