 Gaussian 16, Revision B.01,
 Gaussian 16:  ES64L-G16RevB.01 20-Dec-2017

 -------------------------
 #P B3LYP/6-311+g(d) force
 -------------------------

 -----
 DPGEN
 -----
 Symbolic Z-matrix:
 Charge =  0 Multiplicity = 2

                         Standard orientation:
 ---------------------------------------------------------------------
 Center     Atomic      Atomic             Coordinates (Angstroms)
 Number     Number       Type             X           Y           Z
 ---------------------------------------------------------------------
      1         11           0        3.327665   -0.738720    1.940278
      2         11           0        2.531532   -1.619904   -1.798265
      3         11           0        1.926198    1.141251   -0.642332
      4         11           0        0.114816    2.735131    0.359147
      5         11           0       -4.238711   -1.510441    0.523899
      6         11           0       -2.842663    1.166886   -0.592471
      7         11           0       -0.818837   -1.174203    0.209744
 ---------------------------------------------------------------------

 SCF Done:  E(UB3LYP) =  -1136.11023022     A.U. after   22 cycles

 The electronic state is 2-A.
 Alpha  occ. eigenvalues --  -38.45219 -38.44862 -38.44516 -38.44141 -38.43919
 Alpha  occ. eigenvalues --  -38.43675 -38.43068  -2.21052  -2.20729  -2.20341
 Alpha  occ. eigenvalues --   -2.20163  -2.19735  -2.19529  -2.18985  -1.14778
 Alpha  occ. eigenvalues --   -1.14743  -1.14655  -1.14423  -1.14407  -1.14338
 Alpha  occ. eigenvalues --   -1.14093  -1.14007  -1.13995  -1.13966  -1.13795
 Alpha  occ. eigenvalues --   -1.13765  -1.13386  -1.13375  -1.13333  -1.13218
 Alpha  occ. eigenvalues --   -1.13161  -1.13130  -1.12672  -1.12583  -1.12559
 Alpha  occ. eigenvalues --   -0.17851  -0.14641  -0.11816  -0.10462
 Alpha virt. eigenvalues --   -0.06649  -0.06050  -0.04187  -0.03557  -0.02865
 Alpha virt. eigenvalues --   -0.02381  -0.02073  -0.01400  -0.00776  -0.00648
 Alpha virt. eigenvalues --   -0.00153   0.00076   0.00241   0.00597   0.00660

  Beta  occ. eigenvalues --  -38.45214 -38.44864 -38.44511 -38.44123 -38.43816
  Beta  occ. eigenvalues --  -38.43620 -38.43065  -2.21046  -2.20734  -2.20332
  Beta  occ. eigenvalues --   -2.20138  -2.19543  -2.19428  -2.18982  -1.14769
  Beta  occ. eigenvalues --   -1.14730  -1.14651  -1.14424  -1.14409  -1.14342
  Beta  occ. eigenvalues --   -1.14072  -1.14001  -1.13988  -1.13961  -1.13779
  Beta  occ. eigenvalues --   -1.13707  -1.13255  -1.13240  -1.13207  -1.13149
  Beta  occ. eigenvalues --   -1.13087  -1.13057  -1.12670  -1.12581  -1.12550
  Beta  occ. eigenvalues --   -0.17431  -0.14268  -0.11645
  Beta virt. eigenvalues --   -0.06638  -0.06438  -0.05798  -0.03957  -0.03321
  Beta virt. eigenvalues --   -0.02697  -0.01938  -0.01453  -0.01173  -0.00623
  Beta virt. eigenvalues --   -0.00228   0.00117   0.00176   0.00429   0.00689

 Mulliken charges and spin densities:
               1          2
     1  Na  -0.160884   0.393803
     2  Na   1.054841   0.202986
     3  Na   0.282468   0.691882
     4  Na  -0.009767  -0.147651
     5  Na   0.072395  -0.006395
     6  Na   0.021743  -0.065515
     7  Na  -1.260797  -0.069110
 Sum of Mulliken charges =  -0.00000   1.00000

 Dipole moment (field-independent basis, Debye):
    X=             -2.1538    Y=             -0.6619    Z=             -0.2302  Tot=              2.2649
 Quadrupole moment (field-independent basis, Debye-Ang):
   XX=            -55.4320   YY=            -69.9027   ZZ=            -72.3253
   XY=              0.1506   XZ=             -3.1262   YZ=             -1.9530

 Normal termination of Gaussian 16 at Tue Dec  5 17:50:49 2023.
