 Gaussian 16, Revision B.01,
 Gaussian 16:  ES64L-G16RevB.01 20-Dec-2017

 -------------------------
 #P B3LYP/6-311+g(d) force
 -------------------------

 -----
 DPGEN
 -----
 Symbolic Z-matrix:
 Charge =  0 Multiplicity = 2

                         Standard orientation:
 ---------------------------------------------------------------------
 Center     Atomic      Atomic             Coordinates (Angstroms)
 Number     Number       Type             X           Y           Z
 ---------------------------------------------------------------------
      1         11           0        2.991119   -0.350836    0.463007
      2         11           0        2.822217    3.015724   -0.203731
      3         11           0       -3.836710    0.620145    0.498141
      4         11           0        5.271700   -2.668980   -0.317640
      5         11           0       -6.727661   -1.225238   -0.436602
      6         11           0        0.022938    1.899086   -0.288146
      7         11           0       -0.543604   -1.289901    0.284971
 ---------------------------------------------------------------------

 SCF Done:  E(UB3LYP) =  -1136.11121016     A.U. after   23 cycles

 The electronic state is 2-A.
 Alpha  occ. eigenvalues --  -38.45760 -38.45258 -38.44626 -38.44347 -38.43969
 Alpha  occ. eigenvalues --  -38.43600 -38.43144  -2.21578  -2.21035  -2.20379
 Alpha  occ. eigenvalues --   -2.20215  -2.19857  -2.19348  -2.18996  -1.15243
 Alpha  occ. eigenvalues --   -1.15235  -1.15168  -1.14676  -1.14675  -1.14643
 Alpha  occ. eigenvalues --   -1.14078  -1.14063  -1.14012  -1.13914  -1.13848
 Alpha  occ. eigenvalues --   -1.13843  -1.13540  -1.13525  -1.13473  -1.13021
 Alpha  occ. eigenvalues --   -1.13020  -1.13003  -1.12704  -1.12685  -1.12585
 Alpha  occ. eigenvalues --   -0.17042  -0.14044  -0.11927  -0.11576
 Alpha virt. eigenvalues --   -0.06928  -0.05197  -0.04608  -0.03934  -0.03076
 Alpha virt. eigenvalues --   -0.02624  -0.01978  -0.01744  -0.01161  -0.00913
 Alpha virt. eigenvalues --   -0.00516  -0.00353  -0.00109   0.00373   0.00472

  Beta  occ. eigenvalues --  -38.45681 -38.45162 -38.44643 -38.44283 -38.43959
  Beta  occ. eigenvalues --  -38.43622 -38.43133  -2.21432  -2.20856  -2.20415
  Beta  occ. eigenvalues --   -2.20097  -2.19844  -2.19391  -2.18976  -1.15145
  Beta  occ. eigenvalues --   -1.15136  -1.15062  -1.14555  -1.14553  -1.14525
  Beta  occ. eigenvalues --   -1.14108  -1.14093  -1.13995  -1.13841  -1.13766
  Beta  occ. eigenvalues --   -1.13762  -1.13529  -1.13518  -1.13426  -1.13050
  Beta  occ. eigenvalues --   -1.13049  -1.13030  -1.12674  -1.12667  -1.12586
  Beta  occ. eigenvalues --   -0.16334  -0.13283  -0.11446
  Beta virt. eigenvalues --   -0.08511  -0.06563  -0.04795  -0.04223  -0.03657
  Beta virt. eigenvalues --   -0.02612  -0.02429  -0.01594  -0.01546  -0.01091
  Beta virt. eigenvalues --   -0.00405  -0.00331  -0.00275   0.00068   0.00460

 Mulliken charges and spin densities:
               1          2
     1  Na  -0.452241   0.056345
     2  Na   1.539372   0.127810
     3  Na  -0.138490   0.048735
     4  Na   0.163584  -0.120349
     5  Na   0.311698   0.387518
     6  Na  -1.477858   0.202559
     7  Na   0.053934   0.297383
 Sum of Mulliken charges =  -0.00000   1.00000

 Dipole moment (field-independent basis, Debye):
    X=             -1.5696    Y=              0.2613    Z=             -0.2772  Tot=              1.6151
 Quadrupole moment (field-independent basis, Debye-Ang):
   XX=            -60.4299   YY=            -64.3007   ZZ=            -73.2687
   XY=              6.4363   XZ=             -0.2034   YZ=              1.8458

 Normal termination of Gaussian 16 at Wed Nov 29 03:14:12 2023.
