 Gaussian 16, Revision B.01,
 Gaussian 16:  ES64L-G16RevB.01 20-Dec-2017

 -------------------------
 #P B3LYP/6-311+g(d) force
 -------------------------

 -----
 DPGEN
 -----
 Symbolic Z-matrix:
 Charge =  0 Multiplicity = 2

                         Standard orientation:
 ---------------------------------------------------------------------
 Center     Atomic      Atomic             Coordinates (Angstroms)
 Number     Number       Type             X           Y           Z
 ---------------------------------------------------------------------
      1         11           0        0.387756   -2.605375    0.787368
      2         11           0        3.095914   -0.805700   -0.527645
      3         11           0       -0.667306    0.357627    1.664120
      4         11           0       -1.705327    2.069668   -0.331783
      5         11           0       -3.018463   -0.981104   -0.387778
      6         11           0        0.007690   -0.305781   -1.580427
      7         11           0        1.899735    2.270665    0.376144
 ---------------------------------------------------------------------

 SCF Done:  E(UB3LYP) =  -1136.13128050     A.U. after   19 cycles

 The electronic state is 2-A.
 Alpha  occ. eigenvalues --  -38.44166 -38.43996 -38.43518 -38.43417 -38.43233
 Alpha  occ. eigenvalues --  -38.43230 -38.43163  -2.20039  -2.19839  -2.19490
 Alpha  occ. eigenvalues --   -2.19278  -2.19257  -2.19252  -2.19039  -1.13719
 Alpha  occ. eigenvalues --   -1.13707  -1.13669  -1.13525  -1.13492  -1.13476
 Alpha  occ. eigenvalues --   -1.13368  -1.13182  -1.13063  -1.12986  -1.12944
 Alpha  occ. eigenvalues --   -1.12916  -1.12908  -1.12894  -1.12889  -1.12872
 Alpha  occ. eigenvalues --   -1.12863  -1.12843  -1.12715  -1.12688  -1.12649
 Alpha  occ. eigenvalues --   -0.19191  -0.13471  -0.12270  -0.10851
 Alpha virt. eigenvalues --   -0.05810  -0.05112  -0.04277  -0.03276  -0.02822
 Alpha virt. eigenvalues --   -0.02286  -0.01752  -0.00990  -0.00306   0.00036
 Alpha virt. eigenvalues --    0.00089   0.00348   0.00809   0.00883   0.00911

  Beta  occ. eigenvalues --  -38.44154 -38.43987 -38.43505 -38.43414 -38.43173
  Beta  occ. eigenvalues --  -38.43153 -38.43139  -2.20020  -2.19824  -2.19470
  Beta  occ. eigenvalues --   -2.19252  -2.19146  -2.19139  -2.18998  -1.13705
  Beta  occ. eigenvalues --   -1.13685  -1.13644  -1.13504  -1.13481  -1.13467
  Beta  occ. eigenvalues --   -1.13333  -1.13141  -1.13045  -1.12935  -1.12910
  Beta  occ. eigenvalues --   -1.12899  -1.12885  -1.12827  -1.12815  -1.12788
  Beta  occ. eigenvalues --   -1.12781  -1.12751  -1.12675  -1.12644  -1.12618
  Beta  occ. eigenvalues --   -0.18480  -0.13198  -0.11992
  Beta virt. eigenvalues --   -0.06928  -0.05721  -0.05089  -0.04188  -0.02591
  Beta virt. eigenvalues --   -0.02102  -0.01649  -0.01257  -0.00949  -0.00213
  Beta virt. eigenvalues --    0.00016   0.00161   0.00387   0.00854   0.00899

 Mulliken charges and spin densities:
               1          2
     1  Na  -0.315242  -0.001291
     2  Na   0.197318   0.036128
     3  Na   0.142312   0.520378
     4  Na   0.186468   0.074483
     5  Na   0.227264   0.011416
     6  Na  -0.165424   0.429236
     7  Na  -0.272697  -0.070351
 Sum of Mulliken charges =  -0.00000   1.00000

 Dipole moment (field-independent basis, Debye):
    X=             -0.0916    Y=             -0.1619    Z=             -0.0864  Tot=              0.2051
 Quadrupole moment (field-independent basis, Debye-Ang):
   XX=            -53.3739   YY=            -65.6781   ZZ=            -73.6056
   XY=              0.9838   XZ=              1.0007   YZ=             -0.8257

 Normal termination of Gaussian 16 at Tue Nov 28 19:42:05 2023.
