 Gaussian 16, Revision B.01,
 Gaussian 16:  ES64L-G16RevB.01 20-Dec-2017

 -------------------------
 #P B3LYP/6-311+g(d) force
 -------------------------

 -----
 DPGEN
 -----
 Symbolic Z-matrix:
 Charge =  0 Multiplicity = 2

                         Standard orientation:
 ---------------------------------------------------------------------
 Center     Atomic      Atomic             Coordinates (Angstroms)
 Number     Number       Type             X           Y           Z
 ---------------------------------------------------------------------
      1         11           0       -1.200117    0.766073    0.958697
      2         11           0       -3.704495    1.830242   -0.954617
      3         11           0        2.524906   -1.780042   -0.930602
      4         11           0       -0.482233   -2.160031    1.540741
      5         11           0       -3.453701   -1.524735   -0.747935
      6         11           0        1.515854    2.400118    0.766796
      7         11           0        4.799785    0.468374   -0.633079
 ---------------------------------------------------------------------

 SCF Done:  E(UB3LYP) =  -1136.11258722     A.U. after   24 cycles

 The electronic state is 2-A.
 Alpha  occ. eigenvalues --  -38.45255 -38.44861 -38.44567 -38.44463 -38.43910
 Alpha  occ. eigenvalues --  -38.43607 -38.42714  -2.21060  -2.20639  -2.20364
 Alpha  occ. eigenvalues --   -2.20259  -2.19727  -2.19562  -2.18554  -1.14741
 Alpha  occ. eigenvalues --   -1.14710  -1.14672  -1.14325  -1.14301  -1.14273
 Alpha  occ. eigenvalues --   -1.14061  -1.14016  -1.13962  -1.13914  -1.13913
 Alpha  occ. eigenvalues --   -1.13880  -1.13403  -1.13387  -1.13369  -1.13244
 Alpha  occ. eigenvalues --   -1.13225  -1.13202  -1.12262  -1.12186  -1.12176
 Alpha  occ. eigenvalues --   -0.16963  -0.14207  -0.11822  -0.11250
 Alpha virt. eigenvalues --   -0.06416  -0.05402  -0.04240  -0.03550  -0.03328
 Alpha virt. eigenvalues --   -0.02407  -0.01982  -0.01336  -0.00990  -0.00568
 Alpha virt. eigenvalues --   -0.00249   0.00093   0.00183   0.00478   0.00658

  Beta  occ. eigenvalues --  -38.45215 -38.44837 -38.44502 -38.44427 -38.43895
  Beta  occ. eigenvalues --  -38.43558 -38.42698  -2.20987  -2.20596  -2.20248
  Beta  occ. eigenvalues --   -2.20194  -2.19700  -2.19481  -2.18526  -1.14692
  Beta  occ. eigenvalues --   -1.14666  -1.14606  -1.14297  -1.14277  -1.14225
  Beta  occ. eigenvalues --   -1.13967  -1.13938  -1.13881  -1.13872  -1.13860
  Beta  occ. eigenvalues --   -1.13840  -1.13390  -1.13369  -1.13333  -1.13191
  Beta  occ. eigenvalues --   -1.13172  -1.13109  -1.12233  -1.12170  -1.12159
  Beta  occ. eigenvalues --   -0.16258  -0.13520  -0.11061
  Beta virt. eigenvalues --   -0.08115  -0.06379  -0.04954  -0.04009  -0.03047
  Beta virt. eigenvalues --   -0.02966  -0.02185  -0.01567  -0.01114  -0.00819
  Beta virt. eigenvalues --   -0.00350  -0.00154   0.00197   0.00303   0.00548

 Mulliken charges and spin densities:
               1          2
     1  Na  -1.120294   0.100713
     2  Na   0.366175   0.187774
     3  Na  -0.018409   0.160146
     4  Na   0.270401   0.021262
     5  Na   0.299152   0.175674
     6  Na   0.102261   0.226156
     7  Na   0.100714   0.128275
 Sum of Mulliken charges =  -0.00000   1.00000

 Dipole moment (field-independent basis, Debye):
    X=              0.0326    Y=             -0.2474    Z=             -0.8510  Tot=              0.8868
 Quadrupole moment (field-independent basis, Debye-Ang):
   XX=            -56.7171   YY=            -68.4940   ZZ=            -69.7488
   XY=              4.9805   XZ=              2.2624   YZ=              2.7749

 Normal termination of Gaussian 16 at Sun Dec  3 15:08:07 2023.
