 Gaussian 16, Revision B.01,
 Gaussian 16:  ES64L-G16RevB.01 20-Dec-2017

 -------------------------
 #P B3LYP/6-311+g(d) force
 -------------------------

 -----
 DPGEN
 -----
 Symbolic Z-matrix:
 Charge =  0 Multiplicity = 2

                         Standard orientation:
 ---------------------------------------------------------------------
 Center     Atomic      Atomic             Coordinates (Angstroms)
 Number     Number       Type             X           Y           Z
 ---------------------------------------------------------------------
      1         11           0        2.578779   -1.849079   -0.157074
      2         11           0       -0.900026    2.761074   -0.035269
      3         11           0       -0.133415   -0.563376    2.049586
      4         11           0        2.514067    2.003642    0.127658
      5         11           0       -3.068400    0.248420   -0.008011
      6         11           0       -1.037684   -2.789288   -0.362903
      7         11           0        0.046679    0.188607   -1.613987
 ---------------------------------------------------------------------

 SCF Done:  E(UB3LYP) =  -1136.13881858     A.U. after   20 cycles

 The electronic state is 2-A.
 Alpha  occ. eigenvalues --  -38.44059 -38.43858 -38.43726 -38.43672 -38.43497
 Alpha  occ. eigenvalues --  -38.43455 -38.43082  -2.19856  -2.19659  -2.19573
 Alpha  occ. eigenvalues --   -2.19520  -2.19374  -2.19330  -2.19058  -1.13535
 Alpha  occ. eigenvalues --   -1.13519  -1.13492  -1.13333  -1.13324  -1.13300
 Alpha  occ. eigenvalues --   -1.13260  -1.13251  -1.13206  -1.13202  -1.13185
 Alpha  occ. eigenvalues --   -1.13158  -1.13049  -1.13035  -1.13002  -1.12989
 Alpha  occ. eigenvalues --   -1.12981  -1.12948  -1.12739  -1.12691  -1.12673
 Alpha  occ. eigenvalues --   -0.18503  -0.12789  -0.12663  -0.10552
 Alpha virt. eigenvalues --   -0.05636  -0.05220  -0.04919  -0.03056  -0.02941
 Alpha virt. eigenvalues --   -0.02435  -0.01421  -0.01296  -0.00524  -0.00425
 Alpha virt. eigenvalues --   -0.00006   0.00360   0.00796   0.00852   0.00876

  Beta  occ. eigenvalues --  -38.44056 -38.43857 -38.43716 -38.43668 -38.43450
  Beta  occ. eigenvalues --  -38.43405 -38.43020  -2.19854  -2.19660  -2.19558
  Beta  occ. eigenvalues --   -2.19516  -2.19325  -2.19204  -2.18945  -1.13522
  Beta  occ. eigenvalues --   -1.13510  -1.13493  -1.13327  -1.13318  -1.13302
  Beta  occ. eigenvalues --   -1.13251  -1.13210  -1.13205  -1.13196  -1.13160
  Beta  occ. eigenvalues --   -1.13152  -1.13037  -1.12962  -1.12950  -1.12923
  Beta  occ. eigenvalues --   -1.12882  -1.12867  -1.12661  -1.12609  -1.12590
  Beta  occ. eigenvalues --   -0.17783  -0.12557  -0.12461
  Beta virt. eigenvalues --   -0.06645  -0.05646  -0.05183  -0.04845  -0.02279
  Beta virt. eigenvalues --   -0.02203  -0.01393  -0.01329  -0.01216  -0.00580
  Beta virt. eigenvalues --   -0.00471   0.00147   0.00390   0.00813   0.00874

 Mulliken charges and spin densities:
               1          2
     1  Na   0.054358  -0.097673
     2  Na   0.154491  -0.029028
     3  Na  -0.549695   0.805538
     4  Na  -0.010168  -0.063044
     5  Na   0.247011  -0.009185
     6  Na   0.239878  -0.061802
     7  Na  -0.135873   0.455195
 Sum of Mulliken charges =  -0.00000   1.00000

 Dipole moment (field-independent basis, Debye):
    X=              0.1890    Y=             -0.1899    Z=              0.1040  Tot=              0.2874
 Quadrupole moment (field-independent basis, Debye-Ang):
   XX=            -57.3808   YY=            -60.2723   ZZ=            -75.3005
   XY=              0.0639   XZ=              0.4796   YZ=              1.6732

 Normal termination of Gaussian 16 at Thu Dec  7 08:05:04 2023.
