 Gaussian 16, Revision B.01,
 Gaussian 16:  ES64L-G16RevB.01 20-Dec-2017

 -------------------------
 #P B3LYP/6-311+g(d) force
 -------------------------

 -----
 DPGEN
 -----
 Symbolic Z-matrix:
 Charge =  0 Multiplicity = 2

                         Standard orientation:
 ---------------------------------------------------------------------
 Center     Atomic      Atomic             Coordinates (Angstroms)
 Number     Number       Type             X           Y           Z
 ---------------------------------------------------------------------
      1         11           0        1.251573   -2.191165   -0.793913
      2         11           0       -5.366193   -0.574246    0.177865
      3         11           0       -1.738644   -1.271325    0.160593
      4         11           0       -3.014999    2.359540   -0.295755
      5         11           0        0.250157    0.941118   -0.042968
      6         11           0        3.206052   -0.156572    1.338066
      7         11           0        5.412054    0.892650   -0.543888
 ---------------------------------------------------------------------

 SCF Done:  E(UB3LYP) =  -1136.11646634     A.U. after   21 cycles

 The electronic state is 2-A.
 Alpha  occ. eigenvalues --  -38.44212 -38.44179 -38.44159 -38.44062 -38.44011
 Alpha  occ. eigenvalues --  -38.43915 -38.43902  -2.20156  -2.20045  -2.19951
 Alpha  occ. eigenvalues --   -2.19932  -2.19915  -2.19705  -2.19694  -1.13928
 Alpha  occ. eigenvalues --   -1.13839  -1.13770  -1.13733  -1.13718  -1.13677
 Alpha  occ. eigenvalues --   -1.13632  -1.13616  -1.13608  -1.13596  -1.13589
 Alpha  occ. eigenvalues --   -1.13583  -1.13570  -1.13558  -1.13456  -1.13361
 Alpha  occ. eigenvalues --   -1.13360  -1.13349  -1.13345  -1.13342  -1.13299
 Alpha  occ. eigenvalues --   -0.17473  -0.14251  -0.11590  -0.11082
 Alpha virt. eigenvalues --   -0.06239  -0.05817  -0.04809  -0.03201  -0.02975
 Alpha virt. eigenvalues --   -0.02467  -0.01909  -0.01600  -0.01053  -0.00514
 Alpha virt. eigenvalues --   -0.00401  -0.00027   0.00366   0.00462   0.00592

  Beta  occ. eigenvalues --  -38.44176 -38.44156 -38.44129 -38.44041 -38.43992
  Beta  occ. eigenvalues --  -38.43921 -38.43833  -2.20055  -2.20039  -2.19899
  Beta  occ. eigenvalues --   -2.19893  -2.19884  -2.19716  -2.19564  -1.13868
  Beta  occ. eigenvalues --   -1.13776  -1.13727  -1.13723  -1.13695  -1.13646
  Beta  occ. eigenvalues --   -1.13601  -1.13592  -1.13570  -1.13565  -1.13556
  Beta  occ. eigenvalues --   -1.13539  -1.13529  -1.13513  -1.13432  -1.13369
  Beta  occ. eigenvalues --   -1.13367  -1.13348  -1.13261  -1.13251  -1.13220
  Beta  occ. eigenvalues --   -0.16986  -0.13852  -0.11366
  Beta virt. eigenvalues --   -0.07323  -0.06001  -0.05563  -0.04411  -0.03042
  Beta virt. eigenvalues --   -0.02619  -0.01984  -0.01539  -0.01346  -0.00894
  Beta virt. eigenvalues --   -0.00265  -0.00220   0.00157   0.00451   0.00575

 Mulliken charges and spin densities:
               1          2
     1  Na   0.603978   0.037601
     2  Na   0.299271   0.395902
     3  Na  -0.769290   0.100139
     4  Na  -0.062639  -0.124666
     5  Na  -0.921426   0.600031
     6  Na   0.678925   0.021967
     7  Na   0.171181  -0.030974
 Sum of Mulliken charges =  -0.00000   1.00000

 Dipole moment (field-independent basis, Debye):
    X=              0.4424    Y=             -0.3029    Z=             -0.5257  Tot=              0.7509
 Quadrupole moment (field-independent basis, Debye-Ang):
   XX=            -67.2887   YY=            -67.6127   ZZ=            -67.1791
   XY=             -3.7717   XZ=             -4.2616   YZ=             -1.1104

 Normal termination of Gaussian 16 at Wed Nov 29 02:49:49 2023.
