 Gaussian 16, Revision B.01,
 Gaussian 16:  ES64L-G16RevB.01 20-Dec-2017

 -------------------------
 #P B3LYP/6-311+g(d) force
 -------------------------

 -----
 DPGEN
 -----
 Symbolic Z-matrix:
 Charge =  0 Multiplicity = 2

                         Standard orientation:
 ---------------------------------------------------------------------
 Center     Atomic      Atomic             Coordinates (Angstroms)
 Number     Number       Type             X           Y           Z
 ---------------------------------------------------------------------
      1         11           0       -2.986987   -0.302975    1.528501
      2         11           0        2.203026    1.326394   -1.225567
      3         11           0       -1.417406    1.741078   -0.775082
      4         11           0       -2.853432   -1.121708   -1.349690
      5         11           0        0.931945    1.130492    1.764682
      6         11           0        3.896086   -1.358463    0.179370
      7         11           0        0.226768   -1.414817   -0.122215
 ---------------------------------------------------------------------

 SCF Done:  E(UB3LYP) =  -1136.12082579     A.U. after   27 cycles

 The electronic state is 2-A.
 Alpha  occ. eigenvalues --  -38.44904 -38.44285 -38.44179 -38.43862 -38.43805
 Alpha  occ. eigenvalues --  -38.43560 -38.42911  -2.20782  -2.20184  -2.20056
 Alpha  occ. eigenvalues --   -2.19734  -2.19647  -2.19454  -2.18832  -1.14475
 Alpha  occ. eigenvalues --   -1.14432  -1.14405  -1.13916  -1.13873  -1.13788
 Alpha  occ. eigenvalues --   -1.13745  -1.13728  -1.13650  -1.13395  -1.13389
 Alpha  occ. eigenvalues --   -1.13364  -1.13326  -1.13316  -1.13280  -1.13161
 Alpha  occ. eigenvalues --   -1.13090  -1.13054  -1.12523  -1.12495  -1.12446
 Alpha  occ. eigenvalues --   -0.18776  -0.14483  -0.10995  -0.10834
 Alpha virt. eigenvalues --   -0.06877  -0.05361  -0.04955  -0.02999  -0.02708
 Alpha virt. eigenvalues --   -0.02365  -0.02038  -0.01165  -0.00835  -0.00208
 Alpha virt. eigenvalues --    0.00117   0.00257   0.00336   0.00471   0.00685

  Beta  occ. eigenvalues --  -38.44868 -38.44259 -38.44156 -38.43875 -38.43777
  Beta  occ. eigenvalues --  -38.43522 -38.42880  -2.20715  -2.20143  -2.20013
  Beta  occ. eigenvalues --   -2.19684  -2.19672  -2.19384  -2.18778  -1.14429
  Beta  occ. eigenvalues --   -1.14383  -1.14350  -1.13864  -1.13827  -1.13765
  Beta  occ. eigenvalues --   -1.13708  -1.13701  -1.13622  -1.13366  -1.13347
  Beta  occ. eigenvalues --   -1.13340  -1.13332  -1.13315  -1.13295  -1.13114
  Beta  occ. eigenvalues --   -1.13027  -1.13006  -1.12487  -1.12433  -1.12406
  Beta  occ. eigenvalues --   -0.18044  -0.14360  -0.10681
  Beta virt. eigenvalues --   -0.07136  -0.06668  -0.05117  -0.04379  -0.02775
  Beta virt. eigenvalues --   -0.02609  -0.01799  -0.01393  -0.00966  -0.00426
  Beta virt. eigenvalues --   -0.00143   0.00160   0.00333   0.00426   0.00592

 Mulliken charges and spin densities:
               1          2
     1  Na  -0.032191   0.171407
     2  Na   0.090546  -0.073739
     3  Na  -0.293137   0.436729
     4  Na   1.177373  -0.113620
     5  Na  -0.063005   0.247693
     6  Na   0.352931  -0.069187
     7  Na  -1.232518   0.400718
 Sum of Mulliken charges =  -0.00000   1.00000

 Dipole moment (field-independent basis, Debye):
    X=             -0.1558    Y=              0.4933    Z=              0.2760  Tot=              0.5863
 Quadrupole moment (field-independent basis, Debye-Ang):
   XX=            -51.9348   YY=            -76.5693   ZZ=            -67.2489
   XY=              1.5858   XZ=             -1.1269   YZ=             -0.9314

 Normal termination of Gaussian 16 at Tue Dec  5 14:08:10 2023.
