 Gaussian 16, Revision B.01,
 Gaussian 16:  ES64L-G16RevB.01 20-Dec-2017

 -------------------------
 #P B3LYP/6-311+g(d) force
 -------------------------

 -----
 DPGEN
 -----
 Symbolic Z-matrix:
 Charge =  0 Multiplicity = 2

                         Standard orientation:
 ---------------------------------------------------------------------
 Center     Atomic      Atomic             Coordinates (Angstroms)
 Number     Number       Type             X           Y           Z
 ---------------------------------------------------------------------
      1         11           0       -2.617612   -2.209379   -0.273438
      2         11           0        1.525822   -2.459070   -0.232859
      3         11           0        0.406380   -0.494359    2.124518
      4         11           0        3.564218    0.476330   -0.309822
      5         11           0        0.263685    3.027794    0.110244
      6         11           0       -3.109868    1.388356    0.063335
      7         11           0       -0.032626    0.270329   -1.481978
 ---------------------------------------------------------------------

 SCF Done:  E(UB3LYP) =  -1136.12975698     A.U. after   21 cycles

 The electronic state is 2-A.
 Alpha  occ. eigenvalues --  -38.44931 -38.44535 -38.44006 -38.43668 -38.43474
 Alpha  occ. eigenvalues --  -38.43463 -38.43403  -2.20698  -2.20312  -2.19774
 Alpha  occ. eigenvalues --   -2.19519  -2.19400  -2.19323  -2.19215  -1.14371
 Alpha  occ. eigenvalues --   -1.14349  -1.14336  -1.13994  -1.13972  -1.13945
 Alpha  occ. eigenvalues --   -1.13451  -1.13429  -1.13416  -1.13232  -1.13208
 Alpha  occ. eigenvalues --   -1.13130  -1.13117  -1.13070  -1.13007  -1.12975
 Alpha  occ. eigenvalues --   -1.12945  -1.12933  -1.12890  -1.12874  -1.12834
 Alpha  occ. eigenvalues --   -0.17901  -0.13063  -0.12056  -0.10266
 Alpha virt. eigenvalues --   -0.06383  -0.05566  -0.04627  -0.03065  -0.02660
 Alpha virt. eigenvalues --   -0.02279  -0.02171  -0.01391  -0.00742  -0.00623
 Alpha virt. eigenvalues --   -0.00076   0.00246   0.00656   0.00764   0.00776

  Beta  occ. eigenvalues --  -38.44920 -38.44536 -38.44004 -38.43659 -38.43434
  Beta  occ. eigenvalues --  -38.43400 -38.43356  -2.20680  -2.20315  -2.19770
  Beta  occ. eigenvalues --   -2.19507  -2.19326  -2.19212  -2.19127  -1.14341
  Beta  occ. eigenvalues --   -1.14339  -1.14326  -1.13987  -1.13975  -1.13948
  Beta  occ. eigenvalues --   -1.13439  -1.13427  -1.13414  -1.13223  -1.13163
  Beta  occ. eigenvalues --   -1.13124  -1.13062  -1.13027  -1.12951  -1.12876
  Beta  occ. eigenvalues --   -1.12859  -1.12846  -1.12834  -1.12807  -1.12797
  Beta  occ. eigenvalues --   -0.17232  -0.12857  -0.11859
  Beta virt. eigenvalues --   -0.06466  -0.06232  -0.05548  -0.04547  -0.02405
  Beta virt. eigenvalues --   -0.02079  -0.01934  -0.01360  -0.01249  -0.00786
  Beta virt. eigenvalues --   -0.00620   0.00107   0.00313   0.00739   0.00771

 Mulliken charges and spin densities:
               1          2
     1  Na   0.013969  -0.051906
     2  Na   0.256727   0.000974
     3  Na  -0.422343   0.727435
     4  Na   0.110800   0.019076
     5  Na  -0.050123  -0.067618
     6  Na   0.050803  -0.038998
     7  Na   0.040166   0.411038
 Sum of Mulliken charges =  -0.00000   1.00000

 Dipole moment (field-independent basis, Debye):
    X=              0.1455    Y=              0.1430    Z=              0.0634  Tot=              0.2136
 Quadrupole moment (field-independent basis, Debye-Ang):
   XX=            -51.3604   YY=            -63.9538   ZZ=            -76.8532
   XY=              0.4177   XZ=             -1.0897   YZ=              1.9047

 Normal termination of Gaussian 16 at Thu Dec  7 23:40:55 2023.
