 Gaussian 16, Revision B.01,
 Gaussian 16:  ES64L-G16RevB.01 20-Dec-2017

 -------------------------
 #P B3LYP/6-311+g(d) force
 -------------------------

 -----
 DPGEN
 -----
 Symbolic Z-matrix:
 Charge =  0 Multiplicity = 2

                         Standard orientation:
 ---------------------------------------------------------------------
 Center     Atomic      Atomic             Coordinates (Angstroms)
 Number     Number       Type             X           Y           Z
 ---------------------------------------------------------------------
      1         11           0        0.168495    0.210903   -1.867634
      2         11           0        1.405611   -2.146631   -0.029762
      3         11           0       -0.174502   -0.348845    2.146787
      4         11           0       -2.653225    1.021787   -0.135071
      5         11           0       -1.789971   -1.852041   -0.307718
      6         11           0        0.235309    2.499236    0.280282
      7         11           0        2.808283    0.615591   -0.086884
 ---------------------------------------------------------------------

 SCF Done:  E(UB3LYP) =  -1136.13215826     A.U. after   20 cycles

 The electronic state is 2-A.
 Alpha  occ. eigenvalues --  -38.44105 -38.43679 -38.43606 -38.43529 -38.43156
 Alpha  occ. eigenvalues --  -38.42959 -38.42884  -2.20051  -2.19723  -2.19534
 Alpha  occ. eigenvalues --   -2.19455  -2.19133  -2.18931  -2.18831  -1.13722
 Alpha  occ. eigenvalues --   -1.13679  -1.13671  -1.13424  -1.13384  -1.13367
 Alpha  occ. eigenvalues --   -1.13212  -1.13190  -1.13185  -1.13174  -1.13107
 Alpha  occ. eigenvalues --   -1.13096  -1.12815  -1.12778  -1.12763  -1.12605
 Alpha  occ. eigenvalues --   -1.12588  -1.12548  -1.12518  -1.12490  -1.12453
 Alpha  occ. eigenvalues --   -0.19846  -0.13315  -0.12535  -0.11798
 Alpha virt. eigenvalues --   -0.05220  -0.04598  -0.04162  -0.03565  -0.03315
 Alpha virt. eigenvalues --   -0.03138  -0.01166  -0.00656  -0.00135   0.00311
 Alpha virt. eigenvalues --    0.00390   0.00413   0.00925   0.01039   0.01049

  Beta  occ. eigenvalues --  -38.44008 -38.43602 -38.43601 -38.43524 -38.43145
  Beta  occ. eigenvalues --  -38.42951 -38.42875  -2.19872  -2.19581  -2.19530
  Beta  occ. eigenvalues --   -2.19450  -2.19117  -2.18920  -2.18817  -1.13607
  Beta  occ. eigenvalues --   -1.13547  -1.13544  -1.13344  -1.13292  -1.13269
  Beta  occ. eigenvalues --   -1.13206  -1.13187  -1.13174  -1.13139  -1.13105
  Beta  occ. eigenvalues --   -1.13063  -1.12807  -1.12760  -1.12728  -1.12603
  Beta  occ. eigenvalues --   -1.12549  -1.12536  -1.12511  -1.12452  -1.12444
  Beta  occ. eigenvalues --   -0.19029  -0.13039  -0.12258
  Beta virt. eigenvalues --   -0.07747  -0.05188  -0.04612  -0.04148  -0.02700
  Beta virt. eigenvalues --   -0.02412  -0.02058  -0.01094  -0.00609   0.00037
  Beta virt. eigenvalues --    0.00277   0.00337   0.00414   0.00996   0.01028

 Mulliken charges and spin densities:
               1          2
     1  Na  -0.899642   0.373770
     2  Na   0.551628   0.038156
     3  Na  -1.035775   0.542460
     4  Na   0.199101  -0.038716
     5  Na   0.501257   0.032037
     6  Na   0.414120   0.076410
     7  Na   0.269311  -0.024117
 Sum of Mulliken charges =  -0.00000   1.00000

 Dipole moment (field-independent basis, Debye):
    X=              0.0128    Y=              0.0715    Z=              0.2262  Tot=              0.2376
 Quadrupole moment (field-independent basis, Debye-Ang):
   XX=            -60.0339   YY=            -68.1448   ZZ=            -68.2967
   XY=             -0.1372   XZ=              0.4947   YZ=              0.9084

 Normal termination of Gaussian 16 at Thu Dec  7 07:05:42 2023.
