 Gaussian 16, Revision B.01,
 Gaussian 16:  ES64L-G16RevB.01 20-Dec-2017

 -------------------------
 #P B3LYP/6-311+g(d) force
 -------------------------

 -----
 DPGEN
 -----
 Symbolic Z-matrix:
 Charge =  0 Multiplicity = 2

                         Standard orientation:
 ---------------------------------------------------------------------
 Center     Atomic      Atomic             Coordinates (Angstroms)
 Number     Number       Type             X           Y           Z
 ---------------------------------------------------------------------
      1         11           0        3.120429   -0.874335   -0.403964
      2         11           0       -2.654409   -1.236172   -0.299708
      3         11           0        0.391183   -2.958631    0.194475
      4         11           0        0.022274    0.083673   -1.437949
      5         11           0        1.917644    2.733596    0.298710
      6         11           0       -0.627734    0.159314    2.221136
      7         11           0       -2.169387    2.092555   -0.572700
 ---------------------------------------------------------------------

 SCF Done:  E(UB3LYP) =  -1136.13443280     A.U. after   19 cycles

 The electronic state is 2-A.
 Alpha  occ. eigenvalues --  -38.44066 -38.43955 -38.43894 -38.43837 -38.43682
 Alpha  occ. eigenvalues --  -38.43329 -38.43098  -2.19826  -2.19759  -2.19747
 Alpha  occ. eigenvalues --   -2.19702  -2.19576  -2.19167  -2.19106  -1.13503
 Alpha  occ. eigenvalues --   -1.13481  -1.13471  -1.13447  -1.13432  -1.13421
 Alpha  occ. eigenvalues --   -1.13404  -1.13386  -1.13384  -1.13361  -1.13346
 Alpha  occ. eigenvalues --   -1.13326  -1.13277  -1.13227  -1.13192  -1.12852
 Alpha  occ. eigenvalues --   -1.12836  -1.12802  -1.12787  -1.12742  -1.12727
 Alpha  occ. eigenvalues --   -0.18409  -0.12945  -0.12311  -0.10817
 Alpha virt. eigenvalues --   -0.05664  -0.05218  -0.04864  -0.03026  -0.02899
 Alpha virt. eigenvalues --   -0.02695  -0.01435  -0.01281  -0.00580  -0.00366
 Alpha virt. eigenvalues --   -0.00031   0.00332   0.00789   0.00814   0.00851

  Beta  occ. eigenvalues --  -38.44065 -38.43951 -38.43820 -38.43790 -38.43672
  Beta  occ. eigenvalues --  -38.43326 -38.43049  -2.19824  -2.19753  -2.19676
  Beta  occ. eigenvalues --   -2.19562  -2.19554  -2.19165  -2.19019  -1.13491
  Beta  occ. eigenvalues --   -1.13480  -1.13471  -1.13434  -1.13417  -1.13405
  Beta  occ. eigenvalues --   -1.13382  -1.13336  -1.13298  -1.13282  -1.13260
  Beta  occ. eigenvalues --   -1.13249  -1.13221  -1.13196  -1.13170  -1.12847
  Beta  occ. eigenvalues --   -1.12826  -1.12793  -1.12729  -1.12675  -1.12663
  Beta  occ. eigenvalues --   -0.17699  -0.12699  -0.12121
  Beta virt. eigenvalues --   -0.06867  -0.05603  -0.05150  -0.04794  -0.02378
  Beta virt. eigenvalues --   -0.02189  -0.01609  -0.01316  -0.01190  -0.00588
  Beta virt. eigenvalues --   -0.00415   0.00141   0.00382   0.00818   0.00863

 Mulliken charges and spin densities:
               1          2
     1  Na   0.100219  -0.008994
     2  Na   0.369940   0.087204
     3  Na  -0.022995   0.029129
     4  Na  -0.047760   0.071051
     5  Na  -0.119584   0.006501
     6  Na  -0.592789   0.768112
     7  Na   0.312967   0.046997
 Sum of Mulliken charges =  -0.00000   1.00000

 Dipole moment (field-independent basis, Debye):
    X=              0.0179    Y=              0.1996    Z=              0.2219  Tot=              0.2990
 Quadrupole moment (field-independent basis, Debye-Ang):
   XX=            -58.0442   YY=            -61.0981   ZZ=            -74.2761
   XY=              0.0438   XZ=              1.0943   YZ=              0.0044

 Normal termination of Gaussian 16 at Thu Dec  7 19:29:43 2023.
