 Gaussian 16, Revision B.01,
 Gaussian 16:  ES64L-G16RevB.01 20-Dec-2017

 -------------------------
 #P B3LYP/6-311+g(d) force
 -------------------------

 -----
 DPGEN
 -----
 Symbolic Z-matrix:
 Charge =  0 Multiplicity = 2

                         Standard orientation:
 ---------------------------------------------------------------------
 Center     Atomic      Atomic             Coordinates (Angstroms)
 Number     Number       Type             X           Y           Z
 ---------------------------------------------------------------------
      1         11           0        0.149986    0.059611   -1.546274
      2         11           0       -1.562349   -2.526148   -0.475015
      3         11           0        0.136466    3.008607    0.261098
      4         11           0        1.754662   -2.104923    0.544020
      5         11           0       -0.407681   -0.025573    2.116603
      6         11           0        3.121031    0.694931   -0.556269
      7         11           0       -3.192115    0.893494   -0.344164
 ---------------------------------------------------------------------

 SCF Done:  E(UB3LYP) =  -1136.13660398     A.U. after   19 cycles

 The electronic state is 2-A.
 Alpha  occ. eigenvalues --  -38.44355 -38.43767 -38.43759 -38.43636 -38.43483
 Alpha  occ. eigenvalues --  -38.43251 -38.43172  -2.20135  -2.19641  -2.19614
 Alpha  occ. eigenvalues --   -2.19441  -2.19328  -2.19162  -2.19145  -1.13817
 Alpha  occ. eigenvalues --   -1.13786  -1.13770  -1.13318  -1.13313  -1.13275
 Alpha  occ. eigenvalues --   -1.13266  -1.13262  -1.13240  -1.13121  -1.13116
 Alpha  occ. eigenvalues --   -1.13063  -1.13041  -1.12983  -1.12957  -1.12862
 Alpha  occ. eigenvalues --   -1.12821  -1.12812  -1.12789  -1.12771  -1.12767
 Alpha  occ. eigenvalues --   -0.18499  -0.12861  -0.12344  -0.10952
 Alpha virt. eigenvalues --   -0.05805  -0.04876  -0.04677  -0.03207  -0.02999
 Alpha virt. eigenvalues --   -0.02651  -0.01627  -0.01113  -0.00441  -0.00184
 Alpha virt. eigenvalues --    0.00007   0.00342   0.00782   0.00854   0.00891

  Beta  occ. eigenvalues --  -38.44350 -38.43757 -38.43661 -38.43632 -38.43473
  Beta  occ. eigenvalues --  -38.43237 -38.43120  -2.20128  -2.19597  -2.19461
  Beta  occ. eigenvalues --   -2.19435  -2.19313  -2.19124  -2.19067  -1.13802
  Beta  occ. eigenvalues --   -1.13784  -1.13762  -1.13298  -1.13258  -1.13230
  Beta  occ. eigenvalues --   -1.13196  -1.13143  -1.13137  -1.13110  -1.13092
  Beta  occ. eigenvalues --   -1.13059  -1.13023  -1.12963  -1.12943  -1.12828
  Beta  occ. eigenvalues --   -1.12776  -1.12764  -1.12753  -1.12721  -1.12708
  Beta  occ. eigenvalues --   -0.17784  -0.12603  -0.12111
  Beta virt. eigenvalues --   -0.07039  -0.05776  -0.04812  -0.04593  -0.02500
  Beta virt. eigenvalues --   -0.02256  -0.01621  -0.01531  -0.01042  -0.00423
  Beta virt. eigenvalues --   -0.00192   0.00119   0.00381   0.00811   0.00898

 Mulliken charges and spin densities:
               1          2
     1  Na  -0.087402   0.303428
     2  Na   0.081643   0.015746
     3  Na  -0.068529  -0.014006
     4  Na   0.230180   0.167508
     5  Na  -0.242455   0.588777
     6  Na   0.140177   0.000915
     7  Na  -0.053615  -0.062367
 Sum of Mulliken charges =  -0.00000   1.00000

 Dipole moment (field-independent basis, Debye):
    X=             -0.3534    Y=              0.2243    Z=              0.1133  Tot=              0.4336
 Quadrupole moment (field-independent basis, Debye-Ang):
   XX=            -56.5227   YY=            -63.2727   ZZ=            -73.3016
   XY=              0.0696   XZ=              0.8282   YZ=              0.0920

 Normal termination of Gaussian 16 at Thu Dec  7 22:19:00 2023.
