 Gaussian 16, Revision B.01,
 Gaussian 16:  ES64L-G16RevB.01 20-Dec-2017

 -------------------------
 #P B3LYP/6-311+g(d) force
 -------------------------

 -----
 DPGEN
 -----
 Symbolic Z-matrix:
 Charge =  0 Multiplicity = 2

                         Standard orientation:
 ---------------------------------------------------------------------
 Center     Atomic      Atomic             Coordinates (Angstroms)
 Number     Number       Type             X           Y           Z
 ---------------------------------------------------------------------
      1         11           0        0.064774    0.191605   -1.624788
      2         11           0       -0.900948    3.442056   -0.394319
      3         11           0        3.553287   -1.344729   -0.257457
      4         11           0       -3.656354   -0.824345   -0.371341
      5         11           0        2.197605    1.838195    0.664351
      6         11           0       -0.197470   -3.116327   -0.056283
      7         11           0       -1.060894   -0.186456    2.039837
 ---------------------------------------------------------------------

 SCF Done:  E(UB3LYP) =  -1136.12387025     A.U. after   22 cycles

 The electronic state is 2-A.
 Alpha  occ. eigenvalues --  -38.45246 -38.44708 -38.44141 -38.43955 -38.43844
 Alpha  occ. eigenvalues --  -38.43648 -38.43632  -2.20984  -2.20466  -2.19893
 Alpha  occ. eigenvalues --   -2.19725  -2.19654  -2.19501  -2.19460  -1.14661
 Alpha  occ. eigenvalues --   -1.14645  -1.14617  -1.14153  -1.14145  -1.14078
 Alpha  occ. eigenvalues --   -1.13569  -1.13559  -1.13531  -1.13396  -1.13383
 Alpha  occ. eigenvalues --   -1.13373  -1.13338  -1.13328  -1.13265  -1.13200
 Alpha  occ. eigenvalues --   -1.13137  -1.13125  -1.13119  -1.13102  -1.13067
 Alpha  occ. eigenvalues --   -0.17292  -0.12779  -0.12066  -0.10119
 Alpha virt. eigenvalues --   -0.06666  -0.05483  -0.05057  -0.03223  -0.02670
 Alpha virt. eigenvalues --   -0.02263  -0.02125  -0.01609  -0.00993  -0.00663
 Alpha virt. eigenvalues --   -0.00127   0.00259   0.00465   0.00596   0.00735

  Beta  occ. eigenvalues --  -38.45247 -38.44701 -38.44144 -38.43950 -38.43829
  Beta  occ. eigenvalues --  -38.43592 -38.43546  -2.20988  -2.20455  -2.19901
  Beta  occ. eigenvalues --   -2.19718  -2.19628  -2.19398  -2.19301  -1.14655
  Beta  occ. eigenvalues --   -1.14641  -1.14622  -1.14140  -1.14125  -1.14073
  Beta  occ. eigenvalues --   -1.13570  -1.13563  -1.13536  -1.13381  -1.13377
  Beta  occ. eigenvalues --   -1.13368  -1.13322  -1.13294  -1.13252  -1.13125
  Beta  occ. eigenvalues --   -1.13064  -1.13041  -1.13017  -1.12991  -1.12954
  Beta  occ. eigenvalues --   -0.16628  -0.12618  -0.11896
  Beta virt. eigenvalues --   -0.06637  -0.06367  -0.05352  -0.04880  -0.02593
  Beta virt. eigenvalues --   -0.02144  -0.02014  -0.01509  -0.01348  -0.00929
  Beta virt. eigenvalues --   -0.00656   0.00054   0.00309   0.00541   0.00645

 Mulliken charges and spin densities:
               1          2
     1  Na   0.321798   0.560065
     2  Na  -0.030167  -0.054084
     3  Na  -0.048403  -0.040808
     4  Na  -0.035098  -0.127391
     5  Na  -0.082356   0.111969
     6  Na  -0.093578  -0.045094
     7  Na  -0.032197   0.595343
 Sum of Mulliken charges =  -0.00000   1.00000

 Dipole moment (field-independent basis, Debye):
    X=             -0.7622    Y=             -0.3435    Z=             -0.1687  Tot=              0.8529
 Quadrupole moment (field-independent basis, Debye-Ang):
   XX=            -54.1056   YY=            -60.4577   ZZ=            -77.5134
   XY=             -0.8395   XZ=              2.4562   YZ=              0.9367

 Normal termination of Gaussian 16 at Thu Dec  7 22:38:25 2023.
