 Gaussian 16, Revision B.01,
 Gaussian 16:  ES64L-G16RevB.01 20-Dec-2017

 -------------------------
 #P B3LYP/6-311+g(d) force
 -------------------------

 -----
 DPGEN
 -----
 Symbolic Z-matrix:
 Charge =  0 Multiplicity = 2

                         Standard orientation:
 ---------------------------------------------------------------------
 Center     Atomic      Atomic             Coordinates (Angstroms)
 Number     Number       Type             X           Y           Z
 ---------------------------------------------------------------------
      1         11           0        0.109305   -1.670915   -1.288877
      2         11           0       -3.190412    0.469909   -0.610611
      3         11           0        4.394083   -0.180618   -0.170274
      4         11           0       -1.791077    2.822817    0.580842
      5         11           0        1.459848    1.704000   -0.961156
      6         11           0        1.031380   -0.423017    2.074807
      7         11           0       -2.013127   -2.722175    0.375269
 ---------------------------------------------------------------------

 SCF Done:  E(UB3LYP) =  -1136.11682090     A.U. after   23 cycles

 The electronic state is 2-A.
 Alpha  occ. eigenvalues --  -38.45666 -38.44506 -38.44465 -38.44223 -38.43710
 Alpha  occ. eigenvalues --  -38.43674 -38.43150  -2.21407  -2.20309  -2.20302
 Alpha  occ. eigenvalues --   -2.20096  -2.19535  -2.19530  -2.18979  -1.15081
 Alpha  occ. eigenvalues --   -1.15074  -1.15028  -1.14018  -1.14004  -1.13988
 Alpha  occ. eigenvalues --   -1.13970  -1.13927  -1.13902  -1.13839  -1.13765
 Alpha  occ. eigenvalues --   -1.13720  -1.13203  -1.13189  -1.13172  -1.13165
 Alpha  occ. eigenvalues --   -1.13155  -1.13140  -1.12676  -1.12620  -1.12611
 Alpha  occ. eigenvalues --   -0.17502  -0.13504  -0.12146  -0.10262
 Alpha virt. eigenvalues --   -0.07214  -0.05113  -0.04632  -0.03437  -0.02997
 Alpha virt. eigenvalues --   -0.02581  -0.02325  -0.01353  -0.00517  -0.00465
 Alpha virt. eigenvalues --   -0.00120   0.00016   0.00409   0.00590   0.00718

  Beta  occ. eigenvalues --  -38.45658 -38.44487 -38.44457 -38.44204 -38.43675
  Beta  occ. eigenvalues --  -38.43600 -38.43147  -2.21394  -2.20287  -2.20277
  Beta  occ. eigenvalues --   -2.20063  -2.19537  -2.19330  -2.18975  -1.15073
  Beta  occ. eigenvalues --   -1.15051  -1.15021  -1.13999  -1.13991  -1.13958
  Beta  occ. eigenvalues --   -1.13949  -1.13918  -1.13877  -1.13811  -1.13745
  Beta  occ. eigenvalues --   -1.13686  -1.13206  -1.13177  -1.13138  -1.13052
  Beta  occ. eigenvalues --   -1.13023  -1.13001  -1.12674  -1.12615  -1.12603
  Beta  occ. eigenvalues --   -0.16902  -0.13261  -0.12038
  Beta virt. eigenvalues --   -0.07077  -0.06451  -0.05004  -0.04484  -0.02901
  Beta virt. eigenvalues --   -0.02719  -0.02167  -0.01439  -0.01259  -0.00507
  Beta virt. eigenvalues --   -0.00227  -0.00022   0.00104   0.00544   0.00684

 Mulliken charges and spin densities:
               1          2
     1  Na  -0.173721   0.202029
     2  Na  -0.276669  -0.083764
     3  Na   0.286591   0.019658
     4  Na   0.222580   0.088050
     5  Na  -0.099863   0.164353
     6  Na  -0.568824   0.564307
     7  Na   0.609907   0.045367
 Sum of Mulliken charges =  -0.00000   1.00000

 Dipole moment (field-independent basis, Debye):
    X=              1.1836    Y=             -0.4627    Z=             -0.0403  Tot=              1.2715
 Quadrupole moment (field-independent basis, Debye-Ang):
   XX=            -50.2712   YY=            -70.2202   ZZ=            -74.6025
   XY=              0.9922   XZ=             -0.7252   YZ=             -0.5970

 Normal termination of Gaussian 16 at Thu Dec  7 15:34:12 2023.
