 Gaussian 16, Revision B.01,
 Gaussian 16:  ES64L-G16RevB.01 20-Dec-2017

 -------------------------
 #P B3LYP/6-311+g(d) force
 -------------------------

 -----
 DPGEN
 -----
 Symbolic Z-matrix:
 Charge =  0 Multiplicity = 2

                         Standard orientation:
 ---------------------------------------------------------------------
 Center     Atomic      Atomic             Coordinates (Angstroms)
 Number     Number       Type             X           Y           Z
 ---------------------------------------------------------------------
      1         11           0        3.037228    0.568915   -0.122369
      2         11           0        0.389071    0.026161    1.823732
      3         11           0        1.477375   -2.449595   -0.022391
      4         11           0       -2.869342    1.098689    0.308445
      5         11           0       -2.006281   -2.351854   -0.204702
      6         11           0       -0.130277    0.011975   -1.512942
      7         11           0        0.102225    3.095709   -0.269773
 ---------------------------------------------------------------------

 SCF Done:  E(UB3LYP) =  -1136.13926854     A.U. after   19 cycles

 The electronic state is 2-A.
 Alpha  occ. eigenvalues --  -38.43889 -38.43847 -38.43719 -38.43552 -38.43481
 Alpha  occ. eigenvalues --  -38.43109 -38.42779  -2.19715  -2.19703  -2.19545
 Alpha  occ. eigenvalues --   -2.19398  -2.19384  -2.19062  -2.18804  -1.13389
 Alpha  occ. eigenvalues --   -1.13384  -1.13383  -1.13374  -1.13351  -1.13338
 Alpha  occ. eigenvalues --   -1.13232  -1.13203  -1.13173  -1.13103  -1.13079
 Alpha  occ. eigenvalues --   -1.13057  -1.13051  -1.13041  -1.12987  -1.12754
 Alpha  occ. eigenvalues --   -1.12681  -1.12672  -1.12496  -1.12432  -1.12424
 Alpha  occ. eigenvalues --   -0.18861  -0.12992  -0.12711  -0.10350
 Alpha virt. eigenvalues --   -0.05509  -0.05153  -0.05053  -0.03000  -0.02773
 Alpha virt. eigenvalues --   -0.02105  -0.01462  -0.01313  -0.00482  -0.00373
 Alpha virt. eigenvalues --    0.00039   0.00356   0.00832   0.00863   0.00897

  Beta  occ. eigenvalues --  -38.43883 -38.43841 -38.43712 -38.43548 -38.43472
  Beta  occ. eigenvalues --  -38.43025 -38.42716  -2.19705  -2.19696  -2.19536
  Beta  occ. eigenvalues --   -2.19393  -2.19373  -2.18907  -2.18691  -1.13381
  Beta  occ. eigenvalues --   -1.13380  -1.13358  -1.13351  -1.13350  -1.13327
  Beta  occ. eigenvalues --   -1.13218  -1.13187  -1.13169  -1.13097  -1.13067
  Beta  occ. eigenvalues --   -1.13047  -1.13029  -1.13016  -1.12982  -1.12651
  Beta  occ. eigenvalues --   -1.12573  -1.12558  -1.12412  -1.12349  -1.12339
  Beta  occ. eigenvalues --   -0.18150  -0.12749  -0.12445
  Beta virt. eigenvalues --   -0.06476  -0.05483  -0.05143  -0.05004  -0.02218
  Beta virt. eigenvalues --   -0.02034  -0.01380  -0.01233  -0.01093  -0.00520
  Beta virt. eigenvalues --   -0.00424   0.00170   0.00388   0.00850   0.00868

 Mulliken charges and spin densities:
               1          2
     1  Na   0.197055  -0.083723
     2  Na  -0.363865   0.730645
     3  Na   0.307533  -0.038834
     4  Na   0.036077  -0.011346
     5  Na   0.136599  -0.044064
     6  Na  -0.354429   0.530481
     7  Na   0.041030  -0.083160
 Sum of Mulliken charges =  -0.00000   1.00000

 Dipole moment (field-independent basis, Debye):
    X=              0.0081    Y=              0.1761    Z=              0.0985  Tot=              0.2020
 Quadrupole moment (field-independent basis, Debye-Ang):
   XX=            -56.3592   YY=            -58.7758   ZZ=            -76.4400
   XY=              0.4108   XZ=             -1.3029   YZ=              0.0158

 Normal termination of Gaussian 16 at Fri Dec  8 07:09:16 2023.
