 Gaussian 16, Revision B.01,
 Gaussian 16:  ES64L-G16RevB.01 20-Dec-2017

 -------------------------
 #P B3LYP/6-311+g(d) force
 -------------------------

 -----
 DPGEN
 -----
 Symbolic Z-matrix:
 Charge =  0 Multiplicity = 2

                         Standard orientation:
 ---------------------------------------------------------------------
 Center     Atomic      Atomic             Coordinates (Angstroms)
 Number     Number       Type             X           Y           Z
 ---------------------------------------------------------------------
      1         11           0       -2.201574    1.789760   -0.159770
      2         11           0        4.533653    0.601042    0.206503
      3         11           0       -4.372661   -0.455652    0.027386
      4         11           0        2.309926   -1.946613   -0.388204
      5         11           0        1.341914    1.693114    0.278307
      6         11           0       -0.972743   -1.118162    1.861309
      7         11           0       -0.638515   -0.563489   -1.825531
 ---------------------------------------------------------------------

 SCF Done:  E(UB3LYP) =  -1136.11060966     A.U. after   29 cycles

 The electronic state is 2-A.
 Alpha  occ. eigenvalues --  -38.45873 -38.45231 -38.44746 -38.43611 -38.43535
 Alpha  occ. eigenvalues --  -38.43278 -38.43229  -2.21634  -2.21096  -2.20587
 Alpha  occ. eigenvalues --   -2.19431  -2.19366  -2.19141  -2.19123  -1.15339
 Alpha  occ. eigenvalues --   -1.15283  -1.15250  -1.14765  -1.14756  -1.14704
 Alpha  occ. eigenvalues --   -1.14246  -1.14233  -1.14196  -1.13130  -1.13101
 Alpha  occ. eigenvalues --   -1.13068  -1.13014  -1.13005  -1.12990  -1.12840
 Alpha  occ. eigenvalues --   -1.12832  -1.12816  -1.12789  -1.12781  -1.12729
 Alpha  occ. eigenvalues --   -0.18197  -0.14427  -0.11144  -0.10633
 Alpha virt. eigenvalues --   -0.08051  -0.05141  -0.04504  -0.03503  -0.03012
 Alpha virt. eigenvalues --   -0.02292  -0.02129  -0.01608  -0.01141  -0.00902
 Alpha virt. eigenvalues --   -0.00260   0.00150   0.00204   0.00542   0.00719

  Beta  occ. eigenvalues --  -38.45873 -38.45183 -38.44670 -38.43602 -38.43481
  Beta  occ. eigenvalues --  -38.43266 -38.43211  -2.21636  -2.21011  -2.20446
  Beta  occ. eigenvalues --   -2.19416  -2.19265  -2.19117  -2.19108  -1.15334
  Beta  occ. eigenvalues --   -1.15287  -1.15245  -1.14708  -1.14692  -1.14639
  Beta  occ. eigenvalues --   -1.14156  -1.14134  -1.14100  -1.13118  -1.13095
  Beta  occ. eigenvalues --   -1.13032  -1.12947  -1.12944  -1.12927  -1.12835
  Beta  occ. eigenvalues --   -1.12822  -1.12797  -1.12778  -1.12723  -1.12679
  Beta  occ. eigenvalues --   -0.17558  -0.13756  -0.10430
  Beta virt. eigenvalues --   -0.07853  -0.07586  -0.04959  -0.03775  -0.03257
  Beta virt. eigenvalues --   -0.02889  -0.02110  -0.01707  -0.01327  -0.00753
  Beta virt. eigenvalues --   -0.00513  -0.00103   0.00201   0.00332   0.00620

 Mulliken charges and spin densities:
               1          2
     1  Na   0.022807  -0.059473
     2  Na   0.355167   0.399602
     3  Na   0.275518   0.484932
     4  Na   0.029309   0.042895
     5  Na  -0.599533  -0.103994
     6  Na  -0.088975   0.071694
     7  Na   0.005707   0.164344
 Sum of Mulliken charges =  -0.00000   1.00000

 Dipole moment (field-independent basis, Debye):
    X=             -1.0511    Y=             -1.0207    Z=             -0.1974  Tot=              1.4783
 Quadrupole moment (field-independent basis, Debye-Ang):
   XX=            -63.9689   YY=            -80.3296   ZZ=            -60.4102
   XY=             -0.9466   XZ=              1.2147   YZ=              2.3580

 Normal termination of Gaussian 16 at Thu Dec  7 13:31:52 2023.
