 Gaussian 16, Revision B.01,
 Gaussian 16:  ES64L-G16RevB.01 20-Dec-2017

 -------------------------
 #P B3LYP/6-311+g(d) force
 -------------------------

 -----
 DPGEN
 -----
 Symbolic Z-matrix:
 Charge =  0 Multiplicity = 2

                         Standard orientation:
 ---------------------------------------------------------------------
 Center     Atomic      Atomic             Coordinates (Angstroms)
 Number     Number       Type             X           Y           Z
 ---------------------------------------------------------------------
      1         11           0       -1.538002    1.758463   -0.888771
      2         11           0       -1.658300   -1.417719   -0.970700
      3         11           0        1.920381   -1.593226   -1.225694
      4         11           0       -0.157606   -0.621486    1.916795
      5         11           0       -4.167874    0.045133    0.762240
      6         11           0        1.609665    1.593973   -0.518460
      7         11           0        3.991736    0.234863    0.924591
 ---------------------------------------------------------------------

 SCF Done:  E(UB3LYP) =  -1136.11173741     A.U. after   31 cycles

 The electronic state is 2-A.
 Alpha  occ. eigenvalues --  -38.46231 -38.45261 -38.44846 -38.44028 -38.43556
 Alpha  occ. eigenvalues --  -38.42620 -38.42504  -2.22007  -2.21074  -2.20696
 Alpha  occ. eigenvalues --   -2.19883  -2.19475  -2.18560  -2.18409  -1.15705
 Alpha  occ. eigenvalues --   -1.15661  -1.15622  -1.14743  -1.14706  -1.14693
 Alpha  occ. eigenvalues --   -1.14362  -1.14344  -1.14310  -1.13578  -1.13529
 Alpha  occ. eigenvalues --   -1.13515  -1.13180  -1.13136  -1.13099  -1.12274
 Alpha  occ. eigenvalues --   -1.12238  -1.12211  -1.12093  -1.12068  -1.12014
 Alpha  occ. eigenvalues --   -0.18495  -0.14692  -0.11086  -0.10575
 Alpha virt. eigenvalues --   -0.07778  -0.05305  -0.04534  -0.03367  -0.03034
 Alpha virt. eigenvalues --   -0.02237  -0.01976  -0.01643  -0.00971  -0.00247
 Alpha virt. eigenvalues --   -0.00179   0.00179   0.00304   0.00575   0.00718

  Beta  occ. eigenvalues --  -38.46220 -38.45208 -38.44792 -38.44004 -38.43533
  Beta  occ. eigenvalues --  -38.42609 -38.42483  -2.21986  -2.20974  -2.20594
  Beta  occ. eigenvalues --   -2.19843  -2.19439  -2.18546  -2.18374  -1.15686
  Beta  occ. eigenvalues --   -1.15647  -1.15605  -1.14676  -1.14637  -1.14627
  Beta  occ. eigenvalues --   -1.14298  -1.14273  -1.14241  -1.13547  -1.13498
  Beta  occ. eigenvalues --   -1.13471  -1.13156  -1.13106  -1.13043  -1.12257
  Beta  occ. eigenvalues --   -1.12213  -1.12191  -1.12064  -1.12049  -1.11971
  Beta  occ. eigenvalues --   -0.17874  -0.14234  -0.10296
  Beta virt. eigenvalues --   -0.07589  -0.07484  -0.04755  -0.04302  -0.03028
  Beta virt. eigenvalues --   -0.02837  -0.01830  -0.01485  -0.01141  -0.00832
  Beta virt. eigenvalues --   -0.00120  -0.00061   0.00314   0.00337   0.00667

 Mulliken charges and spin densities:
               1          2
     1  Na  -0.693526  -0.034374
     2  Na  -0.088634   0.228816
     3  Na  -0.085338   0.012610
     4  Na  -0.578748   0.027245
     5  Na   1.083229   0.393050
     6  Na  -0.919049   0.099046
     7  Na   1.282065   0.273608
 Sum of Mulliken charges =  -0.00000   1.00000

 Dipole moment (field-independent basis, Debye):
    X=             -0.2163    Y=             -0.8559    Z=              0.9491  Tot=              1.2962
 Quadrupole moment (field-independent basis, Debye-Ang):
   XX=            -47.6395   YY=            -84.0013   ZZ=            -64.4310
   XY=             -1.6352   XZ=             -0.2633   YZ=              4.4860

 Normal termination of Gaussian 16 at Fri Dec  8 02:52:51 2023.
