 Gaussian 16, Revision B.01,
 Gaussian 16:  ES64L-G16RevB.01 20-Dec-2017

 -------------------------
 #P B3LYP/6-311+g(d) force
 -------------------------

 -----
 DPGEN
 -----
 Symbolic Z-matrix:
 Charge =  0 Multiplicity = 2

                         Standard orientation:
 ---------------------------------------------------------------------
 Center     Atomic      Atomic             Coordinates (Angstroms)
 Number     Number       Type             X           Y           Z
 ---------------------------------------------------------------------
      1         11           0        0.560618   -2.900971   -0.446457
      2         11           0       -3.311004    2.092310   -0.409954
      3         11           0       -3.514214   -1.441610    0.342569
      4         11           0       -0.590126    0.102136   -0.066559
      5         11           0        2.264718   -0.433034    2.463552
      6         11           0        2.779833   -0.148027   -2.179019
      7         11           0        1.810175    2.729197    0.295870
 ---------------------------------------------------------------------

 SCF Done:  E(UB3LYP) =  -1136.11900661     A.U. after   21 cycles

 The electronic state is 2-A.
 Alpha  occ. eigenvalues --  -38.45011 -38.44714 -38.44682 -38.44428 -38.43693
 Alpha  occ. eigenvalues --  -38.43125 -38.43096  -2.20786  -2.20498  -2.20463
 Alpha  occ. eigenvalues --   -2.20204  -2.19460  -2.19066  -2.18891  -1.14471
 Alpha  occ. eigenvalues --   -1.14455  -1.14399  -1.14160  -1.14128  -1.14116
 Alpha  occ. eigenvalues --   -1.14110  -1.14082  -1.14079  -1.13882  -1.13871
 Alpha  occ. eigenvalues --   -1.13828  -1.13139  -1.13122  -1.13106  -1.12785
 Alpha  occ. eigenvalues --   -1.12759  -1.12699  -1.12569  -1.12548  -1.12520
 Alpha  occ. eigenvalues --   -0.16940  -0.13473  -0.11315  -0.10921
 Alpha virt. eigenvalues --   -0.06214  -0.06129  -0.04358  -0.03155  -0.02870
 Alpha virt. eigenvalues --   -0.02570  -0.01945  -0.01368  -0.00935  -0.00649
 Alpha virt. eigenvalues --   -0.00503   0.00225   0.00326   0.00491   0.00622

  Beta  occ. eigenvalues --  -38.45014 -38.44614 -38.44592 -38.44431 -38.43696
  Beta  occ. eigenvalues --  -38.43123 -38.43098  -2.20792  -2.20313  -2.20295
  Beta  occ. eigenvalues --   -2.20210  -2.19468  -2.19063  -2.18895  -1.14473
  Beta  occ. eigenvalues --   -1.14458  -1.14406  -1.14031  -1.14011  -1.13993
  Beta  occ. eigenvalues --   -1.13981  -1.13971  -1.13961  -1.13885  -1.13874
  Beta  occ. eigenvalues --   -1.13833  -1.13148  -1.13116  -1.13105  -1.12765
  Beta  occ. eigenvalues --   -1.12755  -1.12705  -1.12574  -1.12542  -1.12518
  Beta  occ. eigenvalues --   -0.16486  -0.13106  -0.11244
  Beta virt. eigenvalues --   -0.07020  -0.06076  -0.05653  -0.04301  -0.02872
  Beta virt. eigenvalues --   -0.02273  -0.01990  -0.01663  -0.01244  -0.00734
  Beta virt. eigenvalues --   -0.00410  -0.00237   0.00287   0.00500   0.00595

 Mulliken charges and spin densities:
               1          2
     1  Na   0.836992   0.024337
     2  Na  -0.093004  -0.147019
     3  Na   0.301209  -0.066467
     4  Na  -2.252836   0.411520
     5  Na   0.277840   0.344864
     6  Na   0.368944   0.384269
     7  Na   0.560855   0.048495
 Sum of Mulliken charges =  -0.00000   1.00000

 Dipole moment (field-independent basis, Debye):
    X=             -0.9058    Y=             -0.0844    Z=              0.1536  Tot=              0.9226
 Quadrupole moment (field-independent basis, Debye-Ang):
   XX=            -53.7530   YY=            -65.7868   ZZ=            -71.6726
   XY=              0.4971   XZ=             -0.6700   YZ=             -2.0567

 Normal termination of Gaussian 16 at Tue Dec  5 17:34:03 2023.
