 Gaussian 16, Revision B.01,
 Gaussian 16:  ES64L-G16RevB.01 20-Dec-2017

 -------------------------
 #P B3LYP/6-311+g(d) force
 -------------------------

 -----
 DPGEN
 -----
 Symbolic Z-matrix:
 Charge =  0 Multiplicity = 2

                         Standard orientation:
 ---------------------------------------------------------------------
 Center     Atomic      Atomic             Coordinates (Angstroms)
 Number     Number       Type             X           Y           Z
 ---------------------------------------------------------------------
      1         11           0       -2.192451    2.219825    0.503374
      2         11           0       -1.647405   -0.529915   -1.568069
      3         11           0        0.876020    2.151246   -1.179627
      4         11           0       -2.817310   -1.866354    0.575041
      5         11           0        3.758493   -0.264973   -0.038136
      6         11           0        1.178301   -2.123573   -0.372841
      7         11           0        0.844353    0.413743    2.080259
 ---------------------------------------------------------------------

 SCF Done:  E(UB3LYP) =  -1136.12594033     A.U. after   20 cycles

 The electronic state is 2-A.
 Alpha  occ. eigenvalues --  -38.44770 -38.44251 -38.44092 -38.43780 -38.43770
 Alpha  occ. eigenvalues --  -38.43501 -38.43395  -2.20579  -2.20099  -2.19929
 Alpha  occ. eigenvalues --   -2.19618  -2.19588  -2.19454  -2.19222  -1.14262
 Alpha  occ. eigenvalues --   -1.14234  -1.14217  -1.13930  -1.13723  -1.13707
 Alpha  occ. eigenvalues --   -1.13606  -1.13571  -1.13534  -1.13313  -1.13299
 Alpha  occ. eigenvalues --   -1.13264  -1.13251  -1.13234  -1.13231  -1.13113
 Alpha  occ. eigenvalues --   -1.13098  -1.13036  -1.12901  -1.12881  -1.12838
 Alpha  occ. eigenvalues --   -0.18083  -0.13584  -0.11835  -0.10712
 Alpha virt. eigenvalues --   -0.06333  -0.05448  -0.04304  -0.03489  -0.02966
 Alpha virt. eigenvalues --   -0.02523  -0.02023  -0.01146  -0.00554  -0.00122
 Alpha virt. eigenvalues --    0.00061   0.00293   0.00543   0.00659   0.00744

  Beta  occ. eigenvalues --  -38.44771 -38.44248 -38.44012 -38.43777 -38.43758
  Beta  occ. eigenvalues --  -38.43467 -38.43360  -2.20583  -2.20094  -2.19781
  Beta  occ. eigenvalues --   -2.19600  -2.19584  -2.19391  -2.19159  -1.14265
  Beta  occ. eigenvalues --   -1.14224  -1.14220  -1.13922  -1.13713  -1.13701
  Beta  occ. eigenvalues --   -1.13508  -1.13468  -1.13427  -1.13302  -1.13260
  Beta  occ. eigenvalues --   -1.13257  -1.13237  -1.13226  -1.13224  -1.13063
  Beta  occ. eigenvalues --   -1.13056  -1.12993  -1.12857  -1.12824  -1.12797
  Beta  occ. eigenvalues --   -0.17384  -0.13450  -0.11646
  Beta virt. eigenvalues --   -0.06917  -0.06132  -0.05385  -0.03929  -0.03106
  Beta virt. eigenvalues --   -0.02329  -0.01942  -0.01584  -0.01076  -0.00374
  Beta virt. eigenvalues --    0.00028   0.00067   0.00344   0.00714   0.00776

 Mulliken charges and spin densities:
               1          2
     1  Na  -0.019643   0.052356
     2  Na   0.409385   0.079963
     3  Na  -0.279668   0.190568
     4  Na   0.109719   0.069740
     5  Na   0.589956  -0.019680
     6  Na  -0.413543   0.082094
     7  Na  -0.396205   0.544959
 Sum of Mulliken charges =  -0.00000   1.00000

 Dipole moment (field-independent basis, Debye):
    X=              0.6098    Y=              0.0611    Z=              0.3635  Tot=              0.7125
 Quadrupole moment (field-independent basis, Debye-Ang):
   XX=            -51.2841   YY=            -71.4124   ZZ=            -71.8796
   XY=              0.1157   XZ=             -3.4296   YZ=             -1.2353

 Normal termination of Gaussian 16 at Tue Dec  5 18:33:25 2023.
