 Gaussian 16, Revision B.01,
 Gaussian 16:  ES64L-G16RevB.01 20-Dec-2017

 -------------------------
 #P B3LYP/6-311+g(d) force
 -------------------------

 -----
 DPGEN
 -----
 Symbolic Z-matrix:
 Charge =  0 Multiplicity = 2

                         Standard orientation:
 ---------------------------------------------------------------------
 Center     Atomic      Atomic             Coordinates (Angstroms)
 Number     Number       Type             X           Y           Z
 ---------------------------------------------------------------------
      1         11           0       -3.147002   -1.906602    0.310341
      2         11           0        0.216870   -1.200514   -0.949204
      3         11           0       -2.445521    0.861710   -0.675329
      4         11           0       -0.008503    2.676269   -0.692780
      5         11           0        2.755925    0.977085    0.437093
      6         11           0       -0.487682    0.531516    1.823492
      7         11           0        3.115914   -1.939463   -0.253613
 ---------------------------------------------------------------------

 SCF Done:  E(UB3LYP) =  -1136.12293437     A.U. after   21 cycles

 The electronic state is 2-A.
 Alpha  occ. eigenvalues --  -38.44396 -38.44250 -38.43967 -38.43778 -38.43748
 Alpha  occ. eigenvalues --  -38.43552 -38.42744  -2.20292  -2.20091  -2.19846
 Alpha  occ. eigenvalues --   -2.19761  -2.19718  -2.19498  -2.18666  -1.13992
 Alpha  occ. eigenvalues --   -1.13958  -1.13944  -1.13828  -1.13733  -1.13724
 Alpha  occ. eigenvalues --   -1.13577  -1.13494  -1.13482  -1.13470  -1.13426
 Alpha  occ. eigenvalues --   -1.13419  -1.13385  -1.13359  -1.13292  -1.13181
 Alpha  occ. eigenvalues --   -1.13142  -1.13076  -1.12358  -1.12312  -1.12288
 Alpha  occ. eigenvalues --   -0.18964  -0.14239  -0.12223  -0.10357
 Alpha virt. eigenvalues --   -0.06414  -0.05730  -0.04209  -0.03369  -0.02546
 Alpha virt. eigenvalues --   -0.02249  -0.01931  -0.01306  -0.00597  -0.00132
 Alpha virt. eigenvalues --    0.00058   0.00240   0.00594   0.00763   0.00847

  Beta  occ. eigenvalues --  -38.44384 -38.44246 -38.43965 -38.43748 -38.43717
  Beta  occ. eigenvalues --  -38.43475 -38.42721  -2.20274  -2.20086  -2.19843
  Beta  occ. eigenvalues --   -2.19709  -2.19667  -2.19357  -2.18628  -1.13986
  Beta  occ. eigenvalues --   -1.13943  -1.13912  -1.13824  -1.13728  -1.13708
  Beta  occ. eigenvalues --   -1.13563  -1.13492  -1.13461  -1.13449  -1.13384
  Beta  occ. eigenvalues --   -1.13359  -1.13329  -1.13316  -1.13262  -1.13088
  Beta  occ. eigenvalues --   -1.13045  -1.12970  -1.12331  -1.12291  -1.12234
  Beta  occ. eigenvalues --   -0.18295  -0.14031  -0.11953
  Beta virt. eigenvalues --   -0.06556  -0.06270  -0.05594  -0.04014  -0.02789
  Beta virt. eigenvalues --   -0.02160  -0.01919  -0.01384  -0.00887  -0.00572
  Beta virt. eigenvalues --    0.00017   0.00185   0.00299   0.00681   0.00797

 Mulliken charges and spin densities:
               1          2
     1  Na   0.708517   0.084034
     2  Na  -1.156478   0.202588
     3  Na   0.570164   0.273301
     4  Na  -0.221704   0.026919
     5  Na   0.346487   0.127045
     6  Na  -0.511030   0.396655
     7  Na   0.264043  -0.110542
 Sum of Mulliken charges =  -0.00000   1.00000

 Dipole moment (field-independent basis, Debye):
    X=              0.1886    Y=             -0.3825    Z=              0.2675  Tot=              0.5034
 Quadrupole moment (field-independent basis, Debye-Ang):
   XX=            -52.3141   YY=            -65.9345   ZZ=            -75.5726
   XY=              2.7874   XZ=              0.2657   YZ=             -1.4854

 Normal termination of Gaussian 16 at Tue Dec  5 14:06:19 2023.
