 Gaussian 16, Revision B.01,
 Gaussian 16:  ES64L-G16RevB.01 20-Dec-2017

 -------------------------
 #P B3LYP/6-311+g(d) force
 -------------------------

 -----
 DPGEN
 -----
 Symbolic Z-matrix:
 Charge =  0 Multiplicity = 2

                         Standard orientation:
 ---------------------------------------------------------------------
 Center     Atomic      Atomic             Coordinates (Angstroms)
 Number     Number       Type             X           Y           Z
 ---------------------------------------------------------------------
      1         11           0        1.457926    2.973760   -0.413081
      2         11           0       -3.591288   -0.907399   -0.102078
      3         11           0       -1.839495    1.651244    0.113238
      4         11           0        2.580860    0.106415    0.583272
      5         11           0        1.859374   -2.724401   -0.632530
      6         11           0       -0.168488   -0.724093    1.913868
      7         11           0       -0.298890   -0.375526   -1.462690
 ---------------------------------------------------------------------

 SCF Done:  E(UB3LYP) =  -1136.12797510     A.U. after   19 cycles

 The electronic state is 2-A.
 Alpha  occ. eigenvalues --  -38.44688 -38.43756 -38.43745 -38.43742 -38.43536
 Alpha  occ. eigenvalues --  -38.43460 -38.42958  -2.20513  -2.19699  -2.19691
 Alpha  occ. eigenvalues --   -2.19664  -2.19521  -2.19324  -2.18783  -1.14203
 Alpha  occ. eigenvalues --   -1.14166  -1.14148  -1.13502  -1.13455  -1.13381
 Alpha  occ. eigenvalues --   -1.13368  -1.13342  -1.13317  -1.13283  -1.13276
 Alpha  occ. eigenvalues --   -1.13243  -1.13197  -1.13157  -1.13114  -1.12982
 Alpha  occ. eigenvalues --   -1.12975  -1.12943  -1.12465  -1.12437  -1.12418
 Alpha  occ. eigenvalues --   -0.18818  -0.13721  -0.12057  -0.10710
 Alpha virt. eigenvalues --   -0.06151  -0.05064  -0.04483  -0.03464  -0.02486
 Alpha virt. eigenvalues --   -0.02334  -0.02050  -0.01238  -0.00308  -0.00193
 Alpha virt. eigenvalues --    0.00154   0.00292   0.00686   0.00812   0.00854

  Beta  occ. eigenvalues --  -38.44689 -38.43741 -38.43731 -38.43653 -38.43478
  Beta  occ. eigenvalues --  -38.43445 -38.42958  -2.20517  -2.19677  -2.19676
  Beta  occ. eigenvalues --   -2.19497  -2.19418  -2.19297  -2.18784  -1.14208
  Beta  occ. eigenvalues --   -1.14159  -1.14147  -1.13476  -1.13410  -1.13339
  Beta  occ. eigenvalues --   -1.13326  -1.13322  -1.13271  -1.13229  -1.13165
  Beta  occ. eigenvalues --   -1.13135  -1.13118  -1.13087  -1.13042  -1.12967
  Beta  occ. eigenvalues --   -1.12941  -1.12919  -1.12468  -1.12429  -1.12419
  Beta  occ. eigenvalues --   -0.18091  -0.13497  -0.11858
  Beta virt. eigenvalues --   -0.06772  -0.06084  -0.05004  -0.04309  -0.02730
  Beta virt. eigenvalues --   -0.02013  -0.01893  -0.01346  -0.01128  -0.00329
  Beta virt. eigenvalues --   -0.00017   0.00231   0.00318   0.00779   0.00824

 Mulliken charges and spin densities:
               1          2
     1  Na  -0.189492  -0.117385
     2  Na   0.209225  -0.031094
     3  Na   0.293570   0.208373
     4  Na   0.448531   0.258524
     5  Na  -0.074220  -0.021412
     6  Na  -0.373629   0.318558
     7  Na  -0.313984   0.384437
 Sum of Mulliken charges =  -0.00000   1.00000

 Dipole moment (field-independent basis, Debye):
    X=             -0.8920    Y=             -0.6423    Z=              0.0854  Tot=              1.1025
 Quadrupole moment (field-independent basis, Debye-Ang):
   XX=            -53.6435   YY=            -64.4070   ZZ=            -74.5313
   XY=              1.3604   XZ=             -0.1551   YZ=              0.5474

 Normal termination of Gaussian 16 at Tue Dec  5 16:42:19 2023.
