 Gaussian 16, Revision B.01,
 Gaussian 16:  ES64L-G16RevB.01 20-Dec-2017

 -------------------------
 #P B3LYP/6-311+g(d) force
 -------------------------

 -----
 DPGEN
 -----
 Symbolic Z-matrix:
 Charge =  0 Multiplicity = 2

                         Standard orientation:
 ---------------------------------------------------------------------
 Center     Atomic      Atomic             Coordinates (Angstroms)
 Number     Number       Type             X           Y           Z
 ---------------------------------------------------------------------
      1         11           0        0.720850    2.644344    0.126089
      2         11           0       -2.333052   -1.948069   -0.102590
      3         11           0        1.073758   -2.462352   -0.116474
      4         11           0       -0.361979   -0.268673    1.945113
      5         11           0       -2.493713    1.837016   -0.171917
      6         11           0        3.340463    0.202622    0.048798
      7         11           0        0.053673   -0.004888   -1.729020
 ---------------------------------------------------------------------

 SCF Done:  E(UB3LYP) =  -1136.13900918     A.U. after   19 cycles

 The electronic state is 2-A.
 Alpha  occ. eigenvalues --  -38.44000 -38.43693 -38.43665 -38.43422 -38.43330
 Alpha  occ. eigenvalues --  -38.43290 -38.43235  -2.19802  -2.19537  -2.19528
 Alpha  occ. eigenvalues --   -2.19353  -2.19243  -2.19220  -2.19164  -1.13470
 Alpha  occ. eigenvalues --   -1.13464  -1.13451  -1.13225  -1.13212  -1.13203
 Alpha  occ. eigenvalues --   -1.13199  -1.13185  -1.13158  -1.13045  -1.13009
 Alpha  occ. eigenvalues --   -1.12987  -1.12969  -1.12920  -1.12893  -1.12854
 Alpha  occ. eigenvalues --   -1.12840  -1.12830  -1.12811  -1.12800  -1.12779
 Alpha  occ. eigenvalues --   -0.18882  -0.12857  -0.12708  -0.10758
 Alpha virt. eigenvalues --   -0.05572  -0.05197  -0.04585  -0.03036  -0.03015
 Alpha virt. eigenvalues --   -0.02511  -0.01573  -0.01145  -0.00229  -0.00179
 Alpha virt. eigenvalues --   -0.00016   0.00347   0.00804   0.00890   0.00916

  Beta  occ. eigenvalues --  -38.44002 -38.43689 -38.43658 -38.43335 -38.43319
  Beta  occ. eigenvalues --  -38.43284 -38.43161  -2.19807  -2.19532  -2.19521
  Beta  occ. eigenvalues --   -2.19228  -2.19191  -2.19156  -2.19085  -1.13470
  Beta  occ. eigenvalues --   -1.13458  -1.13455  -1.13218  -1.13207  -1.13187
  Beta  occ. eigenvalues --   -1.13176  -1.13166  -1.13157  -1.12995  -1.12927
  Beta  occ. eigenvalues --   -1.12892  -1.12872  -1.12854  -1.12839  -1.12829
  Beta  occ. eigenvalues --   -1.12800  -1.12784  -1.12780  -1.12728  -1.12719
  Beta  occ. eigenvalues --   -0.18133  -0.12646  -0.12445
  Beta virt. eigenvalues --   -0.06820  -0.05528  -0.05207  -0.04554  -0.02289
  Beta virt. eigenvalues --   -0.02179  -0.01508  -0.01439  -0.01091  -0.00272
  Beta virt. eigenvalues --   -0.00229   0.00123   0.00367   0.00856   0.00884

 Mulliken charges and spin densities:
               1          2
     1  Na   0.071602  -0.075618
     2  Na   0.338383  -0.090785
     3  Na   0.318792  -0.070740
     4  Na  -0.487186   0.777195
     5  Na   0.125003  -0.089744
     6  Na  -0.045429  -0.078046
     7  Na  -0.321166   0.627737
 Sum of Mulliken charges =  -0.00000   1.00000

 Dipole moment (field-independent basis, Debye):
    X=             -0.0612    Y=             -0.0064    Z=              0.0811  Tot=              0.1018
 Quadrupole moment (field-independent basis, Debye-Ang):
   XX=            -55.1154   YY=            -63.7290   ZZ=            -74.2630
   XY=              0.3729   XZ=              1.0573   YZ=              0.5463

 Normal termination of Gaussian 16 at Fri Dec  8 00:32:18 2023.
