 Gaussian 16, Revision B.01,
 Gaussian 16:  ES64L-G16RevB.01 20-Dec-2017

 -------------------------
 #P B3LYP/6-311+g(d) force
 -------------------------

 -----
 DPGEN
 -----
 Symbolic Z-matrix:
 Charge =  0 Multiplicity = 2

                         Standard orientation:
 ---------------------------------------------------------------------
 Center     Atomic      Atomic             Coordinates (Angstroms)
 Number     Number       Type             X           Y           Z
 ---------------------------------------------------------------------
      1         11           0        4.150024    0.084146   -2.343856
      2         11           0       -3.015424    1.957685   -0.731206
      3         11           0       -4.578761   -1.287945   -0.719776
      4         11           0       -1.844351   -2.345724    0.158415
      5         11           0       -0.290395    2.732064    0.818790
      6         11           0        1.228060   -0.347395    2.402556
      7         11           0        4.350847   -0.792831    0.415078
 ---------------------------------------------------------------------

 SCF Done:  E(UB3LYP) =  -1136.10643437     A.U. after   21 cycles

 The electronic state is 2-A.
 Alpha  occ. eigenvalues --  -38.45023 -38.44736 -38.44670 -38.44573 -38.44213
 Alpha  occ. eigenvalues --  -38.43746 -38.43329  -2.20820  -2.20518  -2.20500
 Alpha  occ. eigenvalues --   -2.20388  -2.20038  -2.19571  -2.19112  -1.14486
 Alpha  occ. eigenvalues --   -1.14473  -1.14457  -1.14243  -1.14172  -1.14160
 Alpha  occ. eigenvalues --   -1.14137  -1.14127  -1.14122  -1.14054  -1.14043
 Alpha  occ. eigenvalues --   -1.13999  -1.13697  -1.13689  -1.13671  -1.13246
 Alpha  occ. eigenvalues --   -1.13224  -1.13218  -1.12795  -1.12786  -1.12755
 Alpha  occ. eigenvalues --   -0.15922  -0.14233  -0.11907  -0.11665
 Alpha virt. eigenvalues --   -0.06697  -0.05186  -0.04618  -0.03757  -0.03136
 Alpha virt. eigenvalues --   -0.02541  -0.02265  -0.01380  -0.01172  -0.00657
 Alpha virt. eigenvalues --   -0.00410  -0.00185  -0.00112   0.00156   0.00633

  Beta  occ. eigenvalues --  -38.44983 -38.44658 -38.44618 -38.44510 -38.44220
  Beta  occ. eigenvalues --  -38.43752 -38.43339  -2.20745  -2.20403  -2.20372
  Beta  occ. eigenvalues --   -2.20271  -2.20056  -2.19583  -2.19134  -1.14436
  Beta  occ. eigenvalues --   -1.14420  -1.14402  -1.14185  -1.14068  -1.14064
  Beta  occ. eigenvalues --   -1.14061  -1.14055  -1.14044  -1.13975  -1.13968
  Beta  occ. eigenvalues --   -1.13917  -1.13706  -1.13699  -1.13657  -1.13248
  Beta  occ. eigenvalues --   -1.13234  -1.13221  -1.12806  -1.12803  -1.12753
  Beta  occ. eigenvalues --   -0.15278  -0.13795  -0.11574
  Beta virt. eigenvalues --   -0.08307  -0.06157  -0.04844  -0.04083  -0.03540
  Beta virt. eigenvalues --   -0.02802  -0.02390  -0.02115  -0.01105  -0.00864
  Beta virt. eigenvalues --   -0.00443  -0.00189  -0.00004   0.00107   0.00236

 Mulliken charges and spin densities:
               1          2
     1  Na   0.140377   0.226317
     2  Na  -0.065700   0.266726
     3  Na   0.742830  -0.081264
     4  Na  -0.453541   0.196890
     5  Na  -0.154203  -0.052112
     6  Na  -0.171498   0.527708
     7  Na  -0.038264  -0.084266
 Sum of Mulliken charges =  -0.00000   1.00000

 Dipole moment (field-independent basis, Debye):
    X=             -0.0621    Y=             -0.3334    Z=             -0.5639  Tot=              0.6581
 Quadrupole moment (field-independent basis, Debye-Ang):
   XX=            -64.6392   YY=            -72.6762   ZZ=            -65.1475
   XY=             -0.7731   XZ=              3.9993   YZ=             -4.4453

 Normal termination of Gaussian 16 at Sun Dec  3 17:27:15 2023.
