 Gaussian 16, Revision B.01,
 Gaussian 16:  ES64L-G16RevB.01 20-Dec-2017

 -------------------------
 #P B3LYP/6-311+g(d) force
 -------------------------

 -----
 DPGEN
 -----
 Symbolic Z-matrix:
 Charge =  0 Multiplicity = 2

                         Standard orientation:
 ---------------------------------------------------------------------
 Center     Atomic      Atomic             Coordinates (Angstroms)
 Number     Number       Type             X           Y           Z
 ---------------------------------------------------------------------
      1         11           0        3.024063   -1.785387   -0.167192
      2         11           0       -3.015835   -1.867955   -0.945289
      3         11           0       -0.526865    3.423355   -0.199116
      4         11           0       -2.448448    1.219581    1.053048
      5         11           0        0.257508   -2.533009    1.070753
      6         11           0        2.841120    1.820154   -0.085572
      7         11           0       -0.131542   -0.276740   -0.726632
 ---------------------------------------------------------------------

 SCF Done:  E(UB3LYP) =  -1136.12383061     A.U. after   20 cycles

 The electronic state is 2-A.
 Alpha  occ. eigenvalues --  -38.44042 -38.44038 -38.44027 -38.43773 -38.43756
 Alpha  occ. eigenvalues --  -38.43609 -38.43546  -2.19956  -2.19896  -2.19890
 Alpha  occ. eigenvalues --   -2.19773  -2.19581  -2.19418  -2.19390  -1.13796
 Alpha  occ. eigenvalues --   -1.13648  -1.13607  -1.13590  -1.13559  -1.13557
 Alpha  occ. eigenvalues --   -1.13529  -1.13523  -1.13475  -1.13465  -1.13382
 Alpha  occ. eigenvalues --   -1.13368  -1.13252  -1.13237  -1.13217  -1.13082
 Alpha  occ. eigenvalues --   -1.13061  -1.13050  -1.13044  -1.13031  -1.12999
 Alpha  occ. eigenvalues --   -0.17850  -0.13666  -0.13142  -0.09678
 Alpha virt. eigenvalues --   -0.05907  -0.05603  -0.05457  -0.02887  -0.02669
 Alpha virt. eigenvalues --   -0.02045  -0.01621  -0.01395  -0.01187  -0.00724
 Alpha virt. eigenvalues --    0.00009   0.00249   0.00566   0.00708   0.00715

  Beta  occ. eigenvalues --  -38.44030 -38.44003 -38.43992 -38.43773 -38.43748
  Beta  occ. eigenvalues --  -38.43559 -38.43484  -2.19888  -2.19880  -2.19834
  Beta  occ. eigenvalues --   -2.19772  -2.19571  -2.19326  -2.19275  -1.13766
  Beta  occ. eigenvalues --   -1.13610  -1.13573  -1.13560  -1.13538  -1.13519
  Beta  occ. eigenvalues --   -1.13509  -1.13469  -1.13438  -1.13428  -1.13380
  Beta  occ. eigenvalues --   -1.13363  -1.13249  -1.13227  -1.13185  -1.13015
  Beta  occ. eigenvalues --   -1.12999  -1.12986  -1.12968  -1.12954  -1.12927
  Beta  occ. eigenvalues --   -0.17542  -0.13087  -0.12592
  Beta virt. eigenvalues --   -0.06459  -0.05812  -0.05331  -0.05110  -0.02466
  Beta virt. eigenvalues --   -0.02241  -0.01783  -0.01489  -0.01118  -0.00903
  Beta virt. eigenvalues --   -0.00448   0.00226   0.00401   0.00678   0.00733

 Mulliken charges and spin densities:
               1          2
     1  Na   0.436484   0.069910
     2  Na   0.583383   0.209820
     3  Na   0.182710   0.050379
     4  Na  -0.024981   0.147161
     5  Na  -0.072139   0.134999
     6  Na   0.282933   0.315634
     7  Na  -1.388390   0.072097
 Sum of Mulliken charges =  -0.00000   1.00000

 Dipole moment (field-independent basis, Debye):
    X=             -0.0338    Y=             -0.2905    Z=              0.3903  Tot=              0.4877
 Quadrupole moment (field-independent basis, Debye-Ang):
   XX=            -61.4397   YY=            -65.0895   ZZ=            -70.8772
   XY=             -0.5824   XZ=             -1.5974   YZ=             -1.0063

 Normal termination of Gaussian 16 at Wed Nov 29 16:28:30 2023.
