 Gaussian 16, Revision B.01,
 Gaussian 16:  ES64L-G16RevB.01 20-Dec-2017

 -------------------------
 #P B3LYP/6-311+g(d) force
 -------------------------

 -----
 DPGEN
 -----
 Symbolic Z-matrix:
 Charge =  0 Multiplicity = 2

                         Standard orientation:
 ---------------------------------------------------------------------
 Center     Atomic      Atomic             Coordinates (Angstroms)
 Number     Number       Type             X           Y           Z
 ---------------------------------------------------------------------
      1         11           0        0.277726    0.080687   -1.524633
      2         11           0        3.559160   -0.622608   -0.369795
      3         11           0       -2.938896    1.952823   -0.308426
      4         11           0       -3.021172   -1.800697   -0.059279
      5         11           0        0.594041   -2.570998    0.292175
      6         11           0        0.052644    0.247104    1.705327
      7         11           0        1.476496    2.713690    0.264632
 ---------------------------------------------------------------------

 SCF Done:  E(UB3LYP) =  -1136.12676151     A.U. after   21 cycles

 The electronic state is 2-A.
 Alpha  occ. eigenvalues --  -38.44672 -38.44471 -38.44447 -38.43891 -38.43601
 Alpha  occ. eigenvalues --  -38.43043 -38.42941  -2.20465  -2.20234  -2.20202
 Alpha  occ. eigenvalues --   -2.19824  -2.19438  -2.19007  -2.18835  -1.14135
 Alpha  occ. eigenvalues --   -1.14112  -1.14098  -1.13919  -1.13887  -1.13882
 Alpha  occ. eigenvalues --   -1.13879  -1.13844  -1.13837  -1.13564  -1.13481
 Alpha  occ. eigenvalues --   -1.13417  -1.13139  -1.13101  -1.13054  -1.12720
 Alpha  occ. eigenvalues --   -1.12648  -1.12608  -1.12527  -1.12495  -1.12429
 Alpha  occ. eigenvalues --   -0.18260  -0.13097  -0.12104  -0.10140
 Alpha virt. eigenvalues --   -0.06407  -0.05835  -0.04285  -0.02986  -0.02598
 Alpha virt. eigenvalues --   -0.02322  -0.01922  -0.01555  -0.00829  -0.00354
 Alpha virt. eigenvalues --   -0.00075   0.00190   0.00614   0.00689   0.00822

  Beta  occ. eigenvalues --  -38.44648 -38.44474 -38.44433 -38.43855 -38.43589
  Beta  occ. eigenvalues --  -38.42955 -38.42927  -2.20423  -2.20240  -2.20177
  Beta  occ. eigenvalues --   -2.19758  -2.19419  -2.18847  -2.18814  -1.14091
  Beta  occ. eigenvalues --   -1.14085  -1.14072  -1.13920  -1.13889  -1.13875
  Beta  occ. eigenvalues --   -1.13859  -1.13830  -1.13818  -1.13507  -1.13440
  Beta  occ. eigenvalues --   -1.13364  -1.13116  -1.13074  -1.13044  -1.12625
  Beta  occ. eigenvalues --   -1.12549  -1.12504  -1.12493  -1.12444  -1.12407
  Beta  occ. eigenvalues --   -0.17628  -0.12772  -0.11834
  Beta virt. eigenvalues --   -0.06590  -0.06063  -0.05804  -0.04247  -0.02441
  Beta virt. eigenvalues --   -0.02108  -0.01860  -0.01522  -0.01055  -0.00815
  Beta virt. eigenvalues --   -0.00338   0.00079   0.00275   0.00678   0.00722

 Mulliken charges and spin densities:
               1          2
     1  Na  -0.369669   0.611100
     2  Na   0.216551   0.125764
     3  Na  -0.057396   0.049588
     4  Na  -0.063738  -0.048451
     5  Na   0.067997   0.011562
     6  Na   0.232522   0.339432
     7  Na  -0.026267  -0.088995
 Sum of Mulliken charges =  -0.00000   1.00000

 Dipole moment (field-independent basis, Debye):
    X=              0.0372    Y=              0.1211    Z=              0.0818  Tot=              0.1508
 Quadrupole moment (field-independent basis, Debye-Ang):
   XX=            -51.4487   YY=            -63.9417   ZZ=            -76.1919
   XY=              1.1954   XZ=              0.4353   YZ=             -0.4797

 Normal termination of Gaussian 16 at Fri Dec  8 06:40:38 2023.
