 Gaussian 16, Revision B.01,
 Gaussian 16:  ES64L-G16RevB.01 20-Dec-2017

 -------------------------
 #P B3LYP/6-311+g(d) force
 -------------------------

 -----
 DPGEN
 -----
 Symbolic Z-matrix:
 Charge =  0 Multiplicity = 2

                         Standard orientation:
 ---------------------------------------------------------------------
 Center     Atomic      Atomic             Coordinates (Angstroms)
 Number     Number       Type             X           Y           Z
 ---------------------------------------------------------------------
      1         11           0        0.036299   -0.018581    1.641551
      2         11           0       -1.638505   -2.418827    0.336340
      3         11           0        1.877069   -2.254426   -0.578213
      4         11           0       -0.221913    0.199213   -1.595808
      5         11           0        3.631025    0.844470    0.332544
      6         11           0       -0.199689    3.031803   -0.140067
      7         11           0       -3.484286    0.616349    0.003652
 ---------------------------------------------------------------------

 SCF Done:  E(UB3LYP) =  -1136.12914816     A.U. after   21 cycles

 The electronic state is 2-A.
 Alpha  occ. eigenvalues --  -38.45080 -38.44954 -38.43505 -38.43505 -38.43419
 Alpha  occ. eigenvalues --  -38.43193 -38.42907  -2.20854  -2.20700  -2.19439
 Alpha  occ. eigenvalues --   -2.19325  -2.19263  -2.19065  -2.18882  -1.14537
 Alpha  occ. eigenvalues --   -1.14504  -1.14489  -1.14374  -1.14357  -1.14330
 Alpha  occ. eigenvalues --   -1.13171  -1.13098  -1.13042  -1.13034  -1.12988
 Alpha  occ. eigenvalues --   -1.12952  -1.12936  -1.12920  -1.12889  -1.12753
 Alpha  occ. eigenvalues --   -1.12727  -1.12683  -1.12581  -1.12501  -1.12487
 Alpha  occ. eigenvalues --   -0.18324  -0.13000  -0.12194  -0.10114
 Alpha virt. eigenvalues --   -0.06761  -0.04984  -0.04639  -0.03000  -0.02624
 Alpha virt. eigenvalues --   -0.02378  -0.01950  -0.01302  -0.00676  -0.00395
 Alpha virt. eigenvalues --   -0.00064   0.00230   0.00686   0.00720   0.00765

  Beta  occ. eigenvalues --  -38.45078 -38.44943 -38.43500 -38.43446 -38.43401
  Beta  occ. eigenvalues --  -38.43183 -38.42833  -2.20854  -2.20680  -2.19330
  Beta  occ. eigenvalues --   -2.19319  -2.19231  -2.19051  -2.18749  -1.14530
  Beta  occ. eigenvalues --   -1.14499  -1.14487  -1.14350  -1.14345  -1.14318
  Beta  occ. eigenvalues --   -1.13094  -1.13041  -1.13007  -1.12969  -1.12962
  Beta  occ. eigenvalues --   -1.12933  -1.12921  -1.12889  -1.12866  -1.12738
  Beta  occ. eigenvalues --   -1.12707  -1.12661  -1.12488  -1.12411  -1.12386
  Beta  occ. eigenvalues --   -0.17659  -0.12755  -0.11904
  Beta virt. eigenvalues --   -0.06733  -0.06312  -0.04907  -0.04607  -0.02416
  Beta virt. eigenvalues --   -0.02230  -0.01884  -0.01218  -0.01023  -0.00688
  Beta virt. eigenvalues --   -0.00386   0.00082   0.00275   0.00747   0.00775

 Mulliken charges and spin densities:
               1          2
     1  Na  -0.180548   0.676449
     2  Na   0.160124   0.053138
     3  Na   0.084133   0.065925
     4  Na   0.152801   0.421432
     5  Na  -0.095619   0.016458
     6  Na  -0.144568  -0.144997
     7  Na   0.023676  -0.088406
 Sum of Mulliken charges =  -0.00000   1.00000

 Dipole moment (field-independent basis, Debye):
    X=             -0.1828    Y=              0.3515    Z=             -0.0011  Tot=              0.3962
 Quadrupole moment (field-independent basis, Debye-Ang):
   XX=            -48.6317   YY=            -63.9584   ZZ=            -77.3146
   XY=             -0.2568   XZ=             -0.1842   YZ=              0.8830

 Normal termination of Gaussian 16 at Thu Dec  7 22:04:55 2023.
