 Gaussian 16, Revision B.01,
 Gaussian 16:  ES64L-G16RevB.01 20-Dec-2017

 -------------------------
 #P B3LYP/6-311+g(d) force
 -------------------------

 -----
 DPGEN
 -----
 Symbolic Z-matrix:
 Charge =  0 Multiplicity = 2

                         Standard orientation:
 ---------------------------------------------------------------------
 Center     Atomic      Atomic             Coordinates (Angstroms)
 Number     Number       Type             X           Y           Z
 ---------------------------------------------------------------------
      1         11           0       -3.243708    0.152525   -0.495842
      2         11           0        2.696459    1.689046    0.044378
      3         11           0        2.663393   -1.803929   -0.319491
      4         11           0        0.046228   -0.003402    1.943504
      5         11           0       -1.378591   -2.494116    0.627447
      6         11           0       -0.858249    3.084017   -0.034406
      7         11           0        0.074468   -0.624141   -1.765589
 ---------------------------------------------------------------------

 SCF Done:  E(UB3LYP) =  -1136.13470646     A.U. after   19 cycles

 The electronic state is 2-A.
 Alpha  occ. eigenvalues --  -38.44184 -38.44109 -38.43852 -38.43670 -38.43668
 Alpha  occ. eigenvalues --  -38.43501 -38.43492  -2.19991  -2.19906  -2.19687
 Alpha  occ. eigenvalues --   -2.19580  -2.19567  -2.19377  -2.19272  -1.13666
 Alpha  occ. eigenvalues --   -1.13645  -1.13631  -1.13590  -1.13571  -1.13539
 Alpha  occ. eigenvalues --   -1.13410  -1.13337  -1.13319  -1.13281  -1.13248
 Alpha  occ. eigenvalues --   -1.13219  -1.13205  -1.13186  -1.13185  -1.13040
 Alpha  occ. eigenvalues --   -1.13021  -1.12994  -1.12955  -1.12935  -1.12912
 Alpha  occ. eigenvalues --   -0.18246  -0.13087  -0.12164  -0.10835
 Alpha virt. eigenvalues --   -0.05744  -0.05372  -0.04730  -0.03305  -0.02862
 Alpha virt. eigenvalues --   -0.02593  -0.01648  -0.01163  -0.00584  -0.00456
 Alpha virt. eigenvalues --   -0.00022   0.00337   0.00739   0.00831   0.00847

  Beta  occ. eigenvalues --  -38.44171 -38.44108 -38.43844 -38.43609 -38.43578
  Beta  occ. eigenvalues --  -38.43504 -38.43470  -2.19969  -2.19905  -2.19675
  Beta  occ. eigenvalues --   -2.19468  -2.19404  -2.19341  -2.19279  -1.13637
  Beta  occ. eigenvalues --   -1.13629  -1.13619  -1.13579  -1.13571  -1.13538
  Beta  occ. eigenvalues --   -1.13384  -1.13320  -1.13308  -1.13199  -1.13158
  Beta  occ. eigenvalues --   -1.13144  -1.13106  -1.13089  -1.13074  -1.12998
  Beta  occ. eigenvalues --   -1.12976  -1.12959  -1.12952  -1.12940  -1.12913
  Beta  occ. eigenvalues --   -0.17535  -0.12840  -0.11944
  Beta virt. eigenvalues --   -0.06955  -0.05688  -0.05323  -0.04614  -0.02587
  Beta virt. eigenvalues --   -0.02186  -0.01615  -0.01491  -0.01100  -0.00600
  Beta virt. eigenvalues --   -0.00454   0.00111   0.00388   0.00825   0.00833

 Mulliken charges and spin densities:
               1          2
     1  Na  -0.051079   0.021477
     2  Na  -0.145309  -0.099200
     3  Na   0.258935  -0.037059
     4  Na  -0.006447   0.582411
     5  Na   0.214141   0.029613
     6  Na  -0.213334  -0.081603
     7  Na  -0.056908   0.584362
 Sum of Mulliken charges =  -0.00000   1.00000

 Dipole moment (field-independent basis, Debye):
    X=              0.1289    Y=             -0.1248    Z=             -0.0657  Tot=              0.1911
 Quadrupole moment (field-independent basis, Debye-Ang):
   XX=            -56.0047   YY=            -64.0958   ZZ=            -74.1168
   XY=              0.1536   XZ=              0.6869   YZ=             -1.2321

 Normal termination of Gaussian 16 at Thu Dec  7 11:44:26 2023.
