 Gaussian 16, Revision B.01,
 Gaussian 16:  ES64L-G16RevB.01 20-Dec-2017

 -------------------------
 #P B3LYP/6-311+g(d) force
 -------------------------

 -----
 DPGEN
 -----
 Symbolic Z-matrix:
 Charge =  0 Multiplicity = 2

                         Standard orientation:
 ---------------------------------------------------------------------
 Center     Atomic      Atomic             Coordinates (Angstroms)
 Number     Number       Type             X           Y           Z
 ---------------------------------------------------------------------
      1         11           0       -0.451187    1.628986    1.470380
      2         11           0        2.134524    3.267136   -0.799246
      3         11           0        3.467295    0.235937    0.110293
      4         11           0        0.054692   -1.102384   -0.571448
      5         11           0       -3.140801   -1.465973    0.209317
      6         11           0        3.848929   -2.741261    0.020097
      7         11           0       -5.913452    0.177558   -0.439394
 ---------------------------------------------------------------------

 SCF Done:  E(UB3LYP) =  -1136.11598253     A.U. after   20 cycles

 The electronic state is 2-A.
 Alpha  occ. eigenvalues --  -38.45343 -38.44755 -38.44609 -38.44040 -38.43812
 Alpha  occ. eigenvalues --  -38.43535 -38.43219  -2.21102  -2.20565  -2.20450
 Alpha  occ. eigenvalues --   -2.19832  -2.19629  -2.19419  -2.19040  -1.14798
 Alpha  occ. eigenvalues --   -1.14782  -1.14700  -1.14195  -1.14194  -1.14190
 Alpha  occ. eigenvalues --   -1.14133  -1.14116  -1.14051  -1.13506  -1.13493
 Alpha  occ. eigenvalues --   -1.13442  -1.13320  -1.13303  -1.13279  -1.13112
 Alpha  occ. eigenvalues --   -1.13097  -1.13074  -1.12698  -1.12688  -1.12660
 Alpha  occ. eigenvalues --   -0.16710  -0.14123  -0.11847  -0.11407
 Alpha virt. eigenvalues --   -0.06585  -0.05108  -0.04726  -0.03569  -0.02873
 Alpha virt. eigenvalues --   -0.02520  -0.02002  -0.01469  -0.01147  -0.01023
 Alpha virt. eigenvalues --   -0.00540  -0.00292   0.00354   0.00478   0.00524

  Beta  occ. eigenvalues --  -38.45337 -38.44645 -38.44555 -38.44004 -38.43815
  Beta  occ. eigenvalues --  -38.43515 -38.43215  -2.21092  -2.20361  -2.20354
  Beta  occ. eigenvalues --   -2.19766  -2.19645  -2.19383  -2.19033  -1.14791
  Beta  occ. eigenvalues --   -1.14772  -1.14690  -1.14067  -1.14058  -1.14056
  Beta  occ. eigenvalues --   -1.14053  -1.14053  -1.13977  -1.13455  -1.13448
  Beta  occ. eigenvalues --   -1.13403  -1.13333  -1.13311  -1.13240  -1.13079
  Beta  occ. eigenvalues --   -1.13074  -1.13051  -1.12688  -1.12682  -1.12656
  Beta  occ. eigenvalues --   -0.16166  -0.13257  -0.11699
  Beta virt. eigenvalues --   -0.07907  -0.06256  -0.04716  -0.04528  -0.03293
  Beta virt. eigenvalues --   -0.02637  -0.02081  -0.01859  -0.01144  -0.00896
  Beta virt. eigenvalues --   -0.00641  -0.00315  -0.00084   0.00424   0.00549

 Mulliken charges and spin densities:
               1          2
     1  Na   0.188112  -0.044192
     2  Na   0.145293   0.128293
     3  Na  -0.238333   0.218904
     4  Na  -0.672023   0.085789
     5  Na  -0.272239   0.105730
     6  Na   0.568791   0.021370
     7  Na   0.280398   0.484105
 Sum of Mulliken charges =  -0.00000   1.00000

 Dipole moment (field-independent basis, Debye):
    X=             -0.7295    Y=              0.8584    Z=              0.2376  Tot=              1.1513
 Quadrupole moment (field-independent basis, Debye-Ang):
   XX=            -69.0726   YY=            -65.3861   ZZ=            -67.4167
   XY=             -2.8900   XZ=             -0.9188   YZ=             -0.6268

 Normal termination of Gaussian 16 at Wed Nov 29 03:35:07 2023.
