 Gaussian 16, Revision B.01,
 Gaussian 16:  ES64L-G16RevB.01 20-Dec-2017

 -------------------------
 #P B3LYP/6-311+g(d) force
 -------------------------

 -----
 DPGEN
 -----
 Symbolic Z-matrix:
 Charge =  0 Multiplicity = 2

                         Standard orientation:
 ---------------------------------------------------------------------
 Center     Atomic      Atomic             Coordinates (Angstroms)
 Number     Number       Type             X           Y           Z
 ---------------------------------------------------------------------
      1         11           0       -0.643729   -1.345532    1.827983
      2         11           0       -1.827076    0.861394   -0.763255
      3         11           0        1.133566   -1.622786   -1.499022
      4         11           0        1.876709    1.616166    0.164336
      5         11           0       -4.037572   -1.821431   -0.092730
      6         11           0        4.150052   -1.318741    0.215552
      7         11           0       -0.651949    3.630930    0.147136
 ---------------------------------------------------------------------

 SCF Done:  E(UB3LYP) =  -1136.11906047     A.U. after   29 cycles

 The electronic state is 2-A.
 Alpha  occ. eigenvalues --  -38.45467 -38.44937 -38.44512 -38.44179 -38.43444
 Alpha  occ. eigenvalues --  -38.43337 -38.43119  -2.21249  -2.20709  -2.20275
 Alpha  occ. eigenvalues --   -2.20011  -2.19324  -2.19186  -2.18955  -1.14947
 Alpha  occ. eigenvalues --   -1.14915  -1.14854  -1.14383  -1.14369  -1.14331
 Alpha  occ. eigenvalues --   -1.13946  -1.13936  -1.13895  -1.13718  -1.13692
 Alpha  occ. eigenvalues --   -1.13625  -1.13049  -1.13009  -1.12973  -1.12839
 Alpha  occ. eigenvalues --   -1.12826  -1.12802  -1.12608  -1.12607  -1.12550
 Alpha  occ. eigenvalues --   -0.17381  -0.13366  -0.12449  -0.09667
 Alpha virt. eigenvalues --   -0.07245  -0.05617  -0.04811  -0.03049  -0.02864
 Alpha virt. eigenvalues --   -0.02477  -0.02004  -0.01741  -0.00937  -0.00422
 Alpha virt. eigenvalues --   -0.00369  -0.00004   0.00333   0.00468   0.00535

  Beta  occ. eigenvalues --  -38.45454 -38.44931 -38.44488 -38.44176 -38.43425
  Beta  occ. eigenvalues --  -38.43338 -38.43015  -2.21226  -2.20699  -2.20232
  Beta  occ. eigenvalues --   -2.20007  -2.19291  -2.19189  -2.18764  -1.14933
  Beta  occ. eigenvalues --   -1.14881  -1.14840  -1.14377  -1.14354  -1.14326
  Beta  occ. eigenvalues --   -1.13917  -1.13895  -1.13868  -1.13715  -1.13672
  Beta  occ. eigenvalues --   -1.13629  -1.13032  -1.12964  -1.12956  -1.12840
  Beta  occ. eigenvalues --   -1.12823  -1.12796  -1.12478  -1.12476  -1.12416
  Beta  occ. eigenvalues --   -0.16876  -0.13069  -0.12253
  Beta virt. eigenvalues --   -0.07076  -0.06071  -0.05408  -0.04652  -0.02747
  Beta virt. eigenvalues --   -0.02464  -0.02133  -0.01757  -0.01229  -0.00828
  Beta virt. eigenvalues --   -0.00367  -0.00071   0.00174   0.00489   0.00575

 Mulliken charges and spin densities:
               1          2
     1  Na  -0.258790   0.473631
     2  Na  -0.635890   0.303549
     3  Na   0.237720   0.112742
     4  Na  -0.863452  -0.034898
     5  Na   0.106806   0.037167
     6  Na   0.404040   0.095986
     7  Na   1.009565   0.011823
 Sum of Mulliken charges =  -0.00000   1.00000

 Dipole moment (field-independent basis, Debye):
    X=              1.0638    Y=             -0.5742    Z=              0.2992  Tot=              1.2454
 Quadrupole moment (field-independent basis, Debye-Ang):
   XX=            -55.6727   YY=            -64.4795   ZZ=            -74.4129
   XY=              0.5661   XZ=              1.9703   YZ=              2.5397

 Normal termination of Gaussian 16 at Sun Dec  3 20:11:22 2023.
