 Gaussian 16, Revision B.01,
 Gaussian 16:  ES64L-G16RevB.01 20-Dec-2017

 -------------------------
 #P B3LYP/6-311+g(d) force
 -------------------------

 -----
 DPGEN
 -----
 Symbolic Z-matrix:
 Charge =  0 Multiplicity = 2

                         Standard orientation:
 ---------------------------------------------------------------------
 Center     Atomic      Atomic             Coordinates (Angstroms)
 Number     Number       Type             X           Y           Z
 ---------------------------------------------------------------------
      1         11           0       -0.384544    0.353443   -1.164048
      2         11           0        2.865095   -0.343646   -1.453588
      3         11           0        1.625301    0.095893    2.204989
      4         11           0        1.445256    2.708234    0.230396
      5         11           0        0.840506   -2.541385   -0.346525
      6         11           0       -4.126489    0.768650   -0.692660
      7         11           0       -2.265126   -1.041188    1.221437
 ---------------------------------------------------------------------

 SCF Done:  E(UB3LYP) =  -1136.12578125     A.U. after   22 cycles

 The electronic state is 2-A.
 Alpha  occ. eigenvalues --  -38.44637 -38.44498 -38.44364 -38.44148 -38.43813
 Alpha  occ. eigenvalues --  -38.42596 -38.42417  -2.20430  -2.20376  -2.20219
 Alpha  occ. eigenvalues --   -2.19996  -2.19770  -2.18447  -2.18306  -1.14105
 Alpha  occ. eigenvalues --   -1.14084  -1.14067  -1.14061  -1.14033  -1.13977
 Alpha  occ. eigenvalues --   -1.13883  -1.13855  -1.13831  -1.13697  -1.13654
 Alpha  occ. eigenvalues --   -1.13610  -1.13476  -1.13435  -1.13386  -1.12130
 Alpha  occ. eigenvalues --   -1.12112  -1.12082  -1.12001  -1.11964  -1.11944
 Alpha  occ. eigenvalues --   -0.18315  -0.13652  -0.11462  -0.11340
 Alpha virt. eigenvalues --   -0.06557  -0.05007  -0.03954  -0.03194  -0.03033
 Alpha virt. eigenvalues --   -0.02746  -0.02238  -0.01118  -0.00588  -0.00087
 Alpha virt. eigenvalues --    0.00069   0.00212   0.00328   0.00748   0.00818

  Beta  occ. eigenvalues --  -38.44627 -38.44453 -38.44278 -38.44130 -38.43783
  Beta  occ. eigenvalues --  -38.42597 -38.42413  -2.20411  -2.20295  -2.20061
  Beta  occ. eigenvalues --   -2.19964  -2.19718  -2.18452  -2.18304  -1.14093
  Beta  occ. eigenvalues --   -1.14071  -1.14052  -1.13996  -1.13977  -1.13922
  Beta  occ. eigenvalues --   -1.13773  -1.13751  -1.13713  -1.13676  -1.13631
  Beta  occ. eigenvalues --   -1.13571  -1.13426  -1.13404  -1.13341  -1.12137
  Beta  occ. eigenvalues --   -1.12100  -1.12080  -1.12001  -1.11969  -1.11910
  Beta  occ. eigenvalues --   -0.17589  -0.13447  -0.11200
  Beta virt. eigenvalues --   -0.07534  -0.06315  -0.04558  -0.03858  -0.03054
  Beta virt. eigenvalues --   -0.02392  -0.02048  -0.01822  -0.00759  -0.00459
  Beta virt. eigenvalues --   -0.00050   0.00205   0.00264   0.00462   0.00827

 Mulliken charges and spin densities:
               1          2
     1  Na  -0.882080   0.282446
     2  Na   0.821523  -0.016071
     3  Na  -0.344312   0.506579
     4  Na  -0.073618   0.016366
     5  Na   0.169018   0.036533
     6  Na   0.427496   0.079009
     7  Na  -0.118027   0.095138
 Sum of Mulliken charges =  -0.00000   1.00000

 Dipole moment (field-independent basis, Debye):
    X=             -0.4872    Y=              0.0024    Z=              0.0251  Tot=              0.4879
 Quadrupole moment (field-independent basis, Debye-Ang):
   XX=            -52.0712   YY=            -73.2909   ZZ=            -67.8703
   XY=             -2.2136   XZ=             -0.2254   YZ=             -3.5674

 Normal termination of Gaussian 16 at Tue Dec  5 19:10:05 2023.
