 Gaussian 16, Revision B.01,
 Gaussian 16:  ES64L-G16RevB.01 20-Dec-2017

 -------------------------
 #P B3LYP/6-311+g(d) force
 -------------------------

 -----
 DPGEN
 -----
 Symbolic Z-matrix:
 Charge =  0 Multiplicity = 2

                         Standard orientation:
 ---------------------------------------------------------------------
 Center     Atomic      Atomic             Coordinates (Angstroms)
 Number     Number       Type             X           Y           Z
 ---------------------------------------------------------------------
      1         11           0        3.301584   -0.928284   -0.143631
      2         11           0        1.473291    2.778783   -0.189106
      3         11           0        0.057546   -0.291429   -1.820981
      4         11           0        0.088862    0.392181    2.317456
      5         11           0       -1.983684    2.053059   -0.302906
      6         11           0       -3.044051   -1.095590   -0.011423
      7         11           0        0.106452   -2.908721    0.150591
 ---------------------------------------------------------------------

 SCF Done:  E(UB3LYP) =  -1136.13573567     A.U. after   19 cycles

 The electronic state is 2-A.
 Alpha  occ. eigenvalues --  -38.44370 -38.44148 -38.43741 -38.43718 -38.43690
 Alpha  occ. eigenvalues --  -38.43620 -38.43444  -2.20129  -2.19970  -2.19591
 Alpha  occ. eigenvalues --   -2.19559  -2.19513  -2.19444  -2.19302  -1.13808
 Alpha  occ. eigenvalues --   -1.13780  -1.13773  -1.13620  -1.13598  -1.13591
 Alpha  occ. eigenvalues --   -1.13293  -1.13257  -1.13239  -1.13225  -1.13215
 Alpha  occ. eigenvalues --   -1.13195  -1.13185  -1.13174  -1.13157  -1.13118
 Alpha  occ. eigenvalues --   -1.13111  -1.13057  -1.12980  -1.12967  -1.12926
 Alpha  occ. eigenvalues --   -0.18041  -0.12582  -0.12394  -0.10941
 Alpha virt. eigenvalues --   -0.05831  -0.05197  -0.04751  -0.03185  -0.03111
 Alpha virt. eigenvalues --   -0.02867  -0.01593  -0.01168  -0.00470  -0.00428
 Alpha virt. eigenvalues --   -0.00090   0.00354   0.00724   0.00830   0.00841

  Beta  occ. eigenvalues --  -38.44371 -38.44044 -38.43740 -38.43717 -38.43628
  Beta  occ. eigenvalues --  -38.43615 -38.43437  -2.20132  -2.19777  -2.19560
  Beta  occ. eigenvalues --   -2.19513  -2.19478  -2.19438  -2.19291  -1.13797
  Beta  occ. eigenvalues --   -1.13783  -1.13778  -1.13492  -1.13463  -1.13454
  Beta  occ. eigenvalues --   -1.13243  -1.13230  -1.13206  -1.13203  -1.13193
  Beta  occ. eigenvalues --   -1.13169  -1.13164  -1.13160  -1.13121  -1.13098
  Beta  occ. eigenvalues --   -1.13085  -1.13056  -1.12969  -1.12938  -1.12921
  Beta  occ. eigenvalues --   -0.17306  -0.12412  -0.12207
  Beta virt. eigenvalues --   -0.06994  -0.05833  -0.05138  -0.04620  -0.02399
  Beta virt. eigenvalues --   -0.02379  -0.01861  -0.01509  -0.01098  -0.00521
  Beta virt. eigenvalues --   -0.00470   0.00083   0.00384   0.00792   0.00838

 Mulliken charges and spin densities:
               1          2
     1  Na   0.052247  -0.105882
     2  Na   0.096781  -0.092957
     3  Na  -0.007469   0.447233
     4  Na  -0.565954   0.757257
     5  Na   0.232838   0.016625
     6  Na   0.105436  -0.009594
     7  Na   0.086122  -0.012682
 Sum of Mulliken charges =  -0.00000   1.00000

 Dipole moment (field-independent basis, Debye):
    X=              0.3318    Y=             -0.0897    Z=              0.0914  Tot=              0.3556
 Quadrupole moment (field-independent basis, Debye-Ang):
   XX=            -57.6498   YY=            -63.9933   ZZ=            -73.0174
   XY=              0.7756   XZ=             -0.1298   YZ=             -1.4075

 Normal termination of Gaussian 16 at Thu Dec  7 15:21:44 2023.
