 Gaussian 16, Revision B.01,
 Gaussian 16:  ES64L-G16RevB.01 20-Dec-2017

 -------------------------
 #P B3LYP/6-311+g(d) force
 -------------------------

 -----
 DPGEN
 -----
 Symbolic Z-matrix:
 Charge =  0 Multiplicity = 2

                         Standard orientation:
 ---------------------------------------------------------------------
 Center     Atomic      Atomic             Coordinates (Angstroms)
 Number     Number       Type             X           Y           Z
 ---------------------------------------------------------------------
      1         11           0       -0.974723    1.794543    0.209437
      2         11           0       -0.294990   -0.845904   -1.447412
      3         11           0       -3.019701   -0.071731   -0.378685
      4         11           0       -1.007674   -1.180437    1.294108
      5         11           0        1.967241   -1.713526   -0.125274
      6         11           0        1.862221    1.277726   -1.198960
      7         11           0        1.467626    0.739328    1.646787
 ---------------------------------------------------------------------

 SCF Done:  E(UB3LYP) =  -1136.09845493     A.U. after   21 cycles

 The electronic state is 2-A.
 Alpha  occ. eigenvalues --  -38.44525 -38.43891 -38.43770 -38.43696 -38.43654
 Alpha  occ. eigenvalues --  -38.43222 -38.42665  -2.20548  -2.19975  -2.19884
 Alpha  occ. eigenvalues --   -2.19828  -2.19808  -2.19261  -2.18772  -1.14351
 Alpha  occ. eigenvalues --   -1.14216  -1.14183  -1.13806  -1.13741  -1.13695
 Alpha  occ. eigenvalues --   -1.13669  -1.13603  -1.13567  -1.13452  -1.13420
 Alpha  occ. eigenvalues --   -1.13413  -1.13390  -1.13374  -1.13325  -1.12909
 Alpha  occ. eigenvalues --   -1.12898  -1.12841  -1.12468  -1.12428  -1.12384
 Alpha  occ. eigenvalues --   -0.21042  -0.14288  -0.12477  -0.11825
 Alpha virt. eigenvalues --   -0.05723  -0.04335  -0.04176  -0.03506  -0.02842
 Alpha virt. eigenvalues --   -0.02825  -0.01373  -0.00456  -0.00299   0.00303
 Alpha virt. eigenvalues --    0.00654   0.00801   0.00887   0.01012   0.01074

  Beta  occ. eigenvalues --  -38.44520 -38.43831 -38.43731 -38.43645 -38.43595
  Beta  occ. eigenvalues --  -38.43211 -38.42649  -2.20540  -2.19868  -2.19783
  Beta  occ. eigenvalues --   -2.19743  -2.19732  -2.19247  -2.18750  -1.14344
  Beta  occ. eigenvalues --   -1.14203  -1.14164  -1.13752  -1.13679  -1.13600
  Beta  occ. eigenvalues --   -1.13594  -1.13526  -1.13495  -1.13373  -1.13358
  Beta  occ. eigenvalues --   -1.13355  -1.13336  -1.13309  -1.13241  -1.12899
  Beta  occ. eigenvalues --   -1.12861  -1.12817  -1.12458  -1.12397  -1.12339
  Beta  occ. eigenvalues --   -0.20173  -0.14052  -0.11607
  Beta virt. eigenvalues --   -0.08093  -0.05606  -0.04236  -0.03534  -0.03265
  Beta virt. eigenvalues --   -0.02113  -0.01810  -0.01311  -0.00352  -0.00085
  Beta virt. eigenvalues --    0.00342   0.00706   0.00809   0.01034   0.01059

 Mulliken charges and spin densities:
               1          2
     1  Na  -0.865304   0.189291
     2  Na  -0.096152   0.492866
     3  Na   1.115424  -0.065917
     4  Na  -0.609156   0.178656
     5  Na  -0.087984  -0.079629
     6  Na  -0.019812  -0.029149
     7  Na   0.562985   0.313883
 Sum of Mulliken charges =  -0.00000   1.00000

 Dipole moment (field-independent basis, Debye):
    X=             -0.1435    Y=              0.0692    Z=              0.0246  Tot=              0.1612
 Quadrupole moment (field-independent basis, Debye-Ang):
   XX=            -55.3869   YY=            -75.3559   ZZ=            -65.4526
   XY=             -0.0400   XZ=              0.5281   YZ=             -1.8815

 Normal termination of Gaussian 16 at Sat Dec  9 06:28:26 2023.
