 Gaussian 16, Revision B.01,
 Gaussian 16:  ES64L-G16RevB.01 20-Dec-2017

 -------------------------
 #P B3LYP/6-311+g(d) force
 -------------------------

 -----
 DPGEN
 -----
 Symbolic Z-matrix:
 Charge =  0 Multiplicity = 2

                         Standard orientation:
 ---------------------------------------------------------------------
 Center     Atomic      Atomic             Coordinates (Angstroms)
 Number     Number       Type             X           Y           Z
 ---------------------------------------------------------------------
      1         11           0        3.749931    1.775776   -0.210400
      2         11           0       -4.475262    0.260341   -0.455242
      3         11           0        0.881633   -2.577367    0.927166
      4         11           0        0.744362    3.254676   -0.519825
      5         11           0        3.627475   -1.824575   -0.109253
      6         11           0       -2.037100   -2.731361   -0.808307
      7         11           0       -2.491038    1.842510    1.175860
 ---------------------------------------------------------------------

 SCF Done:  E(UB3LYP) =  -1136.10717522     A.U. after   23 cycles

 The electronic state is 2-A.
 Alpha  occ. eigenvalues --  -38.45043 -38.44906 -38.44826 -38.44317 -38.44222
 Alpha  occ. eigenvalues --  -38.43829 -38.43740  -2.20848  -2.20671  -2.20646
 Alpha  occ. eigenvalues --   -2.20114  -2.20040  -2.19615  -2.19586  -1.14587
 Alpha  occ. eigenvalues --   -1.14501  -1.14489  -1.14354  -1.14338  -1.14317
 Alpha  occ. eigenvalues --   -1.14292  -1.14275  -1.14268  -1.13789  -1.13767
 Alpha  occ. eigenvalues --   -1.13751  -1.13735  -1.13702  -1.13678  -1.13274
 Alpha  occ. eigenvalues --   -1.13268  -1.13246  -1.13235  -1.13219  -1.13205
 Alpha  occ. eigenvalues --   -0.15895  -0.14149  -0.13085  -0.10491
 Alpha virt. eigenvalues --   -0.07546  -0.04866  -0.04409  -0.03675  -0.03313
 Alpha virt. eigenvalues --   -0.02530  -0.02241  -0.01586  -0.00914  -0.00820
 Alpha virt. eigenvalues --   -0.00702  -0.00084   0.00281   0.00427   0.00655

  Beta  occ. eigenvalues --  -38.45019 -38.44905 -38.44796 -38.44243 -38.44225
  Beta  occ. eigenvalues --  -38.43786 -38.43682  -2.20808  -2.20675  -2.20595
  Beta  occ. eigenvalues --   -2.20052  -2.19976  -2.19535  -2.19477  -1.14545
  Beta  occ. eigenvalues --   -1.14477  -1.14454  -1.14363  -1.14345  -1.14286
  Beta  occ. eigenvalues --   -1.14260  -1.14238  -1.14220  -1.13758  -1.13720
  Beta  occ. eigenvalues --   -1.13707  -1.13673  -1.13648  -1.13624  -1.13220
  Beta  occ. eigenvalues --   -1.13215  -1.13190  -1.13171  -1.13143  -1.13132
  Beta  occ. eigenvalues --   -0.15396  -0.13496  -0.12324
  Beta virt. eigenvalues --   -0.07631  -0.07351  -0.04608  -0.03950  -0.03374
  Beta virt. eigenvalues --   -0.02940  -0.02235  -0.02095  -0.01323  -0.00711
  Beta virt. eigenvalues --   -0.00628  -0.00414   0.00075   0.00311   0.00542

 Mulliken charges and spin densities:
               1          2
     1  Na   0.097080  -0.012394
     2  Na   0.239075   0.112657
     3  Na  -0.349739  -0.058358
     4  Na  -0.124251   0.184009
     5  Na   0.229590   0.300519
     6  Na   0.054534   0.326245
     7  Na  -0.146289   0.147321
 Sum of Mulliken charges =  -0.00000   1.00000

 Dipole moment (field-independent basis, Debye):
    X=             -0.8479    Y=              0.1739    Z=             -0.1587  Tot=              0.8800
 Quadrupole moment (field-independent basis, Debye-Ang):
   XX=            -58.4483   YY=            -75.1455   ZZ=            -68.1016
   XY=              3.0402   XZ=              2.5694   YZ=              1.7636

 Normal termination of Gaussian 16 at Sun Dec  3 14:40:07 2023.
