 Gaussian 16, Revision B.01,
 Gaussian 16:  ES64L-G16RevB.01 20-Dec-2017

 -------------------------
 #P B3LYP/6-311+g(d) force
 -------------------------

 -----
 DPGEN
 -----
 Symbolic Z-matrix:
 Charge =  0 Multiplicity = 2

                         Standard orientation:
 ---------------------------------------------------------------------
 Center     Atomic      Atomic             Coordinates (Angstroms)
 Number     Number       Type             X           Y           Z
 ---------------------------------------------------------------------
      1         11           0        1.278813    1.525634   -1.378086
      2         11           0       -1.523661   -3.060837    0.267338
      3         11           0       -0.370469    0.089182    1.865706
      4         11           0        3.644164    0.046263    0.867909
      5         11           0       -1.580245    3.239505    0.183997
      6         11           0       -2.795206   -0.204352   -0.584749
      7         11           0        1.346603   -1.635396   -1.222115
 ---------------------------------------------------------------------

 SCF Done:  E(UB3LYP) =  -1136.13155490     A.U. after   20 cycles

 The electronic state is 2-A.
 Alpha  occ. eigenvalues --  -38.44523 -38.44429 -38.43960 -38.43651 -38.43632
 Alpha  occ. eigenvalues --  -38.43510 -38.43466  -2.20348  -2.20219  -2.19806
 Alpha  occ. eigenvalues --   -2.19512  -2.19502  -2.19301  -2.19295  -1.14039
 Alpha  occ. eigenvalues --   -1.14021  -1.13970  -1.13892  -1.13870  -1.13848
 Alpha  occ. eigenvalues --   -1.13490  -1.13436  -1.13429  -1.13293  -1.13174
 Alpha  occ. eigenvalues --   -1.13161  -1.13155  -1.13123  -1.13076  -1.12970
 Alpha  occ. eigenvalues --   -1.12966  -1.12958  -1.12952  -1.12948  -1.12934
 Alpha  occ. eigenvalues --   -0.17833  -0.13192  -0.12307  -0.10402
 Alpha virt. eigenvalues --   -0.06053  -0.05295  -0.04939  -0.03575  -0.02766
 Alpha virt. eigenvalues --   -0.02330  -0.01825  -0.01343  -0.00545  -0.00482
 Alpha virt. eigenvalues --    0.00059   0.00324   0.00629   0.00717   0.00750

  Beta  occ. eigenvalues --  -38.44520 -38.44405 -38.43890 -38.43610 -38.43597
  Beta  occ. eigenvalues --  -38.43512 -38.43465  -2.20343  -2.20176  -2.19676
  Beta  occ. eigenvalues --   -2.19443  -2.19437  -2.19303  -2.19300  -1.14033
  Beta  occ. eigenvalues --   -1.14006  -1.13971  -1.13863  -1.13829  -1.13820
  Beta  occ. eigenvalues --   -1.13401  -1.13343  -1.13335  -1.13240  -1.13119
  Beta  occ. eigenvalues --   -1.13113  -1.13090  -1.13076  -1.13035  -1.12973
  Beta  occ. eigenvalues --   -1.12968  -1.12953  -1.12949  -1.12938  -1.12938
  Beta  occ. eigenvalues --   -0.17181  -0.12980  -0.12160
  Beta virt. eigenvalues --   -0.06691  -0.05798  -0.05169  -0.04854  -0.02932
  Beta virt. eigenvalues --   -0.02249  -0.01646  -0.01468  -0.01299  -0.00539
  Beta virt. eigenvalues --   -0.00234   0.00156   0.00377   0.00698   0.00786

 Mulliken charges and spin densities:
               1          2
     1  Na  -0.072522   0.214581
     2  Na   0.396041  -0.051882
     3  Na  -0.442426   0.606721
     4  Na   0.063985   0.003238
     5  Na   0.228202  -0.048584
     6  Na  -0.087610   0.037221
     7  Na  -0.085670   0.238707
 Sum of Mulliken charges =  -0.00000   1.00000

 Dipole moment (field-independent basis, Debye):
    X=              0.0479    Y=             -0.0562    Z=              0.1163  Tot=              0.1377
 Quadrupole moment (field-independent basis, Debye-Ang):
   XX=            -57.5921   YY=            -62.3997   ZZ=            -73.8838
   XY=              0.1937   XZ=              2.7000   YZ=             -0.2468

 Normal termination of Gaussian 16 at Tue Dec  5 16:30:35 2023.
