 Gaussian 16, Revision B.01,
 Gaussian 16:  ES64L-G16RevB.01 20-Dec-2017

 -------------------------
 #P B3LYP/6-311+g(d) force
 -------------------------

 -----
 DPGEN
 -----
 Symbolic Z-matrix:
 Charge =  0 Multiplicity = 2

                         Standard orientation:
 ---------------------------------------------------------------------
 Center     Atomic      Atomic             Coordinates (Angstroms)
 Number     Number       Type             X           Y           Z
 ---------------------------------------------------------------------
      1         11           0       -0.635576   -0.272440    1.571215
      2         11           0        2.247614   -1.742467    0.700832
      3         11           0       -3.451601   -0.968622   -0.267048
      4         11           0        0.820540    1.390144   -0.604155
      5         11           0       -2.471889    1.996450    0.287834
      6         11           0       -0.478340   -1.302759   -1.441610
      7         11           0        3.969252    0.899694   -0.247067
 ---------------------------------------------------------------------

 SCF Done:  E(UB3LYP) =  -1136.10978932     A.U. after   33 cycles

 The electronic state is 2-A.
 Alpha  occ. eigenvalues --  -38.45184 -38.44847 -38.44010 -38.43944 -38.43755
 Alpha  occ. eigenvalues --  -38.43424 -38.43247  -2.21066  -2.20676  -2.19962
 Alpha  occ. eigenvalues --   -2.19830  -2.19700  -2.19322  -2.19299  -1.14726
 Alpha  occ. eigenvalues --   -1.14722  -1.14709  -1.14345  -1.14330  -1.14316
 Alpha  occ. eigenvalues --   -1.13732  -1.13669  -1.13548  -1.13509  -1.13484
 Alpha  occ. eigenvalues --   -1.13465  -1.13404  -1.13348  -1.13289  -1.13046
 Alpha  occ. eigenvalues --   -1.13003  -1.12978  -1.12966  -1.12914  -1.12846
 Alpha  occ. eigenvalues --   -0.19279  -0.14715  -0.11225  -0.10626
 Alpha virt. eigenvalues --   -0.07898  -0.05380  -0.03872  -0.03448  -0.03070
 Alpha virt. eigenvalues --   -0.02151  -0.01752  -0.01587  -0.00574  -0.00303
 Alpha virt. eigenvalues --   -0.00239   0.00260   0.00419   0.00627   0.00648

  Beta  occ. eigenvalues --  -38.45152 -38.44823 -38.43998 -38.43924 -38.43729
  Beta  occ. eigenvalues --  -38.43417 -38.43166  -2.21009  -2.20633  -2.19946
  Beta  occ. eigenvalues --   -2.19796  -2.19653  -2.19311  -2.19154  -1.14687
  Beta  occ. eigenvalues --   -1.14675  -1.14663  -1.14313  -1.14304  -1.14282
  Beta  occ. eigenvalues --   -1.13725  -1.13620  -1.13534  -1.13468  -1.13466
  Beta  occ. eigenvalues --   -1.13434  -1.13376  -1.13316  -1.13237  -1.13014
  Beta  occ. eigenvalues --   -1.12974  -1.12944  -1.12909  -1.12819  -1.12740
  Beta  occ. eigenvalues --   -0.18673  -0.14370  -0.10861
  Beta virt. eigenvalues --   -0.07697  -0.06911  -0.05286  -0.03250  -0.03202
  Beta virt. eigenvalues --   -0.02923  -0.01722  -0.01349  -0.01061  -0.00317
  Beta virt. eigenvalues --   -0.00182  -0.00128   0.00291   0.00591   0.00647

 Mulliken charges and spin densities:
               1          2
     1  Na  -0.538251   0.150394
     2  Na   0.594420   0.204705
     3  Na   0.026329   0.091593
     4  Na  -0.320888   0.234174
     5  Na   0.663024   0.173858
     6  Na  -0.105868   0.225236
     7  Na  -0.318767  -0.079961
 Sum of Mulliken charges =  -0.00000   1.00000

 Dipole moment (field-independent basis, Debye):
    X=              0.0534    Y=             -0.6332    Z=              0.5093  Tot=              0.8144
 Quadrupole moment (field-independent basis, Debye-Ang):
   XX=            -45.7303   YY=            -76.4003   ZZ=            -72.3436
   XY=             -2.7143   XZ=              0.1426   YZ=             -1.9790

 Normal termination of Gaussian 16 at Tue Nov 28 19:15:47 2023.
