 Gaussian 16, Revision B.01,
 Gaussian 16:  ES64L-G16RevB.01 20-Dec-2017

 -------------------------
 #P B3LYP/6-311+g(d) force
 -------------------------

 -----
 DPGEN
 -----
 Symbolic Z-matrix:
 Charge =  0 Multiplicity = 2

                         Standard orientation:
 ---------------------------------------------------------------------
 Center     Atomic      Atomic             Coordinates (Angstroms)
 Number     Number       Type             X           Y           Z
 ---------------------------------------------------------------------
      1         11           0        2.845355    0.755717    0.233509
      2         11           0       -2.574673    1.280207    0.264552
      3         11           0        0.268381    2.956578   -0.612057
      4         11           0       -0.111160   -0.018326    1.937525
      5         11           0        0.205423   -0.695240   -1.753635
      6         11           0       -3.173246   -1.988614   -0.163504
      7         11           0        2.539920   -2.290322    0.093608
 ---------------------------------------------------------------------

 SCF Done:  E(UB3LYP) =  -1136.13003276     A.U. after   20 cycles

 The electronic state is 2-A.
 Alpha  occ. eigenvalues --  -38.44253 -38.44235 -38.44015 -38.43976 -38.43957
 Alpha  occ. eigenvalues --  -38.43830 -38.42752  -2.20146  -2.20008  -2.19892
 Alpha  occ. eigenvalues --   -2.19829  -2.19828  -2.19697  -2.18590  -1.13849
 Alpha  occ. eigenvalues --   -1.13813  -1.13800  -1.13689  -1.13671  -1.13654
 Alpha  occ. eigenvalues --   -1.13605  -1.13553  -1.13508  -1.13495  -1.13492
 Alpha  occ. eigenvalues --   -1.13482  -1.13473  -1.13463  -1.13437  -1.13377
 Alpha  occ. eigenvalues --   -1.13330  -1.13309  -1.12261  -1.12250  -1.12232
 Alpha  occ. eigenvalues --   -0.18325  -0.13645  -0.11858  -0.10683
 Alpha virt. eigenvalues --   -0.06126  -0.05720  -0.04265  -0.03575  -0.02720
 Alpha virt. eigenvalues --   -0.02430  -0.01885  -0.01326  -0.00693  -0.00222
 Alpha virt. eigenvalues --    0.00012   0.00317   0.00629   0.00753   0.00754

  Beta  occ. eigenvalues --  -38.44243 -38.44240 -38.43975 -38.43951 -38.43932
  Beta  occ. eigenvalues --  -38.43760 -38.42739  -2.20131  -2.20019  -2.19829
  Beta  occ. eigenvalues --   -2.19820  -2.19739  -2.19568  -2.18569  -1.13844
  Beta  occ. eigenvalues --   -1.13800  -1.13763  -1.13699  -1.13668  -1.13661
  Beta  occ. eigenvalues --   -1.13551  -1.13487  -1.13484  -1.13472  -1.13453
  Beta  occ. eigenvalues --   -1.13446  -1.13441  -1.13400  -1.13389  -1.13291
  Beta  occ. eigenvalues --   -1.13235  -1.13219  -1.12249  -1.12232  -1.12208
  Beta  occ. eigenvalues --   -0.17589  -0.13455  -0.11663
  Beta virt. eigenvalues --   -0.06834  -0.06033  -0.05617  -0.04191  -0.02806
  Beta virt. eigenvalues --   -0.02038  -0.01823  -0.01510  -0.01156  -0.00752
  Beta virt. eigenvalues --   -0.00173   0.00132   0.00346   0.00743   0.00758

 Mulliken charges and spin densities:
               1          2
     1  Na   0.257686   0.163436
     2  Na   0.235304   0.093457
     3  Na  -0.232573   0.005756
     4  Na  -0.042815   0.372522
     5  Na  -0.185767   0.479231
     6  Na  -0.086255  -0.080072
     7  Na   0.054421  -0.034330
 Sum of Mulliken charges =  -0.00000   1.00000

 Dipole moment (field-independent basis, Debye):
    X=              0.0568    Y=             -0.5634    Z=              0.1025  Tot=              0.5755
 Quadrupole moment (field-independent basis, Debye-Ang):
   XX=            -55.8369   YY=            -64.0854   ZZ=            -74.6829
   XY=              0.1178   XZ=              0.7060   YZ=             -0.9733

 Normal termination of Gaussian 16 at Tue Dec  5 17:13:18 2023.
