 Gaussian 16, Revision B.01,
 Gaussian 16:  ES64L-G16RevB.01 20-Dec-2017

 -------------------------
 #P B3LYP/6-311+g(d) force
 -------------------------

 -----
 DPGEN
 -----
 Symbolic Z-matrix:
 Charge =  0 Multiplicity = 2

                         Standard orientation:
 ---------------------------------------------------------------------
 Center     Atomic      Atomic             Coordinates (Angstroms)
 Number     Number       Type             X           Y           Z
 ---------------------------------------------------------------------
      1         11           0       -2.475380    1.253783    1.240974
      2         11           0       -0.776603   -1.825528   -1.011102
      3         11           0       -3.984124   -0.817322   -0.529980
      4         11           0        1.850860   -2.515332    0.993698
      5         11           0        2.023070    0.857280    1.801889
      6         11           0        3.190852    0.274451   -1.616762
      7         11           0        0.171325    2.772667   -0.878718
 ---------------------------------------------------------------------

 SCF Done:  E(UB3LYP) =  -1136.11964595     A.U. after   21 cycles

 The electronic state is 2-A.
 Alpha  occ. eigenvalues --  -38.44787 -38.44564 -38.44378 -38.44336 -38.44122
 Alpha  occ. eigenvalues --  -38.44014 -38.43541  -2.20569  -2.20389  -2.20188
 Alpha  occ. eigenvalues --   -2.20145  -2.19917  -2.19773  -2.19357  -1.14238
 Alpha  occ. eigenvalues --   -1.14201  -1.14188  -1.14100  -1.14043  -1.14034
 Alpha  occ. eigenvalues --   -1.13853  -1.13843  -1.13820  -1.13805  -1.13800
 Alpha  occ. eigenvalues --   -1.13768  -1.13607  -1.13593  -1.13537  -1.13461
 Alpha  occ. eigenvalues --   -1.13433  -1.13408  -1.13030  -1.13008  -1.12995
 Alpha  occ. eigenvalues --   -0.17025  -0.13879  -0.11797  -0.10548
 Alpha virt. eigenvalues --   -0.06791  -0.05789  -0.04508  -0.03497  -0.03052
 Alpha virt. eigenvalues --   -0.02499  -0.02125  -0.01272  -0.00717  -0.00593
 Alpha virt. eigenvalues --   -0.00359   0.00118   0.00204   0.00331   0.00708

  Beta  occ. eigenvalues --  -38.44716 -38.44563 -38.44362 -38.44290 -38.44111
  Beta  occ. eigenvalues --  -38.44011 -38.43518  -2.20438  -2.20388  -2.20159
  Beta  occ. eigenvalues --   -2.20062  -2.19896  -2.19769  -2.19318  -1.14144
  Beta  occ. eigenvalues --   -1.14116  -1.14097  -1.14095  -1.14039  -1.14032
  Beta  occ. eigenvalues --   -1.13831  -1.13824  -1.13787  -1.13759  -1.13741
  Beta  occ. eigenvalues --   -1.13700  -1.13583  -1.13579  -1.13525  -1.13459
  Beta  occ. eigenvalues --   -1.13429  -1.13390  -1.13005  -1.12974  -1.12963
  Beta  occ. eigenvalues --   -0.16519  -0.13567  -0.11617
  Beta virt. eigenvalues --   -0.06998  -0.06651  -0.05361  -0.04182  -0.03289
  Beta virt. eigenvalues --   -0.02621  -0.02164  -0.01458  -0.01042  -0.00615
  Beta virt. eigenvalues --   -0.00379  -0.00199   0.00237   0.00272   0.00493

 Mulliken charges and spin densities:
               1          2
     1  Na  -0.033661   0.054024
     2  Na  -0.662918   0.160093
     3  Na   0.355049  -0.042605
     4  Na   0.426132   0.000463
     5  Na   0.002745   0.387718
     6  Na  -0.029527   0.374857
     7  Na  -0.057820   0.065450
 Sum of Mulliken charges =  -0.00000   1.00000

 Dipole moment (field-independent basis, Debye):
    X=             -0.6088    Y=              0.0059    Z=             -0.0523  Tot=              0.6110
 Quadrupole moment (field-independent basis, Debye-Ang):
   XX=            -54.0418   YY=            -72.9222   ZZ=            -70.2591
   XY=             -0.7692   XZ=              0.8488   YZ=              0.0194

 Normal termination of Gaussian 16 at Mon Dec  4 04:13:47 2023.
