 Gaussian 16, Revision B.01,
 Gaussian 16:  ES64L-G16RevB.01 20-Dec-2017

 -------------------------
 #P B3LYP/6-311+g(d) force
 -------------------------

 -----
 DPGEN
 -----
 Symbolic Z-matrix:
 Charge =  0 Multiplicity = 2

                         Standard orientation:
 ---------------------------------------------------------------------
 Center     Atomic      Atomic             Coordinates (Angstroms)
 Number     Number       Type             X           Y           Z
 ---------------------------------------------------------------------
      1         11           0       -1.726224   -2.385687   -0.066960
      2         11           0        0.166980   -1.144235    1.903326
      3         11           0       -3.539112    0.189665   -1.435867
      4         11           0       -1.690413    2.074754    1.026933
      5         11           0        1.375336    3.392810   -0.156658
      6         11           0        2.351505   -2.954132   -0.460737
      7         11           0        3.061927    0.826824   -0.810037
 ---------------------------------------------------------------------

 SCF Done:  E(UB3LYP) =  -1136.11800452     A.U. after   21 cycles

 The electronic state is 2-A.
 Alpha  occ. eigenvalues --  -38.44818 -38.44812 -38.44379 -38.44225 -38.44057
 Alpha  occ. eigenvalues --  -38.44021 -38.43865  -2.20649  -2.20564  -2.20165
 Alpha  occ. eigenvalues --   -2.20091  -2.19851  -2.19823  -2.19678  -1.14404
 Alpha  occ. eigenvalues --   -1.14318  -1.14253  -1.14247  -1.14220  -1.14197
 Alpha  occ. eigenvalues --   -1.13842  -1.13836  -1.13797  -1.13775  -1.13726
 Alpha  occ. eigenvalues --   -1.13673  -1.13595  -1.13525  -1.13497  -1.13482
 Alpha  occ. eigenvalues --   -1.13463  -1.13416  -1.13329  -1.13322  -1.13300
 Alpha  occ. eigenvalues --   -0.16921  -0.13293  -0.12913  -0.10560
 Alpha virt. eigenvalues --   -0.06829  -0.05871  -0.04184  -0.03805  -0.03239
 Alpha virt. eigenvalues --   -0.01988  -0.01828  -0.01361  -0.01185  -0.00997
 Alpha virt. eigenvalues --   -0.00190   0.00140   0.00331   0.00531   0.00650

  Beta  occ. eigenvalues --  -38.44808 -38.44807 -38.44360 -38.44156 -38.44032
  Beta  occ. eigenvalues --  -38.44025 -38.43794  -2.20634  -2.20558  -2.20131
  Beta  occ. eigenvalues --   -2.19964  -2.19833  -2.19804  -2.19547  -1.14366
  Beta  occ. eigenvalues --   -1.14306  -1.14243  -1.14236  -1.14215  -1.14187
  Beta  occ. eigenvalues --   -1.13817  -1.13800  -1.13773  -1.13695  -1.13639
  Beta  occ. eigenvalues --   -1.13584  -1.13579  -1.13502  -1.13481  -1.13472
  Beta  occ. eigenvalues --   -1.13456  -1.13399  -1.13238  -1.13228  -1.13217
  Beta  occ. eigenvalues --   -0.16354  -0.12923  -0.12586
  Beta virt. eigenvalues --   -0.07138  -0.06664  -0.05584  -0.03758  -0.03442
  Beta virt. eigenvalues --   -0.02691  -0.01768  -0.01406  -0.01272  -0.01166
  Beta virt. eigenvalues --   -0.00790   0.00065   0.00341   0.00449   0.00582

 Mulliken charges and spin densities:
               1          2
     1  Na  -0.465232  -0.010656
     2  Na   0.507861   0.478049
     3  Na   0.195097   0.365960
     4  Na  -0.289812   0.082617
     5  Na   0.193706  -0.072419
     6  Na   0.196095  -0.041593
     7  Na  -0.337716   0.198043
 Sum of Mulliken charges =  -0.00000   1.00000

 Dipole moment (field-independent basis, Debye):
    X=              0.2311    Y=             -0.5448    Z=             -0.0154  Tot=              0.5920
 Quadrupole moment (field-independent basis, Debye-Ang):
   XX=            -68.8501   YY=            -58.6380   ZZ=            -72.0312
   XY=             -4.1559   XZ=             -0.5531   YZ=              1.5350

 Normal termination of Gaussian 16 at Mon Dec  4 02:45:49 2023.
